 vasp.5.4.4.18Apr17-6-g9f103f2a35 (build Dec 02 2020 12:53:39) complex          
  
 executed on             LinuxIFC date 2021.07.31  11:24:30
 running on  112 total cores
 distrk:  each k-point on  112 cores,    1 groups
 distr:  one band on NCORES_PER_BAND=   1 cores,  112 groups


--------------------------------------------------------------------------------------------------------


 INCAR:
 POTCAR:    PAW_PBE Na_pv 19Sep2006               
 POTCAR:    PAW_PBE Mg_pv 13Apr2007               
 POTCAR:    PAW_PBE Mn_pv 02Aug2007               
 POTCAR:    PAW_PBE O 08Apr2002                   

 ----------------------------------------------------------------------------- 
|                                                                             |
|           W    W    AA    RRRRR   N    N  II  N    N   GGGG   !!!           |
|           W    W   A  A   R    R  NN   N  II  NN   N  G    G  !!!           |
|           W    W  A    A  R    R  N N  N  II  N N  N  G       !!!           |
|           W WW W  AAAAAA  RRRRR   N  N N  II  N  N N  G  GGG   !            |
|           WW  WW  A    A  R   R   N   NN  II  N   NN  G    G                |
|           W    W  A    A  R    R  N    N  II  N    N   GGGG   !!!           |
|                                                                             |
|      For optimal performance we recommend to set                            |
|        NCORE= 4 - approx SQRT( number of cores)                             |
|      NCORE specifies how many cores store one orbital (NPAR=cpu/NCORE).     |
|      This setting can  greatly improve the performance of VASP for DFT.     |
|      The default,   NCORE=1            might be grossly inefficient         |
|      on modern multi-core architectures or massively parallel machines.     |
|      Do your own testing !!!!                                               |
|      Unfortunately you need to use the default for GW and RPA calculations. |
|      (for HF NCORE is supported but not extensively tested yet)             |
|                                                                             |
 ----------------------------------------------------------------------------- 

 POTCAR:    PAW_PBE Na_pv 19Sep2006               
   VRHFIN =Na: p6s1                                                             
   LEXCH  = PE                                                                  
   EATOM  =   766.0439 eV,   56.3026 Ry                                         
                                                                                
   TITEL  = PAW_PBE Na_pv 19Sep2006                                             
   LULTRA =        F    use ultrasoft PP ?                                      
   IUNSCR =        1    unscreen: 0-lin 1-nonlin 2-no                           
   RPACOR =    1.800    partial core radius                                     
   POMASS =   22.990; ZVAL   =    7.000    mass and valenz                      
   RCORE  =    2.200    outmost cutoff radius                                   
   RWIGS  =    2.200; RWIGS  =    1.164    wigner-seitz radius (au A)           
   ENMAX  =  259.561; ENMIN  =  194.671 eV                                      
   ICORE  =        2    local potential                                         
   LCOR   =        T    correct aug charges                                     
   LPAW   =        T    paw PP                                                  
   EAUG   =  368.056                                                            
   DEXC   =    0.000                                                            
   RMAX   =    2.245    core radius for proj-oper                               
   RAUG   =    1.300    factor for augmentation sphere                          
   RDEP   =    2.259    radius for radial grids                                 
   RDEPT  =    1.738    core radius for aug-charge                              
                                                                                
   Atomic configuration                                                         
    5 entries                                                                   
     n  l   j            E        occ.                                          
     1  0  0.50     -1033.6933   2.0000                                         
     2  0  0.50       -56.7526   2.0000                                         
     2  1  1.50       -28.6721   6.0000                                         
     3  0  0.50        -2.7440   1.0000                                         
     3  2  1.50        -1.3606   0.0000                                         
   Description                                                                  
     l       E           TYP  RCUT    TYP  RCUT                                 
     1    -28.6720912     23  2.000                                             
     1      6.8029130     23  2.000                                             
     0     -2.7439560     23  2.200                                             
     0     34.0145650     23  2.200                                             
     2     -1.3605826     23  2.200                                             
  local pseudopotential read in
  partial core-charges read in
  partial kinetic energy density read in
  atomic valenz-charges read in
  non local Contribution for L=           1  read in
    real space projection operators read in
  non local Contribution for L=           1  read in
    real space projection operators read in
  non local Contribution for L=           0  read in
    real space projection operators read in
  non local Contribution for L=           0  read in
    real space projection operators read in
    PAW grid and wavefunctions read in
 
   number of l-projection  operators is LMAX  =           4
   number of lm-projection operators is LMMAX =           8
 
 POTCAR:    PAW_PBE Mg_pv 13Apr2007               
   VRHFIN =Mg: p6s2                                                             
   LEXCH  = PE                                                                  
   EATOM  =  1056.7344 eV,   77.6678 Ry                                         
                                                                                
   TITEL  = PAW_PBE Mg_pv 13Apr2007                                             
   LULTRA =        F    use ultrasoft PP ?                                      
   IUNSCR =        1    unscreen: 0-lin 1-nonlin 2-no                           
   RPACOR =    1.500    partial core radius                                     
   POMASS =   24.305; ZVAL   =    8.000    mass and valenz                      
   RCORE  =    2.000    outmost cutoff radius                                   
   RWIGS  =    2.000; RWIGS  =    1.058    wigner-seitz radius (au A)           
   ENMAX  =  403.929; ENMIN  =  302.947 eV                                      
   RCLOC  =    1.506    cutoff for local pot                                    
   LCOR   =        T    correct aug charges                                     
   LPAW   =        T    paw PP                                                  
   EAUG   =  758.780                                                            
   DEXC   =    0.000                                                            
   RMAX   =    2.045    core radius for proj-oper                               
   RAUG   =    1.300    factor for augmentation sphere                          
   RDEP   =    2.025    radius for radial grids                                 
   RDEPT  =    1.557    core radius for aug-charge                              
                                                                                
   Atomic configuration                                                         
    5 entries                                                                   
     n  l   j            E        occ.                                          
     1  0  0.50     -1259.6230   2.0000                                         
     2  0  0.50       -79.8442   2.0000                                         
     2  1  1.50       -46.6121   6.0000                                         
     3  0  0.50        -4.7055   2.0000                                         
     3  2  1.50        -1.3606   0.0000                                         
   Description                                                                  
     l       E           TYP  RCUT    TYP  RCUT                                 
     1    -46.6121073     23  1.600                                             
     1      2.7211652     23  1.600                                             
     0     -4.7054661     23  2.000                                             
     0     61.2262170     23  2.000                                             
     2     -1.3605826     23  2.000                                             
  local pseudopotential read in
  partial core-charges read in
  partial kinetic energy density read in
  atomic valenz-charges read in
  non local Contribution for L=           1  read in
    real space projection operators read in
  non local Contribution for L=           1  read in
    real space projection operators read in
  non local Contribution for L=           0  read in
    real space projection operators read in
  non local Contribution for L=           0  read in
    real space projection operators read in
  non local Contribution for L=           2  read in
    real space projection operators read in
    PAW grid and wavefunctions read in
 
   number of l-projection  operators is LMAX  =           5
   number of lm-projection operators is LMMAX =          13
 
 POTCAR:    PAW_PBE Mn_pv 02Aug2007               
   VRHFIN =Mn: 3p4s3d                                                           
   LEXCH  = PE                                                                  
   EATOM  =  2025.2664 eV,  148.8529 Ry                                         
                                                                                
   TITEL  = PAW_PBE Mn_pv 02Aug2007                                             
   LULTRA =        F    use ultrasoft PP ?                                      
   IUNSCR =        1    unscreen: 0-lin 1-nonlin 2-no                           
   RPACOR =    2.080    partial core radius                                     
   POMASS =   54.938; ZVAL   =   13.000    mass and valenz                      
   RCORE  =    2.300    outmost cutoff radius                                   
   RWIGS  =    2.500; RWIGS  =    1.323    wigner-seitz radius (au A)           
   ENMAX  =  269.864; ENMIN  =  202.398 eV                                      
   ICORE  =        3    local potential                                         
   LCOR   =        T    correct aug charges                                     
   LPAW   =        T    paw PP                                                  
   EAUG   =  569.085                                                            
   DEXC   =    0.000                                                            
   RMAX   =    2.343    core radius for proj-oper                               
   RAUG   =    1.300    factor for augmentation sphere                          
   RDEP   =    2.338    radius for radial grids                                 
   RDEPT  =    1.798    core radius for aug-charge                              
                                                                                
   Atomic configuration                                                         
    8 entries                                                                   
     n  l   j            E        occ.                                          
     1  0  0.50     -6424.8287   2.0000                                         
     2  0  0.50      -739.1154   2.0000                                         
     2  1  1.50      -625.3949   6.0000                                         
     3  0  0.50       -81.6100   2.0000                                         
     3  1  1.50       -50.4667   6.0000                                         
     3  2  2.50        -3.3745   6.0000                                         
     4  0  0.50        -4.1331   1.0000                                         
     4  3  2.50        -1.3606   0.0000                                         
   Description                                                                  
     l       E           TYP  RCUT    TYP  RCUT                                 
     1    -50.4666628     23  2.000                                             
     1     -1.3605826     23  2.000                                             
     2     -3.3744729     23  2.300                                             
     2     -4.7350555     23  2.300                                             
     0     -4.1331431     23  2.300                                             
     0      7.6656591     23  2.300                                             
     3      9.5240782     23  2.300                                             
  local pseudopotential read in
  partial core-charges read in
  partial kinetic energy density read in
  atomic valenz-charges read in
  non local Contribution for L=           1  read in
    real space projection operators read in
  non local Contribution for L=           1  read in
    real space projection operators read in
  non local Contribution for L=           2  read in
    real space projection operators read in
  non local Contribution for L=           2  read in
    real space projection operators read in
  non local Contribution for L=           0  read in
    real space projection operators read in
  non local Contribution for L=           0  read in
    real space projection operators read in
    PAW grid and wavefunctions read in
 
   number of l-projection  operators is LMAX  =           6
   number of lm-projection operators is LMMAX =          18
 
 POTCAR:    PAW_PBE O 08Apr2002                   
   VRHFIN =O: s2p4                                                              
   LEXCH  = PE                                                                  
   EATOM  =   432.3788 eV,   31.7789 Ry                                         
                                                                                
   TITEL  = PAW_PBE O 08Apr2002                                                 
   LULTRA =        F    use ultrasoft PP ?                                      
   IUNSCR =        1    unscreen: 0-lin 1-nonlin 2-no                           
   RPACOR =    1.200    partial core radius                                     
   POMASS =   16.000; ZVAL   =    6.000    mass and valenz                      
   RCORE  =    1.520    outmost cutoff radius                                   
   RWIGS  =    1.550; RWIGS  =    0.820    wigner-seitz radius (au A)           
   ENMAX  =  400.000; ENMIN  =  300.000 eV                                      
   ICORE  =        2    local potential                                         
   LCOR   =        T    correct aug charges                                     
   LPAW   =        T    paw PP                                                  
   EAUG   =  605.392                                                            
   DEXC   =    0.000                                                            
   RMAX   =    1.553    core radius for proj-oper                               
   RAUG   =    1.300    factor for augmentation sphere                          
   RDEP   =    1.550    radius for radial grids                                 
   RDEPT  =    1.329    core radius for aug-charge                              
                                                                                
   Atomic configuration                                                         
    4 entries                                                                   
     n  l   j            E        occ.                                          
     1  0  0.50      -514.6923   2.0000                                         
     2  0  0.50       -23.9615   2.0000                                         
     2  1  0.50        -9.0305   4.0000                                         
     3  2  1.50        -9.5241   0.0000                                         
   Description                                                                  
     l       E           TYP  RCUT    TYP  RCUT                                 
     0    -23.9615318     23  1.200                                             
     0     -9.5240782     23  1.200                                             
     1     -9.0304911     23  1.520                                             
     1      8.1634956     23  1.520                                             
     2     -9.5240782      7  1.500                                             
  local pseudopotential read in
  partial core-charges read in
  partial kinetic energy density read in
  kinetic energy density of atom read in
  atomic valenz-charges read in
  non local Contribution for L=           0  read in
    real space projection operators read in
  non local Contribution for L=           0  read in
    real space projection operators read in
  non local Contribution for L=           1  read in
    real space projection operators read in
  non local Contribution for L=           1  read in
    real space projection operators read in
    PAW grid and wavefunctions read in
 
   number of l-projection  operators is LMAX  =           4
   number of lm-projection operators is LMMAX =           8
 
 Optimization of the real space projectors (new method)

 maximal supplied QI-value         = 17.01
 optimisation between [QCUT,QGAM] = [ 10.20, 20.41] = [ 29.16,116.64] Ry 
 Optimized for a Real-space Cutoff    1.30 Angstroem

   l    n(q)    QCUT    max X(q) W(low)/X(q) W(high)/X(q)  e(spline) 
   1      7    10.205     4.940    0.23E-03    0.84E-03    0.11E-06
   1      7    10.205     6.253    0.40E-03    0.13E-02    0.18E-06
   0      8    10.205    37.438    0.23E-03    0.37E-03    0.42E-07
   0      8    10.205     9.606    0.16E-03    0.26E-03    0.31E-07
 Optimization of the real space projectors (new method)

 maximal supplied QI-value         = 18.90
 optimisation between [QCUT,QGAM] = [ 10.20, 20.41] = [ 29.16,116.64] Ry 
 Optimized for a Real-space Cutoff    1.26 Angstroem

   l    n(q)    QCUT    max X(q) W(low)/X(q) W(high)/X(q)  e(spline) 
   1      7    10.205     2.974    0.63E-04    0.14E-03    0.13E-06
   1      7    10.205     4.279    0.11E-03    0.45E-03    0.24E-06
   0      8    10.205    16.381    0.44E-03    0.15E-03    0.55E-07
   0      8    10.205     5.611    0.31E-03    0.11E-03    0.40E-07
   2      7    10.205     4.652    0.50E-03    0.47E-03    0.57E-07
 Optimization of the real space projectors (new method)

 maximal supplied QI-value         = 16.25
 optimisation between [QCUT,QGAM] = [ 10.24, 20.48] = [ 29.35,117.42] Ry 
 Optimized for a Real-space Cutoff    1.34 Angstroem

   l    n(q)    QCUT    max X(q) W(low)/X(q) W(high)/X(q)  e(spline) 
   1      8    10.239     3.658    0.23E-03    0.30E-03    0.98E-07
   1      8    10.239     5.612    0.32E-03    0.65E-03    0.21E-06
   2      7    10.239    55.373    0.42E-03    0.45E-03    0.65E-07
   2      7    10.239    50.863    0.43E-03    0.48E-03    0.67E-07
   0      8    10.239    79.536    0.11E-03    0.21E-03    0.56E-07
   0      8    10.239    38.668    0.96E-04    0.19E-03    0.52E-07
 Optimization of the real space projectors (new method)

 maximal supplied QI-value         = 24.76
 optimisation between [QCUT,QGAM] = [ 10.15, 20.30] = [ 28.85,115.39] Ry 
 Optimized for a Real-space Cutoff    1.38 Angstroem

   l    n(q)    QCUT    max X(q) W(low)/X(q) W(high)/X(q)  e(spline) 
   0      8    10.150    20.381    0.22E-03    0.32E-03    0.29E-06
   0      8    10.150    15.268    0.23E-03    0.35E-03    0.30E-06
   1      8    10.150     5.964    0.46E-03    0.53E-03    0.21E-06
   1      8    10.150     5.382    0.38E-03    0.45E-03    0.19E-06
  PAW_PBE Na_pv 19Sep2006               :
 energy of atom  1       EATOM= -766.0439
 kinetic energy error for atom=    0.0103 (will be added to EATOM!!)
  PAW_PBE Mg_pv 13Apr2007               :
 energy of atom  2       EATOM=-1056.7344
 kinetic energy error for atom=    0.0820 (will be added to EATOM!!)
  PAW_PBE Mn_pv 02Aug2007               :
 energy of atom  3       EATOM=-2025.2664
 kinetic energy error for atom=    0.0284 (will be added to EATOM!!)
  PAW_PBE O 08Apr2002                   :
 energy of atom  4       EATOM= -432.3788
 kinetic energy error for atom=    0.1156 (will be added to EATOM!!)
 
 
 POSCAR: Na Mg Mn  O                             
  positions in cartesian coordinates
  No initial velocities read in

 METAGGA = SCAN     LMAXTAU =  6    LMIXTAU =  F

 exchange correlation table for  LEXCH =        8
   RHO(1)=    0.500       N(1)  =     2000
   RHO(2)=  100.500       N(2)  =     4000

 VTST: version 3.2, (02/03/18)

 CHAIN: initializing optimizer
 
 OPT: Using VASP Dynamics algorithm
 CHAIN: Read ICHAIN            0
 
 POSCAR: Na Mg Mn  O                             
  positions in cartesian coordinates
  No initial velocities read in
 


--------------------------------------------------------------------------------------------------------


 ion  position               nearest neighbor table
   1  0.053  0.141  0.250-  50 2.10  41 2.27  54 2.35  27 2.82  25 2.87
   2  0.510  0.048  0.746-  81 2.26  56 2.27  84 2.30  31 2.91  29 2.93
   3  0.327  0.608  0.749-  83 2.14  80 2.17  82 2.37  85 2.38
   4  0.182  0.266  0.764-  61 2.28  48 2.33
   5  0.195  0.565  0.257-  87 2.22  64 2.27
   6  0.572  0.596  0.242-  65 2.27  74 2.33  43 2.34  52 2.34  33 2.80
   7  0.842  0.158  0.752-  59 2.20  58 2.35  56 2.38
   8  0.579  0.425  0.755-  68 2.26  71 2.27  49 2.33
   9  0.466  0.239  0.257-  51 2.29  42 2.32
  10  0.831  0.417  0.258-  75 2.20  62 2.29
  11  0.692  0.997  0.245-  63 2.20  79 2.23  54 2.33  88 2.38
  12  0.079  0.947  0.757-  47 2.12  44 2.14
  13  0.702  0.763  0.755-  71 2.37
  14  0.001  0.554  0.736-  80 2.27  57 2.28  39 2.78
  15  0.349  0.900  0.238-  79 2.29  77 2.31
  16  0.989  0.771  0.252-  76 2.25  67 2.25
  17  0.699  0.415  0.995-  43 2.02  49 2.06  71 2.07  66 2.07  60 2.08  53 2.09
  18  0.334  0.246  0.487-  50 2.01  51 2.03  52 2.11  46 2.12  44 2.15  45 2.16  32 2.85  36 2.85

  19  0.199  0.409  0.013-  41 1.97  78 2.03  61 2.03  48 2.08  83 2.08  55 2.10  26 2.84  25 2.85

  20  0.843  0.255  0.497-  57 1.96  62 2.02  56 2.05  63 2.05  64 2.07  58 2.14  31 2.84
  21  0.202  0.916  0.991-  84 2.01  47 2.02  42 2.04  73 2.05  77 2.06  67 2.07  29 2.84
  22  0.840  0.751  0.503-  68 2.00  70 2.04  69 2.04  76 2.09  74 2.10  75 2.14  40 2.80
  23  0.693  0.908  0.998-  65 1.97  59 2.00  79 2.07  72 2.10  85 2.10  54 2.12  33 2.83  38 2.84

  24  0.343  0.759  0.511-  81 1.93  80 1.95  82 2.07  88 2.09  86 2.16
  25  0.035  0.080  0.999-  61 1.85  72 1.87  67 1.88  47 1.94  54 1.95  41 1.96  19 2.85  26 2.86
                             1 2.87  34 2.89  30 2.97
  26  0.365  0.248  0.998-  41 1.82  42 1.84  48 1.91  47 1.93  43 1.98  49 2.02  19 2.84  25 2.86
                            33 2.90  29 2.90
  27  0.004  0.085  0.497-  69 1.88  44 1.89  63 1.92  76 1.94  58 1.95  50 2.02   1 2.82  40 2.83
                            32 2.85  36 2.90
  28  0.671  0.417  0.501-  46 1.77  68 1.85  52 1.88  57 1.89  75 2.01  62 2.07  31 2.84  35 2.91
                            39 2.94
  29  0.528  0.077  0.006-  42 1.87  84 1.88  79 1.89  53 1.92  59 1.95  49 2.00  30 2.81  21 2.84
                            38 2.90  26 2.90   2 2.93
  30  0.852  0.239  0.012-  53 1.81  54 1.89  60 1.91  59 1.93  55 1.94  61 2.01  29 2.81  37 2.93
                            25 2.97
  31  0.516  0.090  0.489-  88 1.84  62 1.86  46 1.90  56 1.93  51 1.97  81 1.98  20 2.84  28 2.84
                             2 2.91  40 2.95  36 3.00
  32  0.175  0.414  0.509-  58 1.85  50 1.87  45 1.90  64 1.93  87 1.96  80 1.97  18 2.85  27 2.85
                            35 2.86  39 2.99
  33  0.534  0.582  0.994-  71 1.86  85 1.90  43 1.94  48 1.95  65 1.95  78 2.06   6 2.80  23 2.83
                            38 2.87  26 2.90  34 2.91
  34  0.869  0.747  0.998-  65 1.89  66 1.92  71 1.93  67 1.96  73 2.00  72 2.09  25 2.89  33 2.91
                            37 2.92
  35  0.504  0.585  0.506-  74 1.91  87 1.92  82 1.95  52 1.97  45 1.98  68 1.98  40 2.85  32 2.86
                            28 2.91
  36  0.171  0.918  0.502-  51 1.90  70 1.91  44 1.92  76 1.93  86 1.95  81 1.99  39 2.83  18 2.85
                            27 2.90  31 3.00
  37  0.035  0.575  0.004-  55 1.85  77 1.87  66 1.91  60 1.95  83 1.97  73 1.98  38 2.87  34 2.92
                            30 2.93
  38  0.365  0.744  0.001-  78 1.84  83 1.86  85 1.86  84 1.90  79 1.96  77 1.97  23 2.84  33 2.87
                            37 2.87  29 2.90
  39  0.010  0.593  0.491-  75 1.85  70 1.88  57 1.95  86 1.96  64 2.02  80 2.13  14 2.78  36 2.83
                            28 2.94  32 2.99
  40  0.679  0.914  0.506-  74 1.86  69 1.87  63 1.95  88 1.96  82 1.96  56 1.97  22 2.80  27 2.83
                            35 2.85  31 2.95
  41  0.211  0.238  0.090-  26 1.82  25 1.96  19 1.97   1 2.27
  42  0.372  0.095  0.084-  26 1.84  29 1.87  21 2.04   9 2.32
  43  0.530  0.420  0.090-  33 1.94  26 1.98  17 2.02   6 2.34
  44  0.153  0.071  0.593-  27 1.89  36 1.92  12 2.14  18 2.15
  45  0.337  0.421  0.601-  32 1.90  35 1.98  18 2.16
  46  0.524  0.256  0.577-  28 1.77  31 1.90  18 2.12
  47  0.202  0.091  0.903-  26 1.93  25 1.94  21 2.02  12 2.12
  48  0.370  0.411  0.906-  26 1.91  33 1.95  19 2.08   4 2.33
  49  0.527  0.236  0.899-  29 2.00  26 2.02  17 2.06   8 2.33
  50  0.167  0.265  0.404-  32 1.87  18 2.01  27 2.02   1 2.10
  51  0.333  0.064  0.404-  36 1.90  31 1.97  18 2.03   9 2.29
  52  0.526  0.435  0.407-  28 1.88  35 1.97  18 2.11   6 2.34
  53  0.697  0.237  0.095-  30 1.81  29 1.92  17 2.09
  54  0.877  0.088  0.094-  30 1.89  25 1.95  23 2.12  11 2.33   1 2.35
  55  0.014  0.413  0.097-  37 1.85  30 1.94  19 2.10
  56  0.667  0.080  0.590-  31 1.93  40 1.97  20 2.05   2 2.27   7 2.38
  57  0.842  0.427  0.580-  28 1.89  39 1.95  20 1.96  14 2.28
  58  0.024  0.253  0.597-  32 1.85  27 1.95  20 2.14   7 2.35
  59  0.694  0.084  0.912-  30 1.93  29 1.95  23 2.00   7 2.20
  60  0.879  0.404  0.911-  30 1.91  37 1.95  17 2.08
  61  0.024  0.236  0.921-  25 1.85  30 2.01  19 2.03   4 2.28
  62  0.669  0.245  0.398-  31 1.86  20 2.02  28 2.07  10 2.29
  63  0.837  0.074  0.406-  27 1.92  40 1.95  20 2.05  11 2.20
  64  0.028  0.426  0.404-  32 1.93  39 2.02  20 2.07   5 2.27
  65  0.705  0.744  0.084-  34 1.89  33 1.95  23 1.97   6 2.27
  66  0.879  0.591  0.090-  37 1.91  34 1.92  17 2.07
  67  0.029  0.920  0.090-  25 1.88  34 1.96  21 2.07  16 2.25
  68  0.670  0.572  0.590-  28 1.85  35 1.98  22 2.00   8 2.26
  69  0.847  0.933  0.592-  40 1.87  27 1.88  22 2.04
  70  0.016  0.748  0.590-  39 1.88  36 1.91  22 2.04
  71  0.697  0.595  0.906-  33 1.86  34 1.93  17 2.07   8 2.27  13 2.37
  72  0.882  0.932  0.901-  25 1.87  34 2.09  23 2.10
  73  0.029  0.733  0.901-  37 1.98  34 2.00  21 2.05
  74  0.656  0.751  0.412-  40 1.86  35 1.91  22 2.10   6 2.33
  75  0.847  0.574  0.401-  39 1.85  28 2.01  22 2.14  10 2.20
  76  0.018  0.929  0.405-  36 1.93  27 1.94  22 2.09  16 2.25
  77  0.192  0.738  0.090-  37 1.87  38 1.97  21 2.06  15 2.31
  78  0.370  0.596  0.096-  38 1.84  19 2.03  33 2.06
  79  0.521  0.915  0.097-  29 1.89  38 1.96  23 2.07  11 2.23  15 2.29
  80  0.181  0.586  0.599-  24 1.95  32 1.97  39 2.13   3 2.17  14 2.27
  81  0.350  0.933  0.590-  24 1.93  31 1.98  36 1.99   2 2.26
  82  0.517  0.752  0.604-  35 1.95  40 1.96  24 2.07   3 2.37
  83  0.207  0.587  0.912-  38 1.86  37 1.97  19 2.08   3 2.14
  84  0.381  0.913  0.914-  29 1.88  38 1.90  21 2.01   2 2.30
  85  0.509  0.730  0.905-  38 1.86  33 1.90  23 2.10   3 2.38
  86  0.171  0.762  0.397-  36 1.95  39 1.96  24 2.16
  87  0.340  0.561  0.404-  35 1.92  32 1.96   5 2.22
  88  0.523  0.932  0.412-  31 1.84  40 1.96  24 2.09  11 2.38
 
  LATTYP: Found a hexagonal cell.
 ALAT       =    10.0190000534
 C/A-ratio  =     1.1196726572
  
  Lattice vectors:
  
 A1 = (  10.0190000534,   0.0000000000,   0.0000000000)
 A2 = (  -5.0095000267,   8.6767085668,   0.0000000000)
 A3 = (   0.0000000000,   0.0000000000,  11.2180004120)


Analysis of symmetry for initial positions (statically):
=====================================================================
 Subroutine PRICEL returns:
 Original cell was already a primitive cell.
 

 Routine SETGRP: Setting up the symmetry group for a 
 hexagonal supercell.


 Subroutine GETGRP returns: Found  1 space group operations
 (whereof  1 operations were pure point group operations)
 out of a pool of 24 trial point group operations.


The static configuration has the point symmetry C_1 .


Analysis of symmetry for dynamics (positions and initial velocities):
=====================================================================
 Subroutine PRICEL returns:
 Original cell was already a primitive cell.
 

 Routine SETGRP: Setting up the symmetry group for a 
 hexagonal supercell.


 Subroutine GETGRP returns: Found  1 space group operations
 (whereof  1 operations were pure point group operations)
 out of a pool of 24 trial point group operations.


The dynamic configuration has the point symmetry C_1 .


Analysis of structural, dynamic, and magnetic symmetry:
=====================================================================
 Subroutine PRICEL returns:
 Original cell was already a primitive cell.
 

 Routine SETGRP: Setting up the symmetry group for a 
 hexagonal supercell.


 Subroutine GETGRP returns: Found  1 space group operations
 (whereof  1 operations were pure point group operations)
 out of a pool of 24 trial point group operations.


The magnetic configuration has the point symmetry C_1 .


 Subroutine INISYM returns: Found  1 space group operations
 (whereof  1 operations are pure point group operations),
 and found     1 'primitive' translations

 
 

Automatic generation of k-mesh.
 generate k-points for:    2    2    2
Space group operators:
 irot       det(A)        alpha          n_x          n_y          n_z        tau_x        tau_y        tau_z
    1     1.000000     0.000000     1.000000     0.000000     0.000000     0.000000     0.000000     0.000000
 
 Subroutine IBZKPT returns following result:
 ===========================================
 
 Found      8 irreducible k-points:
 
 Following reciprocal coordinates:
            Coordinates               Weight
  0.000000  0.000000  0.000000      1.000000
  0.500000 -0.000000 -0.000000      1.000000
  0.000000  0.500000  0.000000      1.000000
  0.500000  0.500000 -0.000000      1.000000
  0.000000  0.000000  0.500000      1.000000
  0.500000 -0.000000  0.500000      1.000000
  0.000000  0.500000  0.500000      1.000000
  0.500000  0.500000  0.500000      1.000000
 
 Following cartesian coordinates:
            Coordinates               Weight
  0.000000  0.000000  0.000000      1.000000
  0.049905  0.028813 -0.000000      1.000000
  0.000000  0.057626  0.000000      1.000000
  0.049905  0.086438 -0.000000      1.000000
  0.000000  0.000000  0.044571      1.000000
  0.049905  0.028813  0.044571      1.000000
  0.000000  0.057626  0.044571      1.000000
  0.049905  0.086438  0.044571      1.000000
 


--------------------------------------------------------------------------------------------------------




 Dimension of arrays:
   k-points           NKPTS =      8   k-points in BZ     NKDIM =      8   number of bands    NBANDS=    448
   number of dos      NEDOS =    301   number of ions     NIONS =     88
   non local maximal  LDIM  =      6   non local SUM 2l+1 LMDIM =     18
   total plane-waves  NPLWV = 140000
   max r-space proj   IRMAX =   1632   max aug-charges    IRDMAX=   4555
   dimension x,y,z NGX =    50 NGY =   50 NGZ =   56
   dimension x,y,z NGXF=   100 NGYF=  100 NGZF=  112
   support grid    NGXF=   100 NGYF=  100 NGZF=  112
   ions per type =              16   8  16  48
   NGX,Y,Z   is equivalent  to a cutoff of   8.30,  8.30,  8.30 a.u.
   NGXF,Y,Z  is equivalent  to a cutoff of  16.59, 16.59, 16.60 a.u.

 SYSTEM =  unknown system                          
 POSCAR =  Na Mg Mn  O                             

 Startparameter for this run:
   NWRITE =      2    write-flag & timer
   PREC   = normal    normal or accurate (medium, high low for compatibility)
   ISTART =      0    job   : 0-new  1-cont  2-samecut
   ICHARG =      1    charge: 1-file 2-atom 10-const
   ISPIN  =      2    spin polarized calculation?
   LNONCOLLINEAR =      F non collinear calculations
   LSORBIT =      F    spin-orbit coupling
   INIWAV =      1    electr: 0-lowe 1-rand  2-diag
   LASPH  =      T    aspherical Exc in radial PAW
   METAGGA=      F    non-selfconsistent MetaGGA calc.

 Electronic Relaxation 1
   ENCUT  =  400.0 eV  29.40 Ry    5.42 a.u.  16.34 16.34 18.29*2*pi/ulx,y,z
   ENINI  =  400.0     initial cutoff
   ENAUG  =  758.8 eV  augmentation charge cutoff
   NELM   =    200;   NELMIN=  6; NELMDL=-12     # of ELM steps 
   EDIFF  = 0.1E-04   stopping-criterion for ELM
   LREAL  =      T    real-space projection
   NLSPLINE    = F    spline interpolate recip. space projectors
   LCOMPAT=      F    compatible to vasp.4.4
   GGA_COMPAT  = T    GGA compatible to vasp.4.4-vasp.4.6
   LMAXPAW     = -100 max onsite density
   LMAXMIX     =    4 max onsite mixed and CHGCAR
   VOSKOWN=      0    Vosko Wilk Nusair interpolation
   ROPT   =   -0.00050  -0.00050  -0.00050  -0.00050
 Ionic relaxation
   EDIFFG = 0.1E-03   stopping-criterion for IOM
   NSW    =      1    number of steps for IOM
   NBLOCK =      1;   KBLOCK =      1    inner block; outer block 
   IBRION =     -1    ionic relax: 0-MD 1-quasi-New 2-CG
   NFREE  =      0    steps in history (QN), initial steepest desc. (CG)
   ISIF   =      2    stress and relaxation
   IWAVPR =     10    prediction:  0-non 1-charg 2-wave 3-comb
   ISYM   =      2    0-nonsym 1-usesym 2-fastsym
   LCORR  =      T    Harris-Foulkes like correction to forces

   POTIM  = 0.5000    time-step for ionic-motion
   TEIN   =    0.0    initial temperature
   TEBEG  =    0.0;   TEEND  =   0.0 temperature during run
   SMASS  =  -3.00    Nose mass-parameter (am)
   estimated Nose-frequenzy (Omega)   =  0.10E-29 period in steps =****** mass=  -0.229E-26a.u.
   SCALEE = 1.0000    scale energy and forces
   NPACO  =    256;   APACO  = 16.0  distance and # of slots for P.C.
   PSTRESS=    0.0 pullay stress

  Mass of Ions in am
   POMASS =  22.99 24.30 54.94 16.00
  Ionic Valenz
   ZVAL   =   7.00  8.00 13.00  6.00
  Atomic Wigner-Seitz radii
   RWIGS  =  -1.00 -1.00 -1.00 -1.00
  virtual crystal weights 
   VCA    =   1.00  1.00  1.00  1.00
   NELECT =     672.0000    total number of electrons
   NUPDOWN=      48.0000    fix difference up-down

 DOS related values:
   EMIN   =  10.00;   EMAX   =-10.00  energy-range for DOS
   EFERMI =   0.00
   ISMEAR =     0;   SIGMA  =   0.05  broadening in eV -4-tet -1-fermi 0-gaus

 Electronic relaxation 2 (details)
   IALGO  =     48    algorithm
   LDIAG  =      T    sub-space diagonalisation (order eigenvalues)
   LSUBROT=      F    optimize rotation matrix (better conditioning)
   TURBO    =      0    0=normal 1=particle mesh
   IRESTART =      0    0=no restart 2=restart with 2 vectors
   NREBOOT  =      0    no. of reboots
   NMIN     =      0    reboot dimension
   EREF     =   0.00    reference energy to select bands
   IMIX   =      4    mixing-type and parameters
     AMIX     =   0.40;   BMIX     =  1.00
     AMIX_MAG =   1.60;   BMIX_MAG =  1.00
     AMIN     =   0.10
     WC   =   100.;   INIMIX=   1;  MIXPRE=   1;  MAXMIX= -45

 Intra band minimization:
   WEIMIN = 0.0000     energy-eigenvalue tresh-hold
   EBREAK =  0.56E-08  absolut break condition
   DEPER  =   0.30     relativ break condition  

   TIME   =   0.40     timestep for ELM

  volume/ion in A,a.u.               =      11.08        74.78
  Fermi-wavevector in a.u.,A,eV,Ry     =   1.445993  2.732531 28.448379  2.090897
  Thomas-Fermi vector in A             =   2.564112
 
 Write flags
   LWAVE        =      F    write WAVECAR
   LDOWNSAMPLE  =      F    k-point downsampling of WAVECAR
   LCHARG       =      F    write CHGCAR
   LVTOT        =      F    write LOCPOT, total local potential
   LVHAR        =      F    write LOCPOT, Hartree potential only
   LELF         =      F    write electronic localiz. function (ELF)
   LORBIT       =     11    0 simple, 1 ext, 2 COOP (PROOUT), +10 PAW based schemes


 Dipole corrections
   LMONO  =      F    monopole corrections only (constant potential shift)
   LDIPOL =      F    correct potential (dipole corrections)
   IDIPOL =      0    1-x, 2-y, 3-z, 4-all directions 
   EPSILON=  1.0000000 bulk dielectric constant

 Exchange correlation treatment:
   GGA     =    --    GGA type
   LEXCH   =     8    internal setting for exchange type
   VOSKOWN=      0    Vosko Wilk Nusair interpolation
   LHFCALC =     F    Hartree Fock is set to
   LHFONE  =     F    Hartree Fock one center treatment
   AEXX    =    0.0000 exact exchange contribution

 Linear response parameters
   LEPSILON=     F    determine dielectric tensor
   LRPA    =     F    only Hartree local field effects (RPA)
   LNABLA  =     F    use nabla operator in PAW spheres
   LVEL    =     F    velocity operator in full k-point grid
   LINTERFAST=   F  fast interpolation
   KINTER  =     0    interpolate to denser k-point grid
   CSHIFT  =0.1000    complex shift for real part using Kramers Kronig
   OMEGAMAX=  -1.0    maximum frequency
   DEG_THRESHOLD= 0.2000000E-02 threshold for treating states as degnerate
   RTIME   =   -0.100 relaxation time in fs
  (WPLASMAI=    0.000 imaginary part of plasma frequency in eV, 0.658/RTIME)
   DFIELD  = 0.0000000 0.0000000 0.0000000 field for delta impulse in time
 
 Orbital magnetization related:
   ORBITALMAG=     F  switch on orbital magnetization
   LCHIMAG   =     F  perturbation theory with respect to B field
   DQ        =  0.001000  dq finite difference perturbation B field
   LLRAUG    =     F  two centre corrections for induced B field



--------------------------------------------------------------------------------------------------------


 Static calculation
 charge density and potential will be updated during run
 spin polarized calculation
 RMM-DIIS sequential band-by-band
 perform sub-space diagonalisation
    before iterative eigenvector-optimisation
 modified Broyden-mixing scheme, WC =      100.0
 initial mixing is a Kerker type mixing with AMIX =  0.4000 and BMIX =      1.0000
 Hartree-type preconditioning will be used
 using additional bands          112
 real space projection scheme for non local part
 use partial core corrections
 calculate Harris-corrections to forces 
   (improved forces if not selfconsistent)
 use gradient corrections 
 use of overlap-Matrix (Vanderbilt PP)
 Gauss-broadening in eV      SIGMA  =   0.05


--------------------------------------------------------------------------------------------------------


  energy-cutoff  :      400.00
  volume of cell :      975.20
      direct lattice vectors                 reciprocal lattice vectors
    10.019000053  0.000000000  0.000000000     0.099810360  0.057625538 -0.000000000
    -5.009500027  8.676708567  0.000000000     0.000000000  0.115251076  0.000000000
     0.000000000  0.000000000 11.218000412     0.000000000  0.000000000  0.089142446

  length of vectors
    10.019000053 10.019000053 11.218000412     0.115251076  0.115251076  0.089142446


 
 k-points in units of 2pi/SCALE and weight: read from INCAR                         
   0.00000000  0.00000000  0.00000000       0.125
   0.04990518  0.02881277 -0.00000000       0.125
   0.00000000  0.05762554  0.00000000       0.125
   0.04990518  0.08643831 -0.00000000       0.125
   0.00000000  0.00000000  0.04457122       0.125
   0.04990518  0.02881277  0.04457122       0.125
   0.00000000  0.05762554  0.04457122       0.125
   0.04990518  0.08643831  0.04457122       0.125
 
 k-points in reciprocal lattice and weights: read from INCAR                         
   0.00000000  0.00000000  0.00000000       0.125
   0.50000000 -0.00000000 -0.00000000       0.125
   0.00000000  0.50000000  0.00000000       0.125
   0.50000000  0.50000000 -0.00000000       0.125
   0.00000000  0.00000000  0.50000000       0.125
   0.50000000 -0.00000000  0.50000000       0.125
   0.00000000  0.50000000  0.50000000       0.125
   0.50000000  0.50000000  0.50000000       0.125
 
 position of ions in fractional coordinates (direct lattice) 
   0.05283099  0.14057569  0.25003030
   0.51040982  0.04820755  0.74644051
   0.32686552  0.60773242  0.74876178
   0.18199956  0.26582562  0.76432160
   0.19451084  0.56547842  0.25655285
   0.57170133  0.59572326  0.24204403
   0.84192074  0.15810044  0.75249061
   0.57850474  0.42486058  0.75545282
   0.46567950  0.23922007  0.25724727
   0.83125607  0.41679300  0.25788197
   0.69186818  0.99650611  0.24538063
   0.07910224  0.94692392  0.75686929
   0.70245609  0.76319147  0.75485734
   0.00053531  0.55401999  0.73637812
   0.34868571  0.90030584  0.23776519
   0.98860975  0.77142452  0.25206720
   0.69932286  0.41505255  0.99513712
   0.33443567  0.24619243  0.48669012
   0.19913267  0.40854086  0.01302367
   0.84284724  0.25464149  0.49655908
   0.20160544  0.91600057  0.99106436
   0.83958260  0.75127221  0.50255302
   0.69271361  0.90835366  0.99796457
   0.34334619  0.75924412  0.51079246
   0.03527626  0.08014231  0.99901482
   0.36518477  0.24832343  0.99822956
   0.00444190  0.08540082  0.49748884
   0.67125804  0.41694267  0.50090210
   0.52804673  0.07725066  0.00635907
   0.85180928  0.23864003  0.01198071
   0.51592404  0.08978601  0.48940718
   0.17452088  0.41360269  0.50874040
   0.53366163  0.58215508  0.99404810
   0.86941858  0.74725917  0.99770900
   0.50380415  0.58522883  0.50555623
   0.17094022  0.91813156  0.50197894
   0.03450384  0.57541751  0.00428740
   0.36492066  0.74359303  0.00148504
   0.01019648  0.59271554  0.49067836
   0.67912065  0.91389954  0.50558297
   0.21058347  0.23810296  0.08953289
   0.37232780  0.09544310  0.08422241
   0.53041909  0.41984008  0.09001961
   0.15309466  0.07115387  0.59258511
   0.33691397  0.42074480  0.60109554
   0.52431857  0.25550011  0.57713137
   0.20155048  0.09138523  0.90306647
   0.36976585  0.41076636  0.90578531
   0.52732516  0.23648484  0.89883220
   0.16658027  0.26532642  0.40355588
   0.33260479  0.06443704  0.40426723
   0.52569920  0.43507742  0.40663575
   0.69651365  0.23739301  0.09480299
   0.87660863  0.08804710  0.09413531
   0.01428527  0.41326961  0.09691388
   0.66670717  0.07976428  0.58977623
   0.84205187  0.42657305  0.57976108
   0.02369338  0.25300608  0.59742109
   0.69421290  0.08373671  0.91195397
   0.87902677  0.40416593  0.91073272
   0.02357620  0.23616329  0.92084147
   0.66941319  0.24529809  0.39757531
   0.83749082  0.07411928  0.40590389
   0.02821566  0.42553002  0.40402655
   0.70525850  0.74356422  0.08427313
   0.87855986  0.59076780  0.09037172
   0.02877563  0.91988684  0.09000624
   0.67037196  0.57229996  0.59017202
   0.84689820  0.93253680  0.59163753
   0.01629330  0.74779969  0.58954179
   0.69696822  0.59539167  0.90639148
   0.88202633  0.93178997  0.90104293
   0.02935500  0.73322043  0.90118556
   0.65626455  0.75050694  0.41192635
   0.84673251  0.57392616  0.40098947
   0.01778481  0.92928556  0.40519699
   0.19188564  0.73817392  0.08959083
   0.36972080  0.59604745  0.09581387
   0.52121024  0.91465444  0.09692726
   0.18075563  0.58572326  0.59881349
   0.34954483  0.93305312  0.59047956
   0.51734523  0.75156840  0.60404883
   0.20729636  0.58710973  0.91233728
   0.38083292  0.91314004  0.91355853
   0.50868903  0.72958887  0.90459080
   0.17065126  0.76194330  0.39735156
   0.33958174  0.56113213  0.40389997
   0.52345613  0.93170814  0.41165893
 
 position of ions in cartesian coordinates  (Angst):
  -0.17490021  1.21973427  2.80484000
   4.87230027  0.41828287  8.37357000
   0.23043005  5.27311713  8.39961000
   0.49180013  2.30649143  8.57416000
  -0.88396003  4.90649143  2.87801000
   2.74359995  5.16891713  2.71525000
   7.64319981  1.37179143  8.44144000
   3.66769992  3.68639143  8.47467000
   3.46726997  2.07564283  2.88580000
   6.24043003  3.61639143  2.89292000
   1.93982997  8.64639307  2.75268000
  -3.95109000  8.21618287  8.49056000
   3.21469989  6.62199000  8.46799000
  -2.76999984  4.80707000  8.26069000
  -1.01659997  7.81169143  2.66725000
   6.04043003  6.69342570  2.82769000
   4.92731000  3.60129000 11.16344861
   2.11741000  2.13614000  5.45969000
  -0.05147520  3.54479000  0.14609959
   7.16886000  2.20945000  5.57040000
  -2.56882000  7.94787000 11.11776041
   4.64828000  6.51857000  5.63764000
   2.38990000  7.88152000 11.19516691
  -0.36344800  6.58774000  5.73007000
  -0.04804003  0.69537143 11.20694861
   2.41481000  2.15463000 11.19813961
  -0.38331200  0.74099800  5.58083000
   4.63666000  3.61769000  5.61912000
   4.90351303  0.67028143  0.07133610
   7.33881000  2.07061000  0.13439959
   4.71926000  0.77904700  5.49017000
  -0.32341800  3.58871000  5.70705000
   2.43045000  5.05119000 11.15123201
   4.96731000  6.48375000 11.19230001
   2.11591000  5.07786000  5.67133000
  -2.88673000  7.96636000  5.63120000
  -2.53686000  4.99273000  0.04809600
  -0.06888920  6.45194000  0.01665920
  -2.86705000  5.14282000  5.50443000
   2.22593000  7.92964000  5.67163000
   0.91705900  2.06595000  1.00438000
   3.25223000  0.82813200  0.94480700
   3.21108000  3.64283000  1.00984000
   1.17741003  0.61738143  6.64762000
   1.26782000  3.65068000  6.74309000
   3.97322000  2.21690000  6.47426000
   1.56154000  0.79292300 10.13060000
   1.64695000  3.56410000 10.16110000
   4.09860000  2.05191000 10.08310000
   0.33981500  2.30216000  4.52709000
   3.00957003  0.55910143  4.53507000
   3.08746000  3.77504000  4.56164000
   5.78915000  2.05979000  1.06350000
   8.34167000  0.76395900  1.05601000
  -1.92715005  3.58582000  1.08718000
   6.28016003  0.69209143  6.61611000
   6.29960000  3.70125000  6.50376000
  -1.03005000  2.19526000  6.70187000
   6.53584000  0.72655900 10.23030000
   6.78230000  3.50683000 10.21660000
  -0.94685005  2.04912000 10.33000000
   5.47803000  2.12838000  4.46000000
   8.01952003  0.64311143  4.55343000
  -1.84900000  3.69220000  4.53237000
   3.34110000  6.45169000  0.94537600
   5.84284000  5.12592000  1.01379000
  -4.31987005  7.98159000  1.00969000
   3.84952000  4.96568000  6.62055000
   3.81353000  8.09135000  6.63699000
  -3.58286000  6.48844000  6.61348000
   4.00031000  5.16604000 10.16790000
   4.16922000  8.08487000 10.10790000
  -3.37896005  6.36194000 10.10950000
   2.81545000  6.51193000  4.62099000
   5.60833000  4.97979000  4.49830000
  -4.47707000  8.06314000  4.54550000
  -1.77538000  6.40492000  1.00503000
   0.71833300  5.17173000  1.07484000
   0.64004400  7.93619000  1.08733000
  -1.12319000  5.08215000  6.71749000
  -1.17204000  8.09583000  6.62400000
   1.41830000  6.52114000  6.77622000
  -0.86422400  5.09418000 10.23460000
  -0.75881000  7.92305000 10.24830000
   1.44168000  6.33043000 10.14770000
  -2.10720000  6.61116000  4.45749000
   0.59127800  4.86878000  4.53095000
   0.57711500  8.08416000  4.61799000
 


--------------------------------------------------------------------------------------------------------


 k-point  1 :   0.0000 0.0000 0.0000  plane waves:   17725
 k-point  2 :   0.5000-0.0000-0.0000  plane waves:   17736
 k-point  3 :   0.0000 0.5000 0.0000  plane waves:   17736
 k-point  4 :   0.5000 0.5000-0.0000  plane waves:   17736
 k-point  5 :   0.0000 0.0000 0.5000  plane waves:   17676
 k-point  6 :   0.5000-0.0000 0.5000  plane waves:   17700
 k-point  7 :   0.0000 0.5000 0.5000  plane waves:   17700
 k-point  8 :   0.5000 0.5000 0.5000  plane waves:   17700

 maximum and minimum number of plane-waves per node :     17736    17676

 maximum number of plane-waves:     17736
 maximum index in each direction: 
   IXMAX=   16   IYMAX=   16   IZMAX=   18
   IXMIN=  -16   IYMIN=  -16   IZMIN=  -18


 serial   3D FFT for wavefunctions
 parallel 3D FFT for charge:
    minimum data exchange during FFTs selected (reduces bandwidth)


 total amount of memory used by VASP MPI-rank0    88178. kBytes
=======================================================================

   base      :      30000. kBytes
   nonlr-proj:      13669. kBytes
   fftplans  :        992. kBytes
   grid      :      21513. kBytes
   one-center:       2737. kBytes
   wavefun   :      19267. kBytes
 
     INWAV:  cpu time    0.0000: real time    0.0001
 Broyden mixing: mesh for mixing (old mesh)
   NGX = 33   NGY = 33   NGZ = 37
  (NGX  =100   NGY  =100   NGZ  =112)
  gives a total of  40293 points

 initial charge density was supplied:
 charge density of overlapping atoms calculated
 number of electron     672.0000000 magnetization      48.0000000
 keeping initial charge density in first step


--------------------------------------------------------------------------------------------------------


 Maximum index for non-local projection operator         1548
 Maximum index for augmentation-charges          285 (set IRDMAX)


--------------------------------------------------------------------------------------------------------


 First call to EWALD:  gamma=   0.179
 Maximum number of real-space cells 3x 3x 2
 Maximum number of reciprocal cells 3x 3x 3

    FEWALD:  cpu time    0.0024: real time    0.0029


--------------------------------------- Iteration      1(   1)  ---------------------------------------


    POTLOK:  cpu time    0.2043: real time    0.2057
    SETDIJ:  cpu time    3.1197: real time    3.1225
    EDDIAG:  cpu time    3.7150: real time    3.7239
  RMM-DIIS:  cpu time    6.5700: real time    6.6134
    ORTHCH:  cpu time    1.1709: real time    1.1751
       DOS:  cpu time    0.0024: real time    0.0025
    --------------------------------------------
      LOOP:  cpu time   14.7824: real time   14.8431

 eigenvalue-minimisations  :  7168
 total energy-change (2. order) : 0.1815387E+04  (-0.3593909E+05)
 number of electron     672.0000000 magnetization      48.0000000
 augmentation part      672.0000000 magnetization      48.0000000

 Free energy of the ion-electron system (eV)
  ---------------------------------------------------
  alpha Z        PSCENC =      2652.81237852
  Ewald energy   TEWEN  =    -41839.27359300
  -Hartree energ DENC   =    -25772.12668086
  -exchange      EXHF   =         0.00000000
  -V(xc)+E(xc)   XCENC  =      3606.20003206
  PAW double counting   =     55594.23204139   -59034.67079123
  entropy T*S    EENTRO =        -0.04080072
  eigenvalues    EBANDS =     -7253.94407059
  atomic energy  EATOM  =     73862.19814772
  Solvation  Ediel_sol  =         0.00000000
  ---------------------------------------------------
  free energy    TOTEN  =      1815.38666329 eV

  energy without entropy =     1815.42746402  energy(sigma->0) =     1815.40706366


--------------------------------------------------------------------------------------------------------




--------------------------------------- Iteration      1(   2)  ---------------------------------------


    EDDIAG:  cpu time    3.6992: real time    3.7075
  RMM-DIIS:  cpu time    6.6000: real time    6.6139
    ORTHCH:  cpu time    1.2080: real time    1.2116
       DOS:  cpu time    0.0014: real time    0.0014
    --------------------------------------------
      LOOP:  cpu time   11.5087: real time   11.5344

 eigenvalue-minimisations  :  7168
 total energy-change (2. order) :-0.2646868E+04  (-0.8663804E+04)
 number of electron     672.0000000 magnetization      48.0000000
 augmentation part      672.0000000 magnetization      48.0000000

 Free energy of the ion-electron system (eV)
  ---------------------------------------------------
  alpha Z        PSCENC =      2652.81237852
  Ewald energy   TEWEN  =    -41839.27359300
  -Hartree energ DENC   =    -25772.12668086
  -exchange      EXHF   =         0.00000000
  -V(xc)+E(xc)   XCENC  =      3606.20003206
  PAW double counting   =     55594.23204139   -59034.67079123
  entropy T*S    EENTRO =        -0.05491902
  eigenvalues    EBANDS =     -9900.79776805
  atomic energy  EATOM  =     73862.19814772
  Solvation  Ediel_sol  =         0.00000000
  ---------------------------------------------------
  free energy    TOTEN  =      -831.48115247 eV

  energy without entropy =     -831.42623344  energy(sigma->0) =     -831.45369296


--------------------------------------------------------------------------------------------------------




--------------------------------------- Iteration      1(   3)  ---------------------------------------


    EDDIAG:  cpu time    3.7367: real time    3.7452
  RMM-DIIS:  cpu time    6.6062: real time    6.6193
    ORTHCH:  cpu time    1.1507: real time    1.1540
       DOS:  cpu time    0.0015: real time    0.0015
    --------------------------------------------
      LOOP:  cpu time   11.4951: real time   11.5200

 eigenvalue-minimisations  :  7168
 total energy-change (2. order) : 0.2984459E+03  (-0.1559291E+04)
 number of electron     672.0000000 magnetization      48.0000000
 augmentation part      672.0000000 magnetization      48.0000000

 Free energy of the ion-electron system (eV)
  ---------------------------------------------------
  alpha Z        PSCENC =      2652.81237852
  Ewald energy   TEWEN  =    -41839.27359300
  -Hartree energ DENC   =    -25772.12668086
  -exchange      EXHF   =         0.00000000
  -V(xc)+E(xc)   XCENC  =      3606.20003206
  PAW double counting   =     55594.23204139   -59034.67079123
  entropy T*S    EENTRO =        -0.04511543
  eigenvalues    EBANDS =     -9602.36162445
  atomic energy  EATOM  =     73862.19814772
  Solvation  Ediel_sol  =         0.00000000
  ---------------------------------------------------
  free energy    TOTEN  =      -533.03520528 eV

  energy without entropy =     -532.99008985  energy(sigma->0) =     -533.01264756


--------------------------------------------------------------------------------------------------------




--------------------------------------- Iteration      1(   4)  ---------------------------------------


    EDDIAG:  cpu time    3.7257: real time    3.7453
  RMM-DIIS:  cpu time    6.6145: real time    6.6269
    ORTHCH:  cpu time    1.1499: real time    1.1534
       DOS:  cpu time    0.0012: real time    0.0012
    --------------------------------------------
      LOOP:  cpu time   11.4913: real time   11.5269

 eigenvalue-minimisations  :  7168
 total energy-change (2. order) :-0.5243571E+03  (-0.5068019E+03)
 number of electron     672.0000000 magnetization      48.0000000
 augmentation part      672.0000000 magnetization      48.0000000

 Free energy of the ion-electron system (eV)
  ---------------------------------------------------
  alpha Z        PSCENC =      2652.81237852
  Ewald energy   TEWEN  =    -41839.27359300
  -Hartree energ DENC   =    -25772.12668086
  -exchange      EXHF   =         0.00000000
  -V(xc)+E(xc)   XCENC  =      3606.20003206
  PAW double counting   =     55594.23204139   -59034.67079123
  entropy T*S    EENTRO =        -0.00522393
  eigenvalues    EBANDS =    -10126.75866270
  atomic energy  EATOM  =     73862.19814772
  Solvation  Ediel_sol  =         0.00000000
  ---------------------------------------------------
  free energy    TOTEN  =     -1057.39235203 eV

  energy without entropy =    -1057.38712810  energy(sigma->0) =    -1057.38974006


--------------------------------------------------------------------------------------------------------




--------------------------------------- Iteration      1(   5)  ---------------------------------------


    EDDIAG:  cpu time    3.7578: real time    3.7665
  RMM-DIIS:  cpu time    6.6222: real time    6.6357
    ORTHCH:  cpu time    1.1503: real time    1.1535
       DOS:  cpu time    0.0013: real time    0.0013
    --------------------------------------------
      LOOP:  cpu time   11.5316: real time   11.5571

 eigenvalue-minimisations  :  7168
 total energy-change (2. order) :-0.1478866E+03  (-0.2126778E+03)
 number of electron     672.0000000 magnetization      48.0000000
 augmentation part      672.0000000 magnetization      48.0000000

 Free energy of the ion-electron system (eV)
  ---------------------------------------------------
  alpha Z        PSCENC =      2652.81237852
  Ewald energy   TEWEN  =    -41839.27359300
  -Hartree energ DENC   =    -25772.12668086
  -exchange      EXHF   =         0.00000000
  -V(xc)+E(xc)   XCENC  =      3606.20003206
  PAW double counting   =     55594.23204139   -59034.67079123
  entropy T*S    EENTRO =        -0.00000000
  eigenvalues    EBANDS =    -10274.65051500
  atomic energy  EATOM  =     73862.19814772
  Solvation  Ediel_sol  =         0.00000000
  ---------------------------------------------------
  free energy    TOTEN  =     -1205.27898040 eV

  energy without entropy =    -1205.27898040  energy(sigma->0) =    -1205.27898040


--------------------------------------------------------------------------------------------------------




--------------------------------------- Iteration      1(   6)  ---------------------------------------


    EDDIAG:  cpu time    3.7227: real time    3.7317
  RMM-DIIS:  cpu time    6.5319: real time    6.6436
    ORTHCH:  cpu time    1.1465: real time    1.1500
       DOS:  cpu time    0.0012: real time    0.0012
    --------------------------------------------
      LOOP:  cpu time   11.4023: real time   11.5265

 eigenvalue-minimisations  :  7168
 total energy-change (2. order) :-0.2145554E+02  (-0.1152208E+03)
 number of electron     672.0000000 magnetization      48.0000000
 augmentation part      672.0000000 magnetization      48.0000000

 Free energy of the ion-electron system (eV)
  ---------------------------------------------------
  alpha Z        PSCENC =      2652.81237852
  Ewald energy   TEWEN  =    -41839.27359300
  -Hartree energ DENC   =    -25772.12668086
  -exchange      EXHF   =         0.00000000
  -V(xc)+E(xc)   XCENC  =      3606.20003206
  PAW double counting   =     55594.23204139   -59034.67079123
  entropy T*S    EENTRO =        -0.00000000
  eigenvalues    EBANDS =    -10296.10605987
  atomic energy  EATOM  =     73862.19814772
  Solvation  Ediel_sol  =         0.00000000
  ---------------------------------------------------
  free energy    TOTEN  =     -1226.73452527 eV

  energy without entropy =    -1226.73452527  energy(sigma->0) =    -1226.73452527


--------------------------------------------------------------------------------------------------------




--------------------------------------- Iteration      1(   7)  ---------------------------------------


    EDDIAG:  cpu time    3.7483: real time    3.7560
  RMM-DIIS:  cpu time    6.6236: real time    6.6367
    ORTHCH:  cpu time    1.1702: real time    1.1739
       DOS:  cpu time    0.0012: real time    0.0012
    --------------------------------------------
      LOOP:  cpu time   11.5434: real time   11.5678

 eigenvalue-minimisations  :  7168
 total energy-change (2. order) :-0.6702527E+01  (-0.7609931E+02)
 number of electron     672.0000000 magnetization      48.0000000
 augmentation part      672.0000000 magnetization      48.0000000

 Free energy of the ion-electron system (eV)
  ---------------------------------------------------
  alpha Z        PSCENC =      2652.81237852
  Ewald energy   TEWEN  =    -41839.27359300
  -Hartree energ DENC   =    -25772.12668086
  -exchange      EXHF   =         0.00000000
  -V(xc)+E(xc)   XCENC  =      3606.20003206
  PAW double counting   =     55594.23204139   -59034.67079123
  entropy T*S    EENTRO =        -0.00000000
  eigenvalues    EBANDS =    -10302.80858639
  atomic energy  EATOM  =     73862.19814772
  Solvation  Ediel_sol  =         0.00000000
  ---------------------------------------------------
  free energy    TOTEN  =     -1233.43705178 eV

  energy without entropy =    -1233.43705178  energy(sigma->0) =    -1233.43705178


--------------------------------------------------------------------------------------------------------




--------------------------------------- Iteration      1(   8)  ---------------------------------------


    EDDIAG:  cpu time    3.7432: real time    3.7514
  RMM-DIIS:  cpu time    6.6111: real time    6.6240
    ORTHCH:  cpu time    1.1423: real time    1.1456
       DOS:  cpu time    0.0011: real time    0.0011
    --------------------------------------------
      LOOP:  cpu time   11.4977: real time   11.5220

 eigenvalue-minimisations  :  7168
 total energy-change (2. order) : 0.4637714E+01  (-0.5276717E+02)
 number of electron     672.0000000 magnetization      48.0000000
 augmentation part      672.0000000 magnetization      48.0000000

 Free energy of the ion-electron system (eV)
  ---------------------------------------------------
  alpha Z        PSCENC =      2652.81237852
  Ewald energy   TEWEN  =    -41839.27359300
  -Hartree energ DENC   =    -25772.12668086
  -exchange      EXHF   =         0.00000000
  -V(xc)+E(xc)   XCENC  =      3606.20003206
  PAW double counting   =     55594.23204139   -59034.67079123
  entropy T*S    EENTRO =        -0.00000002
  eigenvalues    EBANDS =    -10298.17087240
  atomic energy  EATOM  =     73862.19814772
  Solvation  Ediel_sol  =         0.00000000
  ---------------------------------------------------
  free energy    TOTEN  =     -1228.79933781 eV

  energy without entropy =    -1228.79933779  energy(sigma->0) =    -1228.79933780


--------------------------------------------------------------------------------------------------------




--------------------------------------- Iteration      1(   9)  ---------------------------------------


    EDDIAG:  cpu time    3.7198: real time    3.7545
  RMM-DIIS:  cpu time   13.7900: real time   13.8158
    ORTHCH:  cpu time    1.1803: real time    1.1836
       DOS:  cpu time    0.0011: real time    0.0011
    --------------------------------------------
      LOOP:  cpu time   18.6911: real time   18.7551

 eigenvalue-minimisations  : 20200
 total energy-change (2. order) : 0.1810821E+02  (-0.2363252E+02)
 number of electron     672.0000000 magnetization      48.0000000
 augmentation part      672.0000000 magnetization      48.0000000

 Free energy of the ion-electron system (eV)
  ---------------------------------------------------
  alpha Z        PSCENC =      2652.81237852
  Ewald energy   TEWEN  =    -41839.27359300
  -Hartree energ DENC   =    -25772.12668086
  -exchange      EXHF   =         0.00000000
  -V(xc)+E(xc)   XCENC  =      3606.20003206
  PAW double counting   =     55594.23204139   -59034.67079123
  entropy T*S    EENTRO =        -0.00000000
  eigenvalues    EBANDS =    -10280.06266735
  atomic energy  EATOM  =     73862.19814772
  Solvation  Ediel_sol  =         0.00000000
  ---------------------------------------------------
  free energy    TOTEN  =     -1210.69113275 eV

  energy without entropy =    -1210.69113275  energy(sigma->0) =    -1210.69113275


--------------------------------------------------------------------------------------------------------




--------------------------------------- Iteration      1(  10)  ---------------------------------------


    EDDIAG:  cpu time    3.7508: real time    3.7589
  RMM-DIIS:  cpu time   15.6358: real time   15.7133
    ORTHCH:  cpu time    1.1505: real time    1.1539
       DOS:  cpu time    0.0011: real time    0.0011
    --------------------------------------------
      LOOP:  cpu time   20.5382: real time   20.6272

 eigenvalue-minimisations  : 20247
 total energy-change (2. order) :-0.3060121E+01  (-0.1032013E+01)
 number of electron     672.0000000 magnetization      48.0000000
 augmentation part      672.0000000 magnetization      48.0000000

 Free energy of the ion-electron system (eV)
  ---------------------------------------------------
  alpha Z        PSCENC =      2652.81237852
  Ewald energy   TEWEN  =    -41839.27359300
  -Hartree energ DENC   =    -25772.12668086
  -exchange      EXHF   =         0.00000000
  -V(xc)+E(xc)   XCENC  =      3606.20003206
  PAW double counting   =     55594.23204139   -59034.67079123
  entropy T*S    EENTRO =        -0.00000002
  eigenvalues    EBANDS =    -10283.12278857
  atomic energy  EATOM  =     73862.19814772
  Solvation  Ediel_sol  =         0.00000000
  ---------------------------------------------------
  free energy    TOTEN  =     -1213.75125399 eV

  energy without entropy =    -1213.75125396  energy(sigma->0) =    -1213.75125397


--------------------------------------------------------------------------------------------------------




--------------------------------------- Iteration      1(  11)  ---------------------------------------


    EDDIAG:  cpu time    3.7290: real time    3.7372
  RMM-DIIS:  cpu time   15.2071: real time   15.2340
    ORTHCH:  cpu time    1.1671: real time    1.1706
       DOS:  cpu time    0.0011: real time    0.0011
    --------------------------------------------
      LOOP:  cpu time   20.1043: real time   20.1429

 eigenvalue-minimisations  : 21674
 total energy-change (2. order) : 0.1067533E+00  (-0.9619182E-01)
 number of electron     672.0000000 magnetization      48.0000000
 augmentation part      672.0000000 magnetization      48.0000000

 Free energy of the ion-electron system (eV)
  ---------------------------------------------------
  alpha Z        PSCENC =      2652.81237852
  Ewald energy   TEWEN  =    -41839.27359300
  -Hartree energ DENC   =    -25772.12668086
  -exchange      EXHF   =         0.00000000
  -V(xc)+E(xc)   XCENC  =      3606.20003206
  PAW double counting   =     55594.23204139   -59034.67079123
  entropy T*S    EENTRO =        -0.00000002
  eigenvalues    EBANDS =    -10283.01603528
  atomic energy  EATOM  =     73862.19814772
  Solvation  Ediel_sol  =         0.00000000
  ---------------------------------------------------
  free energy    TOTEN  =     -1213.64450069 eV

  energy without entropy =    -1213.64450067  energy(sigma->0) =    -1213.64450068


--------------------------------------------------------------------------------------------------------




--------------------------------------- Iteration      1(  12)  ---------------------------------------


    EDDIAG:  cpu time    3.7217: real time    3.7422
  RMM-DIIS:  cpu time   16.1581: real time   16.1877
    ORTHCH:  cpu time    1.1972: real time    1.2008
       DOS:  cpu time    0.0013: real time    0.0013
    CHARGE:  cpu time    1.3456: real time    1.3478
    MIXING:  cpu time    0.0014: real time    0.0016
    --------------------------------------------
      LOOP:  cpu time   22.4254: real time   22.4812

 eigenvalue-minimisations  : 22855
 total energy-change (2. order) : 0.6324475E-02  (-0.7022712E-02)
 number of electron     671.9999889 magnetization      47.9999984
 augmentation part      239.1102674 magnetization      29.0389411

 Broyden mixing:
  rms(total) = 0.12629E+02    rms(broyden)= 0.12619E+02
  rms(prec ) = 0.14472E+02
  weight for this iteration     100.00

 Free energy of the ion-electron system (eV)
  ---------------------------------------------------
  alpha Z        PSCENC =      2652.81237852
  Ewald energy   TEWEN  =    -41839.27359300
  -Hartree energ DENC   =    -25772.12668086
  -exchange      EXHF   =         0.00000000
  -V(xc)+E(xc)   XCENC  =      3606.20003206
  PAW double counting   =     55594.23204139   -59034.67079123
  entropy T*S    EENTRO =        -0.00000002
  eigenvalues    EBANDS =    -10283.00971080
  atomic energy  EATOM  =     73862.19814772
  Solvation  Ediel_sol  =         0.00000000
  ---------------------------------------------------
  free energy    TOTEN  =     -1213.63817622 eV

  energy without entropy =    -1213.63817620  energy(sigma->0) =    -1213.63817621


--------------------------------------------------------------------------------------------------------




--------------------------------------- Iteration      1(  13)  ---------------------------------------


    POTLOK:  cpu time    0.1985: real time    0.1998
    SETDIJ:  cpu time    3.2990: real time    3.3014
    EDDIAG:  cpu time    3.7212: real time    3.7292
  RMM-DIIS:  cpu time   13.0478: real time   13.0863
    ORTHCH:  cpu time    1.1693: real time    1.1731
       DOS:  cpu time    0.0014: real time    0.0014
    CHARGE:  cpu time    1.3486: real time    1.3512
    MIXING:  cpu time    0.0007: real time    0.0008
    --------------------------------------------
      LOOP:  cpu time   22.7865: real time   22.8433

 eigenvalue-minimisations  : 17300
 total energy-change (2. order) : 0.2245424E+03  (-0.1384417E+03)
 number of electron     671.9999749 magnetization      47.9999986
 augmentation part      269.0349383 magnetization      26.4892569

 Broyden mixing:
  rms(total) = 0.13994E+02    rms(broyden)= 0.13991E+02
  rms(prec ) = 0.15725E+02
  weight for this iteration     100.00

 eigenvalues of (default mixing * dielectric matrix)
  average eigenvalue GAMMA=   0.3183
  0.3183

 Free energy of the ion-electron system (eV)
  ---------------------------------------------------
  alpha Z        PSCENC =      2652.81237852
  Ewald energy   TEWEN  =    -41839.27359300
  -Hartree energ DENC   =    -25105.73469445
  -exchange      EXHF   =         0.00000000
  -V(xc)+E(xc)   XCENC  =      3696.74122028
  PAW double counting   =     59946.63156985   -63372.15669623
  entropy T*S    EENTRO =        -0.07970894
  eigenvalues    EBANDS =    -10830.23439600
  atomic energy  EATOM  =     73862.19814772
  Solvation  Ediel_sol  =         0.00000000
  ---------------------------------------------------
  free energy    TOTEN  =      -989.09577224 eV

  energy without entropy =     -989.01606329  energy(sigma->0) =     -989.05591777


--------------------------------------------------------------------------------------------------------




--------------------------------------- Iteration      1(  14)  ---------------------------------------


    POTLOK:  cpu time    0.2029: real time    0.2044
    SETDIJ:  cpu time    3.2912: real time    3.2937
    EDDIAG:  cpu time    3.7461: real time    3.7537
  RMM-DIIS:  cpu time   13.6219: real time   13.6723
    ORTHCH:  cpu time    1.1674: real time    1.1708
       DOS:  cpu time    0.0010: real time    0.0010
    CHARGE:  cpu time    1.3707: real time    1.3731
    MIXING:  cpu time    0.0006: real time    0.0006
    --------------------------------------------
      LOOP:  cpu time   23.4017: real time   23.4696

 eigenvalue-minimisations  : 17741
 total energy-change (2. order) : 0.7429666E+02  (-0.1886695E+02)
 number of electron     671.9999840 magnetization      47.9999976
 augmentation part      246.6839983 magnetization      32.1868487

 Broyden mixing:
  rms(total) = 0.52936E+01    rms(broyden)= 0.52893E+01
  rms(prec ) = 0.57217E+01
  weight for this iteration     100.00

 eigenvalues of (default mixing * dielectric matrix)
  average eigenvalue GAMMA=   0.7313
  1.1033  0.3593

 Free energy of the ion-electron system (eV)
  ---------------------------------------------------
  alpha Z        PSCENC =      2652.81237852
  Ewald energy   TEWEN  =    -41839.27359300
  -Hartree energ DENC   =    -25717.12179664
  -exchange      EXHF   =         0.00000000
  -V(xc)+E(xc)   XCENC  =      3674.47579202
  PAW double counting   =     63382.63674488   -66865.27043967
  entropy T*S    EENTRO =        -0.00000000
  eigenvalues    EBANDS =    -10065.25635000
  atomic energy  EATOM  =     73862.19814772
  Solvation  Ediel_sol  =         0.00000000
  ---------------------------------------------------
  free energy    TOTEN  =      -914.79911616 eV

  energy without entropy =     -914.79911616  energy(sigma->0) =     -914.79911616


--------------------------------------------------------------------------------------------------------




--------------------------------------- Iteration      1(  15)  ---------------------------------------


    POTLOK:  cpu time    0.1988: real time    0.1999
    SETDIJ:  cpu time    3.2969: real time    3.2994
    EDDIAG:  cpu time    3.7479: real time    3.7563
  RMM-DIIS:  cpu time   13.7039: real time   13.7277
    ORTHCH:  cpu time    1.1579: real time    1.1612
       DOS:  cpu time    0.0027: real time    0.0028
    CHARGE:  cpu time    1.3554: real time    1.3577
    MIXING:  cpu time    0.0006: real time    0.0006
    --------------------------------------------
      LOOP:  cpu time   23.4641: real time   23.5056

 eigenvalue-minimisations  : 18421
 total energy-change (2. order) : 0.1384858E+02  (-0.2267682E+01)
 number of electron     671.9999824 magnetization      47.9999966
 augmentation part      249.6486928 magnetization      33.7773863

 Broyden mixing:
  rms(total) = 0.22520E+01    rms(broyden)= 0.22517E+01
  rms(prec ) = 0.23435E+01
  weight for this iteration     100.00

 eigenvalues of (default mixing * dielectric matrix)
  average eigenvalue GAMMA=   0.9179
  1.6419  0.3870  0.7248

 Free energy of the ion-electron system (eV)
  ---------------------------------------------------
  alpha Z        PSCENC =      2652.81237852
  Ewald energy   TEWEN  =    -41839.27359300
  -Hartree energ DENC   =    -25641.60431614
  -exchange      EXHF   =         0.00000000
  -V(xc)+E(xc)   XCENC  =      3707.04604063
  PAW double counting   =     67501.71444541   -71025.03098655
  entropy T*S    EENTRO =        -0.00000000
  eigenvalues    EBANDS =    -10118.81265337
  atomic energy  EATOM  =     73862.19814772
  Solvation  Ediel_sol  =         0.00000000
  ---------------------------------------------------
  free energy    TOTEN  =      -900.95053678 eV

  energy without entropy =     -900.95053678  energy(sigma->0) =     -900.95053678


--------------------------------------------------------------------------------------------------------




--------------------------------------- Iteration      1(  16)  ---------------------------------------


    POTLOK:  cpu time    0.2052: real time    0.2062
    SETDIJ:  cpu time    3.3256: real time    3.3387
    EDDIAG:  cpu time    3.7473: real time    3.7544
  RMM-DIIS:  cpu time   13.2407: real time   13.2631
    ORTHCH:  cpu time    1.1537: real time    1.1572
       DOS:  cpu time    0.0010: real time    0.0010
    CHARGE:  cpu time    1.3456: real time    1.3477
    MIXING:  cpu time    0.0008: real time    0.0008
    --------------------------------------------
      LOOP:  cpu time   23.0201: real time   23.0691

 eigenvalue-minimisations  : 17549
 total energy-change (2. order) :-0.1273842E+01  (-0.7179904E+00)
 number of electron     671.9999819 magnetization      47.9999962
 augmentation part      251.0771576 magnetization      33.8784779

 Broyden mixing:
  rms(total) = 0.15226E+01    rms(broyden)= 0.15222E+01
  rms(prec ) = 0.16009E+01
  weight for this iteration     100.00

 eigenvalues of (default mixing * dielectric matrix)
  average eigenvalue GAMMA=   0.9622
  2.0694  0.8865  0.3934  0.4996

 Free energy of the ion-electron system (eV)
  ---------------------------------------------------
  alpha Z        PSCENC =      2652.81237852
  Ewald energy   TEWEN  =    -41839.27359300
  -Hartree energ DENC   =    -25592.96441149
  -exchange      EXHF   =         0.00000000
  -V(xc)+E(xc)   XCENC  =      3708.06080111
  PAW double counting   =     70343.49357332   -73895.42767996
  entropy T*S    EENTRO =        -0.00000000
  eigenvalues    EBANDS =    -10141.12359482
  atomic energy  EATOM  =     73862.19814772
  Solvation  Ediel_sol  =         0.00000000
  ---------------------------------------------------
  free energy    TOTEN  =      -902.22437860 eV

  energy without entropy =     -902.22437860  energy(sigma->0) =     -902.22437860


--------------------------------------------------------------------------------------------------------




--------------------------------------- Iteration      1(  17)  ---------------------------------------


    POTLOK:  cpu time    0.2069: real time    0.2075
    SETDIJ:  cpu time    3.3409: real time    3.3440
    EDDIAG:  cpu time    3.7577: real time    3.7659
  RMM-DIIS:  cpu time   13.6387: real time   13.6820
    ORTHCH:  cpu time    1.1553: real time    1.1588
       DOS:  cpu time    0.0010: real time    0.0010
    CHARGE:  cpu time    1.3467: real time    1.3490
    MIXING:  cpu time    0.0015: real time    0.0015
    --------------------------------------------
      LOOP:  cpu time   23.4487: real time   23.5096

 eigenvalue-minimisations  : 18332
 total energy-change (2. order) : 0.7446892E-01  (-0.8913236E-01)
 number of electron     671.9999816 magnetization      47.9999958
 augmentation part      251.1356052 magnetization      33.8776203

 Broyden mixing:
  rms(total) = 0.79323E+00    rms(broyden)= 0.79306E+00
  rms(prec ) = 0.89595E+00
  weight for this iteration     100.00

 eigenvalues of (default mixing * dielectric matrix)
  average eigenvalue GAMMA=   0.9879
  2.2217  1.1090  0.3810  0.6808  0.5468

 Free energy of the ion-electron system (eV)
  ---------------------------------------------------
  alpha Z        PSCENC =      2652.81237852
  Ewald energy   TEWEN  =    -41839.27359300
  -Hartree energ DENC   =    -25580.97132455
  -exchange      EXHF   =         0.00000000
  -V(xc)+E(xc)   XCENC  =      3705.60361171
  PAW double counting   =     71302.82909964   -74864.09186397
  entropy T*S    EENTRO =        -0.00000000
  eigenvalues    EBANDS =    -10141.25636574
  atomic energy  EATOM  =     73862.19814772
  Solvation  Ediel_sol  =         0.00000000
  ---------------------------------------------------
  free energy    TOTEN  =      -902.14990968 eV

  energy without entropy =     -902.14990968  energy(sigma->0) =     -902.14990968


--------------------------------------------------------------------------------------------------------




--------------------------------------- Iteration      1(  18)  ---------------------------------------


    POTLOK:  cpu time    0.2012: real time    0.2025
    SETDIJ:  cpu time    3.3445: real time    3.3471
    EDDIAG:  cpu time    3.7285: real time    3.7357
  RMM-DIIS:  cpu time   13.1987: real time   13.3008
    ORTHCH:  cpu time    1.1692: real time    1.1726
       DOS:  cpu time    0.0011: real time    0.0011
    CHARGE:  cpu time    1.3436: real time    1.3458
    MIXING:  cpu time    0.0010: real time    0.0010
    --------------------------------------------
      LOOP:  cpu time   22.9878: real time   23.1066

 eigenvalue-minimisations  : 17755
 total energy-change (2. order) : 0.4209585E+00  (-0.7558018E-01)
 number of electron     671.9999822 magnetization      47.9999956
 augmentation part      250.6307313 magnetization      33.8470723

 Broyden mixing:
  rms(total) = 0.29028E+00    rms(broyden)= 0.29002E+00
  rms(prec ) = 0.30470E+00
  weight for this iteration     100.00

 eigenvalues of (default mixing * dielectric matrix)
  average eigenvalue GAMMA=   1.0184
  2.4613  1.3686  0.8424  0.5839  0.3831  0.4709

 Free energy of the ion-electron system (eV)
  ---------------------------------------------------
  alpha Z        PSCENC =      2652.81237852
  Ewald energy   TEWEN  =    -41839.27359300
  -Hartree energ DENC   =    -25584.91764327
[...]
   4      -0.812    -0.687     1.500     0.115     0.459    -0.311
   5      -0.685    -0.846     1.531     0.010    -0.037    -0.441
   6      -0.874    -0.946     1.819    -0.009    -0.005    -0.053
   7      -0.503    -0.830     1.334    -0.034    -0.117     0.293
   8      -0.815    -0.747     1.562    -0.105    -0.360    -0.064
   9      -0.726    -0.779     1.506    -0.127     0.359     0.219
  10      -0.835    -0.659     1.493     0.138    -0.462     0.411
  11      -0.504    -0.841     1.346    -0.054     0.096    -0.339
  12      -0.867    -0.799     1.666    -0.115    -0.287    -0.142
  13      -0.788    -0.699     1.487     0.102     0.421    -0.356
  14      -0.789    -1.005     1.794    -0.077     0.065    -0.015
  15      -0.765    -0.622     1.387     0.107    -0.485     0.200
  16      -0.823    -0.675     1.498    -0.177     0.429     0.157
  17       1.452     1.442    -2.894    -0.174     0.152    -0.116
  18       1.644     1.262    -2.905     0.108    -0.020     0.088
  19       1.313     1.675    -2.988    -0.165    -0.134    -0.031
  20       1.435     1.447    -2.882    -0.083     0.096     0.087
  21       1.496     1.433    -2.929     0.045    -0.019     0.022
  22       1.546     1.400    -2.946    -0.052    -0.079     0.002
  23       1.389     1.525    -2.914    -0.089    -0.036     0.079
  24       1.382     1.442    -2.825    -0.020     0.121    -0.172
  25      -1.166    -0.032     1.198     0.780    -0.696    -0.213
  26      -0.374    -0.079     0.453     0.284     0.147     0.532
  27       0.860     0.065    -0.925     0.128    -0.875     0.041
  28      -0.335    -2.581     2.916    -0.423     0.171     0.721
  29      -0.669    -0.777     1.446     0.894     0.502    -0.657
  30      -1.451    -0.170     1.621     0.698     0.021     0.154
  31      -0.845    -1.275     2.120     0.306     0.565     0.796
  32       1.823     0.537    -2.359    -0.501    -0.590     0.002
  33      -2.120     0.605     1.515     0.061    -0.326     0.894
  34      -1.413    -0.170     1.583     0.239    -0.520    -0.586
  35       0.956     0.366    -1.322    -0.896    -0.447    -1.445
  36      -0.648     0.986    -0.338    -0.323     1.745     0.017
  37       1.515    -2.778     1.262     0.010     1.086     0.527
  38       1.108    -1.306     0.198     0.750    -0.064    -0.407
  39      -0.558    -0.487     1.045    -1.194    -0.607    -0.993
  40       0.386    -0.494     0.107     0.120    -0.573    -0.442
  41      -4.109     2.061     2.048    -4.106     3.719    -2.640
  42      -4.548     2.064     2.484     5.318     2.345     3.962
  43       4.466    -5.336     0.869    -1.370    -4.264     1.618
  44      -2.938     2.451     0.487     6.196    -2.995    -3.907
  45      -3.050     2.097     0.953    -5.035    -2.002     3.989
  46       5.540    -8.482     2.942    -1.829     4.786     1.023
  47      -2.379     1.979     0.400    -3.845     1.952    -3.861
  48       4.605    -5.967     1.363    -1.233    -4.989     0.221
  49      -1.915     2.008    -0.093     3.887     2.132     4.643
  50       5.810    -4.646    -1.164    -0.570     4.763    -0.509
  51      -3.885     3.574     0.311    -3.958    -0.239     3.729
  52      -1.546     2.942    -1.396     4.970    -2.558    -2.180
  53      -5.989     3.015     2.974    -3.527     3.962    -3.922
  54      -4.484     3.070     1.414     5.023     2.923     3.322
  55       4.831    -6.939     2.108    -0.687    -4.916     2.400
  56      -1.531     2.053    -0.521     4.991    -3.480    -2.199
  57      -3.181    -0.084     3.265    -4.764    -0.880     5.764
  58       6.127    -6.448     0.320    -1.107     3.346    -0.763
  59      -0.732     2.106    -1.375    -4.217     1.464    -3.760
  60       6.976    -4.639    -2.337    -2.898    -3.452     0.714
  61      -2.146    -0.157     2.304     4.455     1.123     4.492
  62       3.642    -4.792     1.150    -0.880     5.369     1.169
  63      -2.280     1.072     1.208    -5.001    -2.993     4.718
  64      -1.970     1.239     0.731     5.954    -2.680    -2.672
  65      -4.288     2.540     1.749    -4.102     2.282    -5.605
  66      -2.669     1.513     1.155     5.849     1.288     5.348
  67       6.232    -6.709     0.476    -1.098    -4.809    -0.840
  68      -1.898    -1.050     2.949     4.744    -1.308    -4.589
  69      -3.201     2.368     0.832    -5.502    -2.510     3.828
  70       6.510    -6.385    -0.126    -0.895     4.069    -2.005
  71      -4.971     4.340     0.631    -4.282     2.847    -3.499
  72       4.800    -4.979     0.179     0.230    -4.903    -0.645
  73      -3.645     3.829    -0.184     3.909     3.679     3.118
  74       7.099    -6.662    -0.437    -1.843     4.786    -1.407
  75      -5.509     6.097    -0.588    -3.719    -4.858     2.021
  76      -3.160     3.202    -0.042     5.354    -2.709    -4.004
  77      -2.715    -0.237     2.952    -3.727     1.659    -3.674
  78      -1.709     2.707    -0.998     4.777     0.973     4.114
  79       4.000    -5.193     1.193     2.300    -4.954     0.624
  80      -0.561    -1.082     1.642     3.966    -2.901    -2.659
  81      -4.011     2.884     1.127    -4.155    -2.375     4.670
  82       5.146    -5.685     0.539    -1.465     5.005    -1.424
  83      -1.684     0.851     0.834    -5.675     2.230    -4.308
  84       6.018    -6.909     0.891     0.412    -4.563    -2.515
  85      -3.229     3.010     0.220     5.826     2.226     3.986
  86       4.888    -5.018     0.130    -1.555     5.088    -0.047
  87      -1.752     4.911    -3.159    -7.315    -4.293     1.740
  88      -1.423     0.386     1.037     6.173    -2.550    -3.654
 ---------------------------------------------------------------------


 Total hyperfine coupling parameters after diagonalization (MHz)
 (convention: |A_zz| > |A_xx| > |A_yy|)
 ----------------------------------------------------------------------
  ion      A_xx      A_yy      A_zz     asymmetry (A_yy - A_xx)/ A_zz 
 ----------------------------------------------------------------------
   1      -0.381    -0.194     2.501       0.074
   2       0.776     0.544     3.354      -0.069
   3       2.237     1.752     4.418      -0.110
   4       2.589     2.206     4.831      -0.079
   5       2.168     1.928     4.464      -0.054
   6       0.249     0.174     2.943      -0.025
   7       1.619     1.259     3.510      -0.103
   8       1.724     1.468     4.021      -0.064
   9       1.695     1.377     3.904      -0.081
  10       2.151     1.685     4.384      -0.106
  11       1.732     1.341     3.640      -0.107
  12       1.751     1.476     4.171      -0.066
  13       1.756     1.412     4.000      -0.086
  14       0.253    -0.011     2.814      -0.094
  15       2.158     1.784     4.229      -0.089
  16       2.053     1.594     4.197      -0.109
  17      14.235    10.060    14.592      -0.286
  18      14.461    10.318    14.898      -0.278
  19      15.605    11.359    16.089      -0.264
  20      13.666     9.418    13.828      -0.307
  21      15.176    10.837    15.286      -0.284
  22      15.318    10.988    15.499      -0.279
  23      14.223     9.962    14.449      -0.295
  24      12.150     7.938    12.231      -0.344
  25      94.294    92.477    95.651      -0.019
  26      93.628    93.306    94.734      -0.003
  27      99.752    98.403   100.917      -0.013
  28      95.087    92.592    98.359      -0.025
  29      97.730    95.736    99.219      -0.020
  30      95.928    94.047    97.442      -0.019
  31      93.668    93.068    96.991      -0.006
  32      90.805    87.985    92.493      -0.030
  33     101.531    99.295   103.530      -0.022
  34     101.872   100.699   104.074      -0.011
  35      99.952    96.940   101.027      -0.030
  36      97.040    93.885    97.522      -0.032
  37      96.654    93.462    98.818      -0.032
  38      94.862    93.015    95.962      -0.019
  39      96.305    93.595    97.250      -0.028
  40      98.161    97.579    99.273      -0.006
  41       7.551     1.343    15.495      -0.401
  42       7.203     0.718    16.749      -0.387
  43       5.433     1.558    14.920      -0.260
  44       5.202     0.418    16.703      -0.286
  45       6.978     2.656    16.805      -0.257
  46      11.014     2.317    20.525      -0.424
  47       2.683     0.432    12.108      -0.186
  48       6.297     2.350    16.801      -0.235
  49       2.313     0.925    13.185      -0.105
  50       3.247     2.072    15.062      -0.078
  51       4.259    -0.418    12.618      -0.371
  52       4.448     1.611    14.049      -0.202
  53      10.478     3.497    20.205      -0.346
  54       5.872    -0.192    15.255      -0.398
  55       5.862    -0.437    15.954      -0.395
  56       3.811    -0.133    12.981      -0.304
  57       5.257    -1.013    15.228      -0.412
  58       7.009     1.624    15.982      -0.337
  59       5.738     3.831    15.261      -0.125
  60       4.678     2.801    16.904      -0.111
  61       4.268    -1.043    12.458      -0.426
  62       5.784     2.412    15.961      -0.211
  63       5.237     2.211    16.897      -0.179
  64       4.294    -1.054    13.316      -0.402
  65       4.479     1.316    16.850      -0.188
  66       4.876    -0.898    15.572      -0.371
  67       7.700     2.551    18.592      -0.277
  68       6.322     0.257    14.618      -0.415
  69       7.590     2.904    17.977      -0.261
  70      10.300     4.972    20.582      -0.259
  71       6.534     1.051    16.418      -0.334
  72       3.947     1.711    14.727      -0.152
  73       5.798     1.037    15.274      -0.312
  74       6.698     2.384    19.146      -0.225
  75       9.146     0.055    17.421      -0.522
  76       4.977     1.360    16.460      -0.220
  77       5.204     0.886    13.078      -0.330
  78       6.673     3.483    16.536      -0.193
  79       4.786     0.110    14.317      -0.327
  80       2.714    -0.474    10.727      -0.297
  81       2.197    -1.203    13.302      -0.256
  82       5.870     2.475    17.120      -0.198
  83       4.898     0.502    15.314      -0.287
  84       7.961     1.384    17.962      -0.366
  85       6.609     2.064    17.684      -0.257
  86       4.905     2.320    16.004      -0.162
  87       5.775     0.144    18.986      -0.297
  88       5.528     0.341    15.527      -0.334
 ---------------------------------------------------------------------



--------------------------------------------------------------------------------------------------------


 stress matrix after NEB project (eV)
    -44.86977      0.50024      0.72844
      0.48273    -40.47929     -4.29988
      0.73180     -4.30748    -55.55756
  FORCES: max atom, RMS     2.865192    1.217450
  FORCE total and by dimension   11.420691    2.269691
  Stress total and by dimension   82.323172   55.557562
     LOOP+:  cpu time  624.3570: real time  626.1712
    4ORBIT:  cpu time    0.0000: real time    0.0000
 


 total charge     
 
# of ion       s       p       d       tot
------------------------------------------
    1        0.054   5.999   0.000   6.053
    2        0.051   5.995   0.000   6.045
    3        0.058   6.003   0.000   6.061
    4        0.052   5.994   0.000   6.046
    5        0.051   5.993   0.000   6.044
    6        0.049   5.993   0.000   6.042
    7        0.049   5.991   0.000   6.040
    8        0.049   5.992   0.000   6.041
    9        0.049   5.990   0.000   6.039
   10        0.051   5.994   0.000   6.046
   11        0.054   5.997   0.000   6.051
   12        0.056   6.001   0.000   6.057
   13        0.046   5.988   0.000   6.033
   14        0.049   5.993   0.000   6.042
   15        0.050   5.991   0.000   6.042
   16        0.051   5.994   0.000   6.045
   17        0.148   6.125   0.082   6.355
   18        0.143   6.117   0.075   6.335
   19        0.151   6.132   0.087   6.371
   20        0.151   6.132   0.087   6.371
   21        0.152   6.133   0.088   6.373
   22        0.147   6.126   0.082   6.355
   23        0.150   6.130   0.085   6.366
   24        0.151   6.129   0.084   6.364
   25        0.388   6.484   4.859  11.731
   26        0.385   6.474   4.849  11.708
   27        0.374   6.452   4.831  11.657
   28        0.395   6.483   4.885  11.762
   29        0.380   6.465   4.844  11.690
   30        0.384   6.468   4.851  11.704
   31        0.385   6.475   4.852  11.712
   32        0.383   6.473   4.843  11.699
   33        0.370   6.439   4.826  11.635
   34        0.355   6.410   4.788  11.554
   35        0.361   6.424   4.805  11.589
   36        0.371   6.446   4.815  11.631
   37        0.379   6.462   4.834  11.675
   38        0.391   6.489   4.868  11.748
   39        0.365   6.422   4.816  11.602
   40        0.375   6.453   4.831  11.658
   41        1.603   3.534   0.000   5.136
   42        1.601   3.545   0.000   5.145
   43        1.597   3.502   0.000   5.098
   44        1.601   3.509   0.000   5.109
   45        1.597   3.485   0.000   5.083
   46        1.605   3.530   0.000   5.135
   47        1.599   3.525   0.000   5.125
   48        1.598   3.500   0.000   5.098
   49        1.595   3.472   0.000   5.067
   50        1.605   3.501   0.000   5.107
   51        1.596   3.513   0.000   5.110
   52        1.598   3.506   0.000   5.104
   53        1.601   3.522   0.000   5.123
   54        1.597   3.513   0.000   5.110
   55        1.599   3.507   0.000   5.106
   56        1.596   3.511   0.000   5.108
   57        1.600   3.520   0.000   5.120
   58        1.599   3.512   0.000   5.111
   59        1.599   3.519   0.000   5.118
   60        1.599   3.486   0.000   5.085
   61        1.599   3.527   0.000   5.126
   62        1.599   3.503   0.000   5.102
   63        1.601   3.502   0.000   5.102
   64        1.599   3.483   0.000   5.082
   65        1.602   3.509   0.000   5.110
   66        1.599   3.501   0.000   5.100
   67        1.600   3.502   0.000   5.102
   68        1.597   3.528   0.000   5.125
   69        1.601   3.521   0.000   5.122
   70        1.601   3.506   0.000   5.107
   71        1.599   3.526   0.000   5.125
   72        1.597   3.481   0.000   5.079
   73        1.597   3.471   0.000   5.067
   74        1.603   3.500   0.000   5.103
   75        1.599   3.508   0.000   5.107
   76        1.599   3.495   0.000   5.094
   77        1.597   3.521   0.000   5.118
   78        1.599   3.500   0.000   5.099
   79        1.597   3.527   0.000   5.124
   80        1.595   3.508   0.000   5.103
   81        1.600   3.493   0.000   5.093
   82        1.599   3.483   0.000   5.081
   83        1.602   3.510   0.000   5.111
   84        1.603   3.517   0.000   5.121
   85        1.601   3.514   0.000   5.115
   86        1.597   3.481   0.000   5.078
   87        1.604   3.454   0.000   5.058
   88        1.599   3.513   0.000   5.112
--------------------------------------------------
tot         84.823 416.546  78.069 579.438
 


 magnetization (x)
 
# of ion       s       p       d       tot
------------------------------------------
    1        0.000   0.000   0.000   0.001
    2        0.001   0.001   0.000   0.002
    3        0.002   0.000   0.000   0.002
    4        0.002   0.000   0.000   0.003
    5        0.002   0.000   0.000   0.002
    6        0.001   0.000   0.000   0.001
    7        0.002   0.001   0.000   0.002
    8        0.002   0.000   0.000   0.002
    9        0.002   0.000   0.000   0.002
   10        0.002   0.000   0.000   0.002
   11        0.002   0.001   0.000   0.002
   12        0.002   0.000   0.000   0.002
   13        0.002  -0.000   0.000   0.002
   14        0.001   0.000   0.000   0.001
   15        0.002   0.000   0.000   0.002
   16        0.002   0.000   0.000   0.002
   17        0.007   0.002   0.001   0.011
   18        0.008   0.002   0.001   0.011
   19        0.008   0.003   0.001   0.012
   20        0.007   0.002   0.001   0.010
   21        0.007   0.003   0.001   0.011
   22        0.008   0.002   0.001   0.011
   23        0.007   0.002   0.001   0.011
   24        0.006   0.002   0.001   0.009
   25        0.015   0.031   2.725   2.770
   26        0.015   0.030   2.733   2.777
   27        0.016   0.031   2.761   2.808
   28        0.015   0.029   2.697   2.740
   29        0.016   0.031   2.748   2.795
   30        0.015   0.031   2.723   2.769
   31        0.015   0.031   2.734   2.780
   32        0.013   0.030   2.733   2.777
   33        0.016   0.030   2.771   2.818
   34        0.016   0.029   2.813   2.859
   35        0.016   0.030   2.776   2.822
   36        0.015   0.030   2.764   2.809
   37        0.016   0.030   2.746   2.791
   38        0.015   0.031   2.718   2.763
   39        0.014   0.027   2.786   2.828
   40        0.016   0.031   2.753   2.800
   41        0.002   0.048   0.000   0.050
   42        0.002   0.054   0.000   0.056
   43        0.002   0.029   0.000   0.031
   44        0.002   0.038   0.000   0.040
   45        0.002   0.043   0.000   0.045
   46        0.002   0.078   0.000   0.080
   47        0.001   0.015   0.000   0.017
   48        0.002   0.039   0.000   0.041
   49        0.002   0.014   0.000   0.016
   50        0.002   0.020   0.000   0.022
   51        0.002   0.022   0.000   0.023
   52        0.002   0.021   0.000   0.023
   53        0.003   0.072   0.000   0.075
   54        0.002   0.037   0.000   0.039
   55        0.002   0.040   0.000   0.042
   56        0.002   0.016   0.000   0.018
   57        0.002   0.032   0.000   0.033
   58        0.002   0.046   0.000   0.048
   59        0.002   0.031   0.000   0.033
   60        0.002   0.027   0.000   0.029
   61        0.001   0.028   0.000   0.029
   62        0.002   0.037   0.000   0.039
   63        0.002   0.037   0.000   0.039
   64        0.002   0.014   0.000   0.016
   65        0.002   0.027   0.000   0.029
   66        0.002   0.023   0.000   0.025
   67        0.003   0.044   0.000   0.047
   68        0.002   0.036   0.000   0.038
   69        0.002   0.050   0.000   0.052
   70        0.003   0.056   0.000   0.059
   71        0.002   0.035   0.000   0.037
   72        0.002   0.019   0.000   0.021
   73        0.002   0.021   0.000   0.023
   74        0.002   0.046   0.000   0.049
   75        0.002   0.036   0.000   0.039
   76        0.002   0.027   0.000   0.029
   77        0.002   0.036   0.000   0.038
   78        0.002   0.038   0.000   0.040
   79        0.002   0.032   0.000   0.034
   80        0.001   0.011   0.000   0.012
   81        0.002   0.008   0.000   0.010
   82        0.002   0.032   0.000   0.035
   83        0.002   0.030   0.000   0.032
   84        0.002   0.049   0.000   0.052
   85        0.002   0.045   0.000   0.047
   86        0.002   0.030   0.000   0.032
   87        0.002   0.033   0.000   0.035
   88        0.002   0.037   0.000   0.039
--------------------------------------------------
tot          0.424   2.145  43.991  46.560
 

 total amount of memory used by VASP MPI-rank0    88178. kBytes
=======================================================================

   base      :      30000. kBytes
   nonlr-proj:      13669. kBytes
   fftplans  :        992. kBytes
   grid      :      21513. kBytes
   one-center:       2737. kBytes
   wavefun   :      19267. kBytes
 
  
  
 General timing and accounting informations for this job:
 ========================================================
  
                  Total CPU time used (sec):      643.254
                            User time (sec):      637.167
                          System time (sec):        6.086
                         Elapsed time (sec):      647.804
  
                   Maximum memory used (kb):      182580.
                   Average memory used (kb):           0.
  
                          Minor page faults:       336478
                          Major page faults:            0
                 Voluntary context switches:         3676
