 vasp.5.4.4.18Apr17-6-g9f103f2a35 (build Dec 02 2020 12:53:39) complex          
  
 executed on             LinuxIFC date 2021.08.05  01:41:34
 running on  112 total cores
 distrk:  each k-point on  112 cores,    1 groups
 distr:  one band on NCORES_PER_BAND=   1 cores,  112 groups


--------------------------------------------------------------------------------------------------------


 INCAR:
 POTCAR:    PAW_PBE Na_pv 19Sep2006               
 POTCAR:    PAW_PBE Mg_pv 13Apr2007               
 POTCAR:    PAW_PBE Mn_pv 02Aug2007               
 POTCAR:    PAW_PBE O 08Apr2002                   

 ----------------------------------------------------------------------------- 
|                                                                             |
|           W    W    AA    RRRRR   N    N  II  N    N   GGGG   !!!           |
|           W    W   A  A   R    R  NN   N  II  NN   N  G    G  !!!           |
|           W    W  A    A  R    R  N N  N  II  N N  N  G       !!!           |
|           W WW W  AAAAAA  RRRRR   N  N N  II  N  N N  G  GGG   !            |
|           WW  WW  A    A  R   R   N   NN  II  N   NN  G    G                |
|           W    W  A    A  R    R  N    N  II  N    N   GGGG   !!!           |
|                                                                             |
|      For optimal performance we recommend to set                            |
|        NCORE= 4 - approx SQRT( number of cores)                             |
|      NCORE specifies how many cores store one orbital (NPAR=cpu/NCORE).     |
|      This setting can  greatly improve the performance of VASP for DFT.     |
|      The default,   NCORE=1            might be grossly inefficient         |
|      on modern multi-core architectures or massively parallel machines.     |
|      Do your own testing !!!!                                               |
|      Unfortunately you need to use the default for GW and RPA calculations. |
|      (for HF NCORE is supported but not extensively tested yet)             |
|                                                                             |
 ----------------------------------------------------------------------------- 

 POTCAR:    PAW_PBE Na_pv 19Sep2006               
   VRHFIN =Na: p6s1                                                             
   LEXCH  = PE                                                                  
   EATOM  =   766.0439 eV,   56.3026 Ry                                         
                                                                                
   TITEL  = PAW_PBE Na_pv 19Sep2006                                             
   LULTRA =        F    use ultrasoft PP ?                                      
   IUNSCR =        1    unscreen: 0-lin 1-nonlin 2-no                           
   RPACOR =    1.800    partial core radius                                     
   POMASS =   22.990; ZVAL   =    7.000    mass and valenz                      
   RCORE  =    2.200    outmost cutoff radius                                   
   RWIGS  =    2.200; RWIGS  =    1.164    wigner-seitz radius (au A)           
   ENMAX  =  259.561; ENMIN  =  194.671 eV                                      
   ICORE  =        2    local potential                                         
   LCOR   =        T    correct aug charges                                     
   LPAW   =        T    paw PP                                                  
   EAUG   =  368.056                                                            
   DEXC   =    0.000                                                            
   RMAX   =    2.245    core radius for proj-oper                               
   RAUG   =    1.300    factor for augmentation sphere                          
   RDEP   =    2.259    radius for radial grids                                 
   RDEPT  =    1.738    core radius for aug-charge                              
                                                                                
   Atomic configuration                                                         
    5 entries                                                                   
     n  l   j            E        occ.                                          
     1  0  0.50     -1033.6933   2.0000                                         
     2  0  0.50       -56.7526   2.0000                                         
     2  1  1.50       -28.6721   6.0000                                         
     3  0  0.50        -2.7440   1.0000                                         
     3  2  1.50        -1.3606   0.0000                                         
   Description                                                                  
     l       E           TYP  RCUT    TYP  RCUT                                 
     1    -28.6720912     23  2.000                                             
     1      6.8029130     23  2.000                                             
     0     -2.7439560     23  2.200                                             
     0     34.0145650     23  2.200                                             
     2     -1.3605826     23  2.200                                             
  local pseudopotential read in
  partial core-charges read in
  partial kinetic energy density read in
  atomic valenz-charges read in
  non local Contribution for L=           1  read in
    real space projection operators read in
  non local Contribution for L=           1  read in
    real space projection operators read in
  non local Contribution for L=           0  read in
    real space projection operators read in
  non local Contribution for L=           0  read in
    real space projection operators read in
    PAW grid and wavefunctions read in
 
   number of l-projection  operators is LMAX  =           4
   number of lm-projection operators is LMMAX =           8
 
 POTCAR:    PAW_PBE Mg_pv 13Apr2007               
   VRHFIN =Mg: p6s2                                                             
   LEXCH  = PE                                                                  
   EATOM  =  1056.7344 eV,   77.6678 Ry                                         
                                                                                
   TITEL  = PAW_PBE Mg_pv 13Apr2007                                             
   LULTRA =        F    use ultrasoft PP ?                                      
   IUNSCR =        1    unscreen: 0-lin 1-nonlin 2-no                           
   RPACOR =    1.500    partial core radius                                     
   POMASS =   24.305; ZVAL   =    8.000    mass and valenz                      
   RCORE  =    2.000    outmost cutoff radius                                   
   RWIGS  =    2.000; RWIGS  =    1.058    wigner-seitz radius (au A)           
   ENMAX  =  403.929; ENMIN  =  302.947 eV                                      
   RCLOC  =    1.506    cutoff for local pot                                    
   LCOR   =        T    correct aug charges                                     
   LPAW   =        T    paw PP                                                  
   EAUG   =  758.780                                                            
   DEXC   =    0.000                                                            
   RMAX   =    2.045    core radius for proj-oper                               
   RAUG   =    1.300    factor for augmentation sphere                          
   RDEP   =    2.025    radius for radial grids                                 
   RDEPT  =    1.557    core radius for aug-charge                              
                                                                                
   Atomic configuration                                                         
    5 entries                                                                   
     n  l   j            E        occ.                                          
     1  0  0.50     -1259.6230   2.0000                                         
     2  0  0.50       -79.8442   2.0000                                         
     2  1  1.50       -46.6121   6.0000                                         
     3  0  0.50        -4.7055   2.0000                                         
     3  2  1.50        -1.3606   0.0000                                         
   Description                                                                  
     l       E           TYP  RCUT    TYP  RCUT                                 
     1    -46.6121073     23  1.600                                             
     1      2.7211652     23  1.600                                             
     0     -4.7054661     23  2.000                                             
     0     61.2262170     23  2.000                                             
     2     -1.3605826     23  2.000                                             
  local pseudopotential read in
  partial core-charges read in
  partial kinetic energy density read in
  atomic valenz-charges read in
  non local Contribution for L=           1  read in
    real space projection operators read in
  non local Contribution for L=           1  read in
    real space projection operators read in
  non local Contribution for L=           0  read in
    real space projection operators read in
  non local Contribution for L=           0  read in
    real space projection operators read in
  non local Contribution for L=           2  read in
    real space projection operators read in
    PAW grid and wavefunctions read in
 
   number of l-projection  operators is LMAX  =           5
   number of lm-projection operators is LMMAX =          13
 
 POTCAR:    PAW_PBE Mn_pv 02Aug2007               
   VRHFIN =Mn: 3p4s3d                                                           
   LEXCH  = PE                                                                  
   EATOM  =  2025.2664 eV,  148.8529 Ry                                         
                                                                                
   TITEL  = PAW_PBE Mn_pv 02Aug2007                                             
   LULTRA =        F    use ultrasoft PP ?                                      
   IUNSCR =        1    unscreen: 0-lin 1-nonlin 2-no                           
   RPACOR =    2.080    partial core radius                                     
   POMASS =   54.938; ZVAL   =   13.000    mass and valenz                      
   RCORE  =    2.300    outmost cutoff radius                                   
   RWIGS  =    2.500; RWIGS  =    1.323    wigner-seitz radius (au A)           
   ENMAX  =  269.864; ENMIN  =  202.398 eV                                      
   ICORE  =        3    local potential                                         
   LCOR   =        T    correct aug charges                                     
   LPAW   =        T    paw PP                                                  
   EAUG   =  569.085                                                            
   DEXC   =    0.000                                                            
   RMAX   =    2.343    core radius for proj-oper                               
   RAUG   =    1.300    factor for augmentation sphere                          
   RDEP   =    2.338    radius for radial grids                                 
   RDEPT  =    1.798    core radius for aug-charge                              
                                                                                
   Atomic configuration                                                         
    8 entries                                                                   
     n  l   j            E        occ.                                          
     1  0  0.50     -6424.8287   2.0000                                         
     2  0  0.50      -739.1154   2.0000                                         
     2  1  1.50      -625.3949   6.0000                                         
     3  0  0.50       -81.6100   2.0000                                         
     3  1  1.50       -50.4667   6.0000                                         
     3  2  2.50        -3.3745   6.0000                                         
     4  0  0.50        -4.1331   1.0000                                         
     4  3  2.50        -1.3606   0.0000                                         
   Description                                                                  
     l       E           TYP  RCUT    TYP  RCUT                                 
     1    -50.4666628     23  2.000                                             
     1     -1.3605826     23  2.000                                             
     2     -3.3744729     23  2.300                                             
     2     -4.7350555     23  2.300                                             
     0     -4.1331431     23  2.300                                             
     0      7.6656591     23  2.300                                             
     3      9.5240782     23  2.300                                             
  local pseudopotential read in
  partial core-charges read in
  partial kinetic energy density read in
  atomic valenz-charges read in
  non local Contribution for L=           1  read in
    real space projection operators read in
  non local Contribution for L=           1  read in
    real space projection operators read in
  non local Contribution for L=           2  read in
    real space projection operators read in
  non local Contribution for L=           2  read in
    real space projection operators read in
  non local Contribution for L=           0  read in
    real space projection operators read in
  non local Contribution for L=           0  read in
    real space projection operators read in
    PAW grid and wavefunctions read in
 
   number of l-projection  operators is LMAX  =           6
   number of lm-projection operators is LMMAX =          18
 
 POTCAR:    PAW_PBE O 08Apr2002                   
   VRHFIN =O: s2p4                                                              
   LEXCH  = PE                                                                  
   EATOM  =   432.3788 eV,   31.7789 Ry                                         
                                                                                
   TITEL  = PAW_PBE O 08Apr2002                                                 
   LULTRA =        F    use ultrasoft PP ?                                      
   IUNSCR =        1    unscreen: 0-lin 1-nonlin 2-no                           
   RPACOR =    1.200    partial core radius                                     
   POMASS =   16.000; ZVAL   =    6.000    mass and valenz                      
   RCORE  =    1.520    outmost cutoff radius                                   
   RWIGS  =    1.550; RWIGS  =    0.820    wigner-seitz radius (au A)           
   ENMAX  =  400.000; ENMIN  =  300.000 eV                                      
   ICORE  =        2    local potential                                         
   LCOR   =        T    correct aug charges                                     
   LPAW   =        T    paw PP                                                  
   EAUG   =  605.392                                                            
   DEXC   =    0.000                                                            
   RMAX   =    1.553    core radius for proj-oper                               
   RAUG   =    1.300    factor for augmentation sphere                          
   RDEP   =    1.550    radius for radial grids                                 
   RDEPT  =    1.329    core radius for aug-charge                              
                                                                                
   Atomic configuration                                                         
    4 entries                                                                   
     n  l   j            E        occ.                                          
     1  0  0.50      -514.6923   2.0000                                         
     2  0  0.50       -23.9615   2.0000                                         
     2  1  0.50        -9.0305   4.0000                                         
     3  2  1.50        -9.5241   0.0000                                         
   Description                                                                  
     l       E           TYP  RCUT    TYP  RCUT                                 
     0    -23.9615318     23  1.200                                             
     0     -9.5240782     23  1.200                                             
     1     -9.0304911     23  1.520                                             
     1      8.1634956     23  1.520                                             
     2     -9.5240782      7  1.500                                             
  local pseudopotential read in
  partial core-charges read in
  partial kinetic energy density read in
  kinetic energy density of atom read in
  atomic valenz-charges read in
  non local Contribution for L=           0  read in
    real space projection operators read in
  non local Contribution for L=           0  read in
    real space projection operators read in
  non local Contribution for L=           1  read in
    real space projection operators read in
  non local Contribution for L=           1  read in
    real space projection operators read in
    PAW grid and wavefunctions read in
 
   number of l-projection  operators is LMAX  =           4
   number of lm-projection operators is LMMAX =           8
 
 Optimization of the real space projectors (new method)

 maximal supplied QI-value         = 17.01
 optimisation between [QCUT,QGAM] = [ 10.20, 20.41] = [ 29.16,116.64] Ry 
 Optimized for a Real-space Cutoff    1.30 Angstroem

   l    n(q)    QCUT    max X(q) W(low)/X(q) W(high)/X(q)  e(spline) 
   1      7    10.205     4.940    0.23E-03    0.84E-03    0.11E-06
   1      7    10.205     6.253    0.40E-03    0.13E-02    0.18E-06
   0      8    10.205    37.438    0.23E-03    0.37E-03    0.42E-07
   0      8    10.205     9.606    0.16E-03    0.26E-03    0.31E-07
 Optimization of the real space projectors (new method)

 maximal supplied QI-value         = 18.90
 optimisation between [QCUT,QGAM] = [ 10.20, 20.41] = [ 29.16,116.64] Ry 
 Optimized for a Real-space Cutoff    1.26 Angstroem

   l    n(q)    QCUT    max X(q) W(low)/X(q) W(high)/X(q)  e(spline) 
   1      7    10.205     2.974    0.63E-04    0.14E-03    0.13E-06
   1      7    10.205     4.279    0.11E-03    0.45E-03    0.24E-06
   0      8    10.205    16.381    0.44E-03    0.15E-03    0.55E-07
   0      8    10.205     5.611    0.31E-03    0.11E-03    0.40E-07
   2      7    10.205     4.652    0.50E-03    0.47E-03    0.57E-07
 Optimization of the real space projectors (new method)

 maximal supplied QI-value         = 16.25
 optimisation between [QCUT,QGAM] = [ 10.24, 20.48] = [ 29.35,117.42] Ry 
 Optimized for a Real-space Cutoff    1.34 Angstroem

   l    n(q)    QCUT    max X(q) W(low)/X(q) W(high)/X(q)  e(spline) 
   1      8    10.239     3.658    0.23E-03    0.30E-03    0.98E-07
   1      8    10.239     5.612    0.32E-03    0.65E-03    0.21E-06
   2      7    10.239    55.373    0.42E-03    0.45E-03    0.65E-07
   2      7    10.239    50.863    0.43E-03    0.48E-03    0.67E-07
   0      8    10.239    79.536    0.11E-03    0.21E-03    0.56E-07
   0      8    10.239    38.668    0.96E-04    0.19E-03    0.52E-07
 Optimization of the real space projectors (new method)

 maximal supplied QI-value         = 24.76
 optimisation between [QCUT,QGAM] = [ 10.15, 20.30] = [ 28.85,115.39] Ry 
 Optimized for a Real-space Cutoff    1.38 Angstroem

   l    n(q)    QCUT    max X(q) W(low)/X(q) W(high)/X(q)  e(spline) 
   0      8    10.150    20.381    0.22E-03    0.32E-03    0.29E-06
   0      8    10.150    15.268    0.23E-03    0.35E-03    0.30E-06
   1      8    10.150     5.964    0.46E-03    0.53E-03    0.21E-06
   1      8    10.150     5.382    0.38E-03    0.45E-03    0.19E-06
  PAW_PBE Na_pv 19Sep2006               :
 energy of atom  1       EATOM= -766.0439
 kinetic energy error for atom=    0.0103 (will be added to EATOM!!)
  PAW_PBE Mg_pv 13Apr2007               :
 energy of atom  2       EATOM=-1056.7344
 kinetic energy error for atom=    0.0820 (will be added to EATOM!!)
  PAW_PBE Mn_pv 02Aug2007               :
 energy of atom  3       EATOM=-2025.2664
 kinetic energy error for atom=    0.0284 (will be added to EATOM!!)
  PAW_PBE O 08Apr2002                   :
 energy of atom  4       EATOM= -432.3788
 kinetic energy error for atom=    0.1156 (will be added to EATOM!!)
 
 
 POSCAR: Na Mg Mn  O                             
  positions in cartesian coordinates
  No initial velocities read in

 METAGGA = SCAN     LMAXTAU =  6    LMIXTAU =  F

 exchange correlation table for  LEXCH =        8
   RHO(1)=    0.500       N(1)  =     2000
   RHO(2)=  100.500       N(2)  =     4000

 VTST: version 3.2, (02/03/18)

 CHAIN: initializing optimizer
 
 OPT: Using VASP Dynamics algorithm
 CHAIN: Read ICHAIN            0
 
 POSCAR: Na Mg Mn  O                             
  positions in cartesian coordinates
  No initial velocities read in
 


--------------------------------------------------------------------------------------------------------


 ion  position               nearest neighbor table
   1  0.751  0.590  0.256-  75 2.25  66 2.35
   2  0.831  0.537  0.748-  68 2.22  57 2.27  28 2.94
   3  0.569  0.104  0.750-  46 2.23  84 2.38  31 2.81  29 2.89
   4  0.267  0.767  0.726-  81 2.15  80 2.16  83 2.26  12 2.73
   5  0.062  0.106  0.260-  63 2.24  50 2.34  27 2.80  25 2.93
   6  0.263  0.625  0.255-  78 2.29  77 2.33  86 2.35
   7  0.043  0.905  0.751-  73 2.28  72 2.29  70 2.37
   8  0.548  0.614  0.750-  82 2.28  48 2.33  85 2.34  45 2.37  33 2.86  35 2.89
   9  0.386  0.393  0.258-  50 2.15  43 2.23
  10  0.904  0.380  0.245-  53 2.18  55 2.26  62 2.35
  11  0.118  0.822  0.247-  86 2.28  77 2.34  67 2.36  76 2.38
  12  0.091  0.454  0.745-  80 2.21  83 2.31   4 2.73
  13  0.303  0.268  0.743-  47 2.26  45 2.29  44 2.30
  14  0.870  0.085  0.755-  59 2.32  56 2.34
  15  0.606  0.814  0.235-  79 2.24  65 2.24  74 2.33  88 2.37
  16  0.542  0.122  0.255-  51 2.08  42 2.14  31 2.78  29 2.81
  17  0.731  0.438  0.008-  49 1.99  53 2.03  71 2.04  60 2.11  66 2.14  43 2.17  29 2.80  26 2.80

  18  0.408  0.257  0.496-  51 1.99  52 1.99  50 2.03  44 2.04  46 2.12  45 2.14  31 2.80  28 2.85

  19  0.239  0.447  0.001-  55 2.02  78 2.06  41 2.09  48 2.09  61 2.11  83 2.19  30 2.83  33 2.84

  20  0.916  0.259  0.500-  63 1.98  58 2.03  64 2.03  56 2.11  62 2.12  57 2.22  27 2.77  32 2.79
                            40 2.85
  21  0.248  0.953  0.001-  47 2.04  42 2.07  84 2.08  67 2.12  77 2.15  73 2.16  29 2.84
  22  0.903  0.770  0.497-  76 1.99  68 2.01  75 2.03  70 2.07  69 2.08  74 2.14  27 2.81  35 2.84
                            40 2.85
  23  0.743  0.948  0.997-  54 2.01  72 2.03  85 2.03  65 2.06  79 2.12  59 2.14  25 2.82  34 2.84

  24  0.407  0.758  0.504-  80 1.98  81 2.03  82 2.05  87 2.11  88 2.13  86 2.15  35 2.85  40 2.85

  25  0.068  0.106  0.998-  47 1.87  54 1.90  67 1.92  41 1.92  72 1.93  61 2.04  34 2.81  23 2.82
                            30 2.88   5 2.93  26 2.96
  26  0.409  0.283  0.996-  49 1.86  48 1.88  41 1.89  43 1.92  42 1.99  47 2.10  17 2.80  33 2.84
                            29 2.89  25 2.96
  27  0.069  0.092  0.509-  76 1.88  69 1.88  44 1.91  58 1.96  63 1.99  50 2.08  20 2.77   5 2.80
                            22 2.81  40 2.89  32 2.91  36 2.97
  28  0.736  0.431  0.502-  68 1.87  52 1.89  62 1.89  46 1.97  75 2.02  57 2.03  35 2.85  18 2.85
                            31 2.86  39 2.89   2 2.94
  29  0.575  0.116  0.007-  42 1.81  84 1.87  49 1.88  79 1.91  53 1.91  59 1.96  17 2.80  16 2.81
                            21 2.84   3 2.89  26 2.89  38 2.91  30 2.94
  30  0.913  0.284  0.995-  59 1.86  60 1.87  61 1.88  54 1.90  55 1.92  53 2.03  19 2.83  25 2.88
                            37 2.90  29 2.94
  31  0.574  0.101  0.499-  51 1.88  56 1.92  46 1.94  62 1.96  88 1.97  81 1.99  16 2.78  18 2.80
                             3 2.81  28 2.86  40 2.87  36 2.88
  32  0.238  0.428  0.500-  64 1.92  45 1.94  50 1.94  58 1.97  87 1.98  80 2.02  20 2.79  39 2.91
                            27 2.91  35 2.93
  33  0.567  0.610  0.003-  85 1.87  71 1.90  65 1.91  48 1.94  43 1.95  78 1.98  26 2.84  38 2.84
                            19 2.84   8 2.86  34 2.93
  34  0.905  0.783  0.004-  67 1.82  72 1.87  65 1.92  71 1.99  66 1.99  73 2.00  25 2.81  23 2.84
                            37 2.92  33 2.93
  35  0.576  0.598  0.494-  87 1.87  74 1.88  82 1.90  52 1.93  45 1.95  68 1.95  22 2.84  28 2.85
                            24 2.85  40 2.89   8 2.89  32 2.93
  36  0.242  0.924  0.504-  86 1.85  70 1.87  81 1.90  44 1.96  76 1.99  51 1.99  39 2.87  31 2.88
                            27 2.97
  37  0.076  0.618  0.000-  73 1.89  55 1.89  77 1.92  60 1.92  66 1.94  83 1.96  30 2.90  38 2.90
                            34 2.92
  38  0.411  0.781  1.000-  84 1.85  78 1.85  85 1.90  79 1.92  77 1.93  83 2.05  33 2.84  37 2.90
                            29 2.91
  39  0.069  0.594  0.495-  57 1.84  64 1.88  80 1.92  75 1.93  86 2.01  70 2.04  36 2.87  28 2.89
                            32 2.91
  40  0.736  0.931  0.497-  88 1.83  82 1.84  56 1.86  63 1.89  69 1.90  74 2.02  20 2.85  22 2.85
                            24 2.85  31 2.87  27 2.89  35 2.89
  41  0.240  0.262  0.086-  26 1.89  25 1.92  19 2.09
  42  0.430  0.128  0.094-  29 1.81  26 1.99  21 2.07  16 2.14
  43  0.545  0.441  0.105-  26 1.92  33 1.95  17 2.17   9 2.23
  44  0.233  0.088  0.593-  27 1.91  36 1.96  18 2.04  13 2.30
  45  0.409  0.443  0.591-  32 1.94  35 1.95  18 2.14  13 2.29   8 2.37
  46  0.584  0.261  0.603-  31 1.94  28 1.97  18 2.12   3 2.23
  47  0.221  0.108  0.902-  25 1.87  21 2.04  26 2.10  13 2.26
  48  0.416  0.443  0.905-  26 1.88  33 1.94  19 2.09   8 2.33
  49  0.563  0.266  0.915-  26 1.86  29 1.88  17 1.99
  50  0.237  0.266  0.404-  32 1.94  18 2.03  27 2.08   9 2.15   5 2.34
  51  0.411  0.088  0.407-  31 1.88  18 1.99  36 1.99  16 2.08
  52  0.579  0.432  0.409-  28 1.89  35 1.93  18 1.99
  53  0.742  0.269  0.100-  29 1.91  30 2.03  17 2.03  10 2.18
  54  0.915  0.125  0.085-  30 1.90  25 1.90  23 2.01
  55  0.065  0.452  0.088-  37 1.89  30 1.92  19 2.02  10 2.26
  56  0.726  0.080  0.590-  40 1.86  31 1.92  20 2.11  14 2.34
  57  0.920  0.455  0.596-  39 1.84  28 2.03  20 2.22   2 2.27
  58  0.085  0.265  0.603-  27 1.96  32 1.97  20 2.03
  59  0.746  0.138  0.907-  30 1.86  29 1.96  23 2.14  14 2.32
  60  0.917  0.447  0.913-  30 1.87  37 1.92  17 2.11
  61  0.060  0.272  0.899-  30 1.88  25 2.04  19 2.11
  62  0.738  0.273  0.409-  28 1.89  31 1.96  20 2.12  10 2.35
  63  0.902  0.084  0.407-  40 1.89  20 1.98  27 1.99   5 2.24
  64  0.083  0.441  0.408-  39 1.88  32 1.92  20 2.03
  65  0.734  0.768  0.092-  33 1.91  34 1.92  23 2.06  15 2.24
  66  0.921  0.624  0.099-  37 1.94  34 1.99  17 2.14   1 2.35
  67  0.055  0.939  0.090-  34 1.82  25 1.92  21 2.12  11 2.36
  68  0.736  0.591  0.588-  28 1.87  35 1.95  22 2.01   2 2.22
  69  0.897  0.944  0.594-  27 1.88  40 1.90  22 2.08
  70  0.080  0.770  0.593-  36 1.87  39 2.04  22 2.07   7 2.37
  71  0.730  0.614  0.915-  33 1.90  34 1.99  17 2.04
  72  0.912  0.937  0.906-  34 1.87  25 1.93  23 2.03   7 2.29
  73  0.062  0.766  0.905-  37 1.89  34 2.00  21 2.16   7 2.28
  74  0.717  0.757  0.394-  35 1.88  40 2.02  22 2.14  15 2.33
  75  0.907  0.598  0.404-  39 1.93  28 2.02  22 2.03   1 2.25
  76  0.081  0.944  0.416-  27 1.88  36 1.99  22 1.99  11 2.38
  77  0.244  0.765  0.097-  37 1.92  38 1.93  21 2.15   6 2.33  11 2.34
  78  0.408  0.629  0.095-  38 1.85  33 1.98  19 2.06   6 2.29
  79  0.561  0.947  0.096-  29 1.91  38 1.92  23 2.12  15 2.24
  80  0.228  0.595  0.592-  39 1.92  24 1.98  32 2.02   4 2.16  12 2.21
  81  0.408  0.933  0.594-  36 1.90  31 1.99  24 2.03   4 2.15
  82  0.595  0.766  0.586-  40 1.84  35 1.90  24 2.05   8 2.28
  83  0.234  0.627  0.893-  37 1.96  38 2.05  19 2.19   4 2.26  12 2.31
  84  0.430  0.949  0.916-  38 1.85  29 1.87  21 2.08   3 2.38
  85  0.565  0.766  0.913-  33 1.87  38 1.90  23 2.03   8 2.34
  86  0.233  0.774  0.403-  36 1.85  39 2.01  24 2.15  11 2.28   6 2.35
  87  0.412  0.583  0.403-  35 1.87  32 1.98  24 2.11
  88  0.589  0.942  0.407-  40 1.83  31 1.97  24 2.13  15 2.37
 
  LATTYP: Found a hexagonal cell.
 ALAT       =    10.0190000534
 C/A-ratio  =     1.1196726572
  
  Lattice vectors:
  
 A1 = (  10.0190000534,   0.0000000000,   0.0000000000)
 A2 = (  -5.0095000267,   8.6767085668,   0.0000000000)
 A3 = (   0.0000000000,   0.0000000000,  11.2180004120)


Analysis of symmetry for initial positions (statically):
=====================================================================
 Subroutine PRICEL returns:
 Original cell was already a primitive cell.
 

 Routine SETGRP: Setting up the symmetry group for a 
 hexagonal supercell.


 Subroutine GETGRP returns: Found  1 space group operations
 (whereof  1 operations were pure point group operations)
 out of a pool of 24 trial point group operations.


The static configuration has the point symmetry C_1 .


Analysis of symmetry for dynamics (positions and initial velocities):
=====================================================================
 Subroutine PRICEL returns:
 Original cell was already a primitive cell.
 

 Routine SETGRP: Setting up the symmetry group for a 
 hexagonal supercell.


 Subroutine GETGRP returns: Found  1 space group operations
 (whereof  1 operations were pure point group operations)
 out of a pool of 24 trial point group operations.


The dynamic configuration has the point symmetry C_1 .


Analysis of structural, dynamic, and magnetic symmetry:
=====================================================================
 Subroutine PRICEL returns:
 Original cell was already a primitive cell.
 

 Routine SETGRP: Setting up the symmetry group for a 
 hexagonal supercell.


 Subroutine GETGRP returns: Found  1 space group operations
 (whereof  1 operations were pure point group operations)
 out of a pool of 24 trial point group operations.


The magnetic configuration has the point symmetry C_1 .


 Subroutine INISYM returns: Found  1 space group operations
 (whereof  1 operations are pure point group operations),
 and found     1 'primitive' translations

 
 

Automatic generation of k-mesh.
 generate k-points for:    2    2    2
Space group operators:
 irot       det(A)        alpha          n_x          n_y          n_z        tau_x        tau_y        tau_z
    1     1.000000     0.000000     1.000000     0.000000     0.000000     0.000000     0.000000     0.000000
 
 Subroutine IBZKPT returns following result:
 ===========================================
 
 Found      8 irreducible k-points:
 
 Following reciprocal coordinates:
            Coordinates               Weight
  0.000000  0.000000  0.000000      1.000000
  0.500000 -0.000000 -0.000000      1.000000
  0.000000  0.500000  0.000000      1.000000
  0.500000  0.500000 -0.000000      1.000000
  0.000000  0.000000  0.500000      1.000000
  0.500000 -0.000000  0.500000      1.000000
  0.000000  0.500000  0.500000      1.000000
  0.500000  0.500000  0.500000      1.000000
 
 Following cartesian coordinates:
            Coordinates               Weight
  0.000000  0.000000  0.000000      1.000000
  0.049905  0.028813 -0.000000      1.000000
  0.000000  0.057626  0.000000      1.000000
  0.049905  0.086438 -0.000000      1.000000
  0.000000  0.000000  0.044571      1.000000
  0.049905  0.028813  0.044571      1.000000
  0.000000  0.057626  0.044571      1.000000
  0.049905  0.086438  0.044571      1.000000
 


--------------------------------------------------------------------------------------------------------




 Dimension of arrays:
   k-points           NKPTS =      8   k-points in BZ     NKDIM =      8   number of bands    NBANDS=    448
   number of dos      NEDOS =    301   number of ions     NIONS =     88
   non local maximal  LDIM  =      6   non local SUM 2l+1 LMDIM =     18
   total plane-waves  NPLWV = 140000
   max r-space proj   IRMAX =   1632   max aug-charges    IRDMAX=   4555
   dimension x,y,z NGX =    50 NGY =   50 NGZ =   56
   dimension x,y,z NGXF=   100 NGYF=  100 NGZF=  112
   support grid    NGXF=   100 NGYF=  100 NGZF=  112
   ions per type =              16   8  16  48
   NGX,Y,Z   is equivalent  to a cutoff of   8.30,  8.30,  8.30 a.u.
   NGXF,Y,Z  is equivalent  to a cutoff of  16.59, 16.59, 16.60 a.u.

 SYSTEM =  unknown system                          
 POSCAR =  Na Mg Mn  O                             

 Startparameter for this run:
   NWRITE =      2    write-flag & timer
   PREC   = normal    normal or accurate (medium, high low for compatibility)
   ISTART =      0    job   : 0-new  1-cont  2-samecut
   ICHARG =      1    charge: 1-file 2-atom 10-const
   ISPIN  =      2    spin polarized calculation?
   LNONCOLLINEAR =      F non collinear calculations
   LSORBIT =      F    spin-orbit coupling
   INIWAV =      1    electr: 0-lowe 1-rand  2-diag
   LASPH  =      T    aspherical Exc in radial PAW
   METAGGA=      F    non-selfconsistent MetaGGA calc.

 Electronic Relaxation 1
   ENCUT  =  400.0 eV  29.40 Ry    5.42 a.u.  16.34 16.34 18.29*2*pi/ulx,y,z
   ENINI  =  400.0     initial cutoff
   ENAUG  =  758.8 eV  augmentation charge cutoff
   NELM   =    200;   NELMIN=  6; NELMDL=-12     # of ELM steps 
   EDIFF  = 0.1E-04   stopping-criterion for ELM
   LREAL  =      T    real-space projection
   NLSPLINE    = F    spline interpolate recip. space projectors
   LCOMPAT=      F    compatible to vasp.4.4
   GGA_COMPAT  = T    GGA compatible to vasp.4.4-vasp.4.6
   LMAXPAW     = -100 max onsite density
   LMAXMIX     =    4 max onsite mixed and CHGCAR
   VOSKOWN=      0    Vosko Wilk Nusair interpolation
   ROPT   =   -0.00050  -0.00050  -0.00050  -0.00050
 Ionic relaxation
   EDIFFG = 0.1E-03   stopping-criterion for IOM
   NSW    =      1    number of steps for IOM
   NBLOCK =      1;   KBLOCK =      1    inner block; outer block 
   IBRION =     -1    ionic relax: 0-MD 1-quasi-New 2-CG
   NFREE  =      0    steps in history (QN), initial steepest desc. (CG)
   ISIF   =      2    stress and relaxation
   IWAVPR =     10    prediction:  0-non 1-charg 2-wave 3-comb
   ISYM   =      2    0-nonsym 1-usesym 2-fastsym
   LCORR  =      T    Harris-Foulkes like correction to forces

   POTIM  = 0.5000    time-step for ionic-motion
   TEIN   =    0.0    initial temperature
   TEBEG  =    0.0;   TEEND  =   0.0 temperature during run
   SMASS  =  -3.00    Nose mass-parameter (am)
   estimated Nose-frequenzy (Omega)   =  0.10E-29 period in steps =****** mass=  -0.229E-26a.u.
   SCALEE = 1.0000    scale energy and forces
   NPACO  =    256;   APACO  = 16.0  distance and # of slots for P.C.
   PSTRESS=    0.0 pullay stress

  Mass of Ions in am
   POMASS =  22.99 24.30 54.94 16.00
  Ionic Valenz
   ZVAL   =   7.00  8.00 13.00  6.00
  Atomic Wigner-Seitz radii
   RWIGS  =  -1.00 -1.00 -1.00 -1.00
  virtual crystal weights 
   VCA    =   1.00  1.00  1.00  1.00
   NELECT =     672.0000    total number of electrons
   NUPDOWN=      48.0000    fix difference up-down

 DOS related values:
   EMIN   =  10.00;   EMAX   =-10.00  energy-range for DOS
   EFERMI =   0.00
   ISMEAR =     0;   SIGMA  =   0.05  broadening in eV -4-tet -1-fermi 0-gaus

 Electronic relaxation 2 (details)
   IALGO  =     48    algorithm
   LDIAG  =      T    sub-space diagonalisation (order eigenvalues)
   LSUBROT=      F    optimize rotation matrix (better conditioning)
   TURBO    =      0    0=normal 1=particle mesh
   IRESTART =      0    0=no restart 2=restart with 2 vectors
   NREBOOT  =      0    no. of reboots
   NMIN     =      0    reboot dimension
   EREF     =   0.00    reference energy to select bands
   IMIX   =      4    mixing-type and parameters
     AMIX     =   0.40;   BMIX     =  1.00
     AMIX_MAG =   1.60;   BMIX_MAG =  1.00
     AMIN     =   0.10
     WC   =   100.;   INIMIX=   1;  MIXPRE=   1;  MAXMIX= -45

 Intra band minimization:
   WEIMIN = 0.0000     energy-eigenvalue tresh-hold
   EBREAK =  0.56E-08  absolut break condition
   DEPER  =   0.30     relativ break condition  

   TIME   =   0.40     timestep for ELM

  volume/ion in A,a.u.               =      11.08        74.78
  Fermi-wavevector in a.u.,A,eV,Ry     =   1.445993  2.732531 28.448379  2.090897
  Thomas-Fermi vector in A             =   2.564112
 
 Write flags
   LWAVE        =      F    write WAVECAR
   LDOWNSAMPLE  =      F    k-point downsampling of WAVECAR
   LCHARG       =      F    write CHGCAR
   LVTOT        =      F    write LOCPOT, total local potential
   LVHAR        =      F    write LOCPOT, Hartree potential only
   LELF         =      F    write electronic localiz. function (ELF)
   LORBIT       =     11    0 simple, 1 ext, 2 COOP (PROOUT), +10 PAW based schemes


 Dipole corrections
   LMONO  =      F    monopole corrections only (constant potential shift)
   LDIPOL =      F    correct potential (dipole corrections)
   IDIPOL =      0    1-x, 2-y, 3-z, 4-all directions 
   EPSILON=  1.0000000 bulk dielectric constant

 Exchange correlation treatment:
   GGA     =    --    GGA type
   LEXCH   =     8    internal setting for exchange type
   VOSKOWN=      0    Vosko Wilk Nusair interpolation
   LHFCALC =     F    Hartree Fock is set to
   LHFONE  =     F    Hartree Fock one center treatment
   AEXX    =    0.0000 exact exchange contribution

 Linear response parameters
   LEPSILON=     F    determine dielectric tensor
   LRPA    =     F    only Hartree local field effects (RPA)
   LNABLA  =     F    use nabla operator in PAW spheres
   LVEL    =     F    velocity operator in full k-point grid
   LINTERFAST=   F  fast interpolation
   KINTER  =     0    interpolate to denser k-point grid
   CSHIFT  =0.1000    complex shift for real part using Kramers Kronig
   OMEGAMAX=  -1.0    maximum frequency
   DEG_THRESHOLD= 0.2000000E-02 threshold for treating states as degnerate
   RTIME   =   -0.100 relaxation time in fs
  (WPLASMAI=    0.000 imaginary part of plasma frequency in eV, 0.658/RTIME)
   DFIELD  = 0.0000000 0.0000000 0.0000000 field for delta impulse in time
 
 Orbital magnetization related:
   ORBITALMAG=     F  switch on orbital magnetization
   LCHIMAG   =     F  perturbation theory with respect to B field
   DQ        =  0.001000  dq finite difference perturbation B field
   LLRAUG    =     F  two centre corrections for induced B field



--------------------------------------------------------------------------------------------------------


 Static calculation
 charge density and potential will be updated during run
 spin polarized calculation
 RMM-DIIS sequential band-by-band
 perform sub-space diagonalisation
    before iterative eigenvector-optimisation
 modified Broyden-mixing scheme, WC =      100.0
 initial mixing is a Kerker type mixing with AMIX =  0.4000 and BMIX =      1.0000
 Hartree-type preconditioning will be used
 using additional bands          112
 real space projection scheme for non local part
 use partial core corrections
 calculate Harris-corrections to forces 
   (improved forces if not selfconsistent)
 use gradient corrections 
 use of overlap-Matrix (Vanderbilt PP)
 Gauss-broadening in eV      SIGMA  =   0.05


--------------------------------------------------------------------------------------------------------


  energy-cutoff  :      400.00
  volume of cell :      975.20
      direct lattice vectors                 reciprocal lattice vectors
    10.019000053  0.000000000  0.000000000     0.099810360  0.057625538 -0.000000000
    -5.009500027  8.676708567  0.000000000     0.000000000  0.115251076  0.000000000
     0.000000000  0.000000000 11.218000412     0.000000000  0.000000000  0.089142446

  length of vectors
    10.019000053 10.019000053 11.218000412     0.115251076  0.115251076  0.089142446


 
 k-points in units of 2pi/SCALE and weight: read from INCAR                         
   0.00000000  0.00000000  0.00000000       0.125
   0.04990518  0.02881277 -0.00000000       0.125
   0.00000000  0.05762554  0.00000000       0.125
   0.04990518  0.08643831 -0.00000000       0.125
   0.00000000  0.00000000  0.04457122       0.125
   0.04990518  0.02881277  0.04457122       0.125
   0.00000000  0.05762554  0.04457122       0.125
   0.04990518  0.08643831  0.04457122       0.125
 
 k-points in reciprocal lattice and weights: read from INCAR                         
   0.00000000  0.00000000  0.00000000       0.125
   0.50000000 -0.00000000 -0.00000000       0.125
   0.00000000  0.50000000  0.00000000       0.125
   0.50000000  0.50000000 -0.00000000       0.125
   0.00000000  0.00000000  0.50000000       0.125
   0.50000000 -0.00000000  0.50000000       0.125
   0.00000000  0.50000000  0.50000000       0.125
   0.50000000  0.50000000  0.50000000       0.125
 
 position of ions in fractional coordinates (direct lattice) 
   0.75121216  0.58967653  0.25602602
   0.83082104  0.53709867  0.74845424
   0.56862967  0.10416623  0.74987428
   0.26737503  0.76698883  0.72615526
   0.06213490  0.10563519  0.25975128
   0.26346540  0.62533983  0.25508289
   0.04250453  0.90501764  0.75135583
   0.54775581  0.61402645  0.74955515
   0.38636056  0.39338188  0.25835353
   0.90424823  0.37971113  0.24533071
   0.11784096  0.82222752  0.24672222
   0.09095857  0.45376061  0.74512477
   0.30285763  0.26789718  0.74276161
   0.86976673  0.08539627  0.75542251
   0.60580037  0.81397620  0.23452130
   0.54224585  0.12242562  0.25490728
   0.73051302  0.43818344  0.00802705
   0.40756097  0.25730379  0.49633355
   0.23899784  0.44684686  0.00062396
   0.91621105  0.25901757  0.49955962
   0.24784158  0.95261699  0.00117270
   0.90258156  0.76952683  0.49734978
   0.74255669  0.94801386  0.99696818
   0.40727673  0.75793602  0.50406488
   0.06802540  0.10643108  0.99827259
   0.40855756  0.28258872  0.99609615
   0.06881459  0.09245142  0.50894899
   0.73614975  0.43065063  0.50201728
   0.57495180  0.11604532  0.00688843
   0.91341703  0.28375391  0.99498124
   0.57441710  0.10132448  0.49928417
   0.23762979  0.42794108  0.49953644
   0.56676355  0.60967243  0.00334360
   0.90495465  0.78318408  0.00404368
   0.57566340  0.59792028  0.49379745
   0.24230490  0.92416265  0.50446869
   0.07602681  0.61809613  0.00022975
   0.41063602  0.78110495  0.99974998
   0.06892883  0.59431638  0.49486270
   0.73574660  0.93143730  0.49701282
   0.24007111  0.26204061  0.08593082
   0.42969523  0.12846922  0.09415760
   0.54458867  0.44123644  0.10459262
   0.23275425  0.08782609  0.59291672
   0.40923011  0.44337089  0.59099748
   0.58437485  0.26088464  0.60265910
   0.22072558  0.10822629  0.90197893
   0.41620366  0.44313693  0.90451057
   0.56265393  0.26649161  0.91543052
   0.23725781  0.26600179  0.40432429
   0.41132035  0.08770508  0.40726153
   0.57891576  0.43159338  0.40925386
   0.74172110  0.26893378  0.09958370
   0.91518401  0.12467285  0.08511437
   0.06535824  0.45200204  0.08775477
   0.72550704  0.07979540  0.58959616
   0.92003197  0.45467817  0.59599213
   0.08472618  0.26506249  0.60320287
   0.74557084  0.13790483  0.90721159
   0.91699893  0.44743234  0.91292562
   0.06023407  0.27213199  0.89854695
   0.73776361  0.27346314  0.40921999
   0.90179931  0.08350879  0.40740148
   0.08272724  0.44079733  0.40794614
   0.73394172  0.76822679  0.09174630
   0.92065406  0.62372154  0.09941790
   0.05542180  0.93944725  0.09028882
   0.73561481  0.59066868  0.58825992
   0.89708206  0.94358822  0.59394186
   0.07997612  0.77045229  0.59322693
   0.73042970  0.61380879  0.91527007
   0.91199346  0.93705809  0.90603491
   0.06182575  0.76597709  0.90504543
   0.71708920  0.75741624  0.39429754
   0.90740595  0.59828332  0.40411480
   0.08097982  0.94350870  0.41561685
   0.24374126  0.76458601  0.09684525
   0.40837533  0.62936769  0.09537974
   0.56144679  0.94739842  0.09588607
   0.22756360  0.59544699  0.59215723
   0.40766460  0.93335854  0.59412638
   0.59459526  0.76629403  0.58553127
   0.23402527  0.62659590  0.89311817
   0.43040095  0.94903844  0.91618824
   0.56504975  0.76600130  0.91327328
   0.23323899  0.77405158  0.40308164
   0.41185176  0.58267948  0.40282313
   0.58917964  0.94208419  0.40705204
 
 position of ions in cartesian coordinates  (Angst):
   4.57241005  5.11645140  2.87210000
   5.63340027  4.66024860  8.39616000
   5.17528000  0.90382000  8.41209000
  -1.16340013  6.65493857  8.14601000
   0.09335005  0.91656573  2.91389000
  -0.49298003  5.42589143  2.86152000
  -4.10783303  7.85257430  8.42871000
   2.41199992  5.32772857  8.40851000
   1.90029987  3.41325997  2.89821000
   7.15750013  3.29464283  2.75212000
  -2.93830019  7.13422857  2.76773000
  -1.36179989  3.93714860  8.35881000
   1.69229968  2.32446573  8.33230000
   8.28640029  0.74095857  8.47433000
   1.99190011  7.06263427  2.63086000
   4.81947005  1.06225140  2.85955000
   5.12393000  3.80199000  0.09004740
   2.79439000  2.23255000  5.56787000
   0.15604000  3.87716000  0.00699959
   7.88197000  2.24742000  5.60406000
  -2.28901000  8.26558000  0.01315530
   5.18802000  6.67696000  5.57927000
   2.69060000  8.22564000 11.18398941
   0.28362500  6.57639000  5.65460000
   0.14837997  0.92347143 11.19862231
   2.67771000  2.45194000 11.17420701
   0.22631800  0.80217400  5.70939000
   5.21814000  3.73663000  5.63163000
   5.17911303  1.00689143  0.07727440
   7.73006000  2.46205000 11.16170000
   5.24750000  0.87916300  5.60097000
   0.23704200  3.71312000  5.60380000
   2.62425000  5.28995000  0.03750850
   5.14338000  6.79546000  0.04536200
   2.77229000  5.18798000  5.53942000
  -2.20194000  8.01869000  5.65913000
  -2.33464000  5.36304000  0.00257731
   0.20121700  6.77742000 11.21519572
  -2.28663000  5.15671000  5.55137000
   2.70541000  8.08181000  5.57549000
   1.09258000  2.27365000  0.96397200
   3.66155000  1.11469000  1.05626000
   3.24586000  3.82848000  1.17332000
   1.89200003  0.76204143  6.65134000
   1.87901000  3.84700000  6.62981000
   4.54795000  2.26362000  6.76063000
   1.66929000  0.93904800 10.11840000
   1.95005000  3.84497000 10.14680000
   4.30224000  2.31227000 10.26930000
   1.04455000  2.30802000  4.53571000
   3.68166003  0.76099143  4.56866000
   3.63809000  3.74481000  4.59101000
   6.08408000  2.33346000  1.11713000
   8.54468000  1.08175000  0.95481300
  -1.60948005  3.92189000  0.98443300
   6.86912003  0.69236143  6.61409000
   6.94009000  3.94511000  6.68584000
  -0.47895900  2.29987000  6.76673000
   6.77904000  1.19656000 10.17710000
   6.94600000  3.88224000 10.24120000
  -0.75976005  2.36121000 10.07990000
   6.02174000  2.37276000  4.59063000
   8.61679003  0.72458143  4.57023000
  -1.37933000  3.82467000  4.57634000
   3.50493000  6.66568000  1.02921000
   6.09950000  5.41185000  1.11527000
  -4.15089005  8.15131000  1.01286000
   4.41117000  5.12506000  6.59910000
   4.26096000  8.18724000  6.66284000
  -3.05830000  6.68499000  6.65482000
   4.24330000  5.32584000 10.26750000
   4.44307000  8.13058000 10.16390000
  -3.21773005  6.64616000 10.15280000
   3.39024000  6.57188000  4.42323000
   6.09420000  5.19113000  4.53336000
  -3.91517000  8.18655000  4.66239000
  -1.38815000  6.63409000  1.08641000
   0.93869500  5.46084000  1.06997000
   0.87914300  8.22030000  1.07565000
  -0.70293200  5.16652000  6.64282000
  -0.59126800  8.09848000  6.66491000
   2.11850000  6.64891000  6.56849000
  -0.79423300  5.43679000 10.01900000
  -0.44202100  8.23453000 10.27780000
   1.82395000  6.64637000 10.24510000
  -1.54079000  6.71622000  4.52177000
   1.20741000  5.05574000  4.51887000
   1.18362000  8.17419000  4.56631000
 


--------------------------------------------------------------------------------------------------------


 k-point  1 :   0.0000 0.0000 0.0000  plane waves:   17725
 k-point  2 :   0.5000-0.0000-0.0000  plane waves:   17736
 k-point  3 :   0.0000 0.5000 0.0000  plane waves:   17736
 k-point  4 :   0.5000 0.5000-0.0000  plane waves:   17736
 k-point  5 :   0.0000 0.0000 0.5000  plane waves:   17676
 k-point  6 :   0.5000-0.0000 0.5000  plane waves:   17700
 k-point  7 :   0.0000 0.5000 0.5000  plane waves:   17700
 k-point  8 :   0.5000 0.5000 0.5000  plane waves:   17700

 maximum and minimum number of plane-waves per node :     17736    17676

 maximum number of plane-waves:     17736
 maximum index in each direction: 
   IXMAX=   16   IYMAX=   16   IZMAX=   18
   IXMIN=  -16   IYMIN=  -16   IZMIN=  -18


 serial   3D FFT for wavefunctions
 parallel 3D FFT for charge:
    minimum data exchange during FFTs selected (reduces bandwidth)


 total amount of memory used by VASP MPI-rank0    88188. kBytes
=======================================================================

   base      :      30000. kBytes
   nonlr-proj:      13679. kBytes
   fftplans  :        992. kBytes
   grid      :      21513. kBytes
   one-center:       2737. kBytes
   wavefun   :      19267. kBytes
 
     INWAV:  cpu time    0.0000: real time    0.0001
 Broyden mixing: mesh for mixing (old mesh)
   NGX = 33   NGY = 33   NGZ = 37
  (NGX  =100   NGY  =100   NGZ  =112)
  gives a total of  40293 points

 initial charge density was supplied:
 charge density of overlapping atoms calculated
 number of electron     672.0000000 magnetization      48.0000000
 keeping initial charge density in first step


--------------------------------------------------------------------------------------------------------


 Maximum index for non-local projection operator         1549
 Maximum index for augmentation-charges          226 (set IRDMAX)


--------------------------------------------------------------------------------------------------------


 First call to EWALD:  gamma=   0.179
 Maximum number of real-space cells 3x 3x 2
 Maximum number of reciprocal cells 3x 3x 3

    FEWALD:  cpu time    0.0027: real time    0.0033


--------------------------------------- Iteration      1(   1)  ---------------------------------------


    POTLOK:  cpu time    0.2099: real time    0.2120
    SETDIJ:  cpu time    3.1155: real time    3.1172
    EDDIAG:  cpu time    3.8481: real time    3.8535
  RMM-DIIS:  cpu time    6.8178: real time    6.8245
    ORTHCH:  cpu time    1.1984: real time    1.2112
       DOS:  cpu time    0.0020: real time    0.0020
    --------------------------------------------
      LOOP:  cpu time   15.1918: real time   15.2204

 eigenvalue-minimisations  :  7168
 total energy-change (2. order) : 0.1865702E+04  (-0.3594579E+05)
 number of electron     672.0000000 magnetization      48.0000000
 augmentation part      672.0000000 magnetization      48.0000000

 Free energy of the ion-electron system (eV)
  ---------------------------------------------------
  alpha Z        PSCENC =      2652.81237852
  Ewald energy   TEWEN  =    -41876.85068668
  -Hartree energ DENC   =    -25735.76597027
  -exchange      EXHF   =         0.00000000
  -V(xc)+E(xc)   XCENC  =      3606.01755212
  PAW double counting   =     55594.23204139   -59034.67079123
  entropy T*S    EENTRO =        -0.05015456
  eigenvalues    EBANDS =     -7202.22040309
  atomic energy  EATOM  =     73862.19814772
  Solvation  Ediel_sol  =         0.00000000
  ---------------------------------------------------
  free energy    TOTEN  =      1865.70211391 eV

  energy without entropy =     1865.75226848  energy(sigma->0) =     1865.72719120


--------------------------------------------------------------------------------------------------------




--------------------------------------- Iteration      1(   2)  ---------------------------------------


    EDDIAG:  cpu time    3.8200: real time    3.8255
  RMM-DIIS:  cpu time    6.8472: real time    6.8508
    ORTHCH:  cpu time    1.1666: real time    1.1697
       DOS:  cpu time    0.0015: real time    0.0015
    --------------------------------------------
      LOOP:  cpu time   11.8353: real time   11.8475

 eigenvalue-minimisations  :  7168
 total energy-change (2. order) :-0.2707264E+04  (-0.8680422E+04)
 number of electron     672.0000000 magnetization      48.0000000
 augmentation part      672.0000000 magnetization      48.0000000

 Free energy of the ion-electron system (eV)
  ---------------------------------------------------
  alpha Z        PSCENC =      2652.81237852
  Ewald energy   TEWEN  =    -41876.85068668
  -Hartree energ DENC   =    -25735.76597027
  -exchange      EXHF   =         0.00000000
  -V(xc)+E(xc)   XCENC  =      3606.01755212
  PAW double counting   =     55594.23204139   -59034.67079123
  entropy T*S    EENTRO =        -0.06085985
  eigenvalues    EBANDS =     -9909.47387664
  atomic energy  EATOM  =     73862.19814772
  Solvation  Ediel_sol  =         0.00000000
  ---------------------------------------------------
  free energy    TOTEN  =      -841.56206492 eV

  energy without entropy =     -841.50120508  energy(sigma->0) =     -841.53163500


--------------------------------------------------------------------------------------------------------




--------------------------------------- Iteration      1(   3)  ---------------------------------------


    EDDIAG:  cpu time    3.8704: real time    3.8758
  RMM-DIIS:  cpu time    6.8535: real time    6.8578
    ORTHCH:  cpu time    1.1757: real time    1.1783
       DOS:  cpu time    0.0015: real time    0.0015
    --------------------------------------------
      LOOP:  cpu time   11.9012: real time   11.9135

 eigenvalue-minimisations  :  7168
 total energy-change (2. order) : 0.3067633E+03  (-0.1561626E+04)
 number of electron     672.0000000 magnetization      48.0000000
 augmentation part      672.0000000 magnetization      48.0000000

 Free energy of the ion-electron system (eV)
  ---------------------------------------------------
  alpha Z        PSCENC =      2652.81237852
  Ewald energy   TEWEN  =    -41876.85068668
  -Hartree energ DENC   =    -25735.76597027
  -exchange      EXHF   =         0.00000000
  -V(xc)+E(xc)   XCENC  =      3606.01755212
  PAW double counting   =     55594.23204139   -59034.67079123
  entropy T*S    EENTRO =        -0.04483563
  eigenvalues    EBANDS =     -9602.72664725
  atomic energy  EATOM  =     73862.19814772
  Solvation  Ediel_sol  =         0.00000000
  ---------------------------------------------------
  free energy    TOTEN  =      -534.79881132 eV

  energy without entropy =     -534.75397569  energy(sigma->0) =     -534.77639351


--------------------------------------------------------------------------------------------------------




--------------------------------------- Iteration      1(   4)  ---------------------------------------


    EDDIAG:  cpu time    3.8514: real time    3.8560
  RMM-DIIS:  cpu time    6.8153: real time    6.8386
    ORTHCH:  cpu time    1.1694: real time    1.1716
       DOS:  cpu time    0.0013: real time    0.0013
    --------------------------------------------
      LOOP:  cpu time   11.8374: real time   11.8675

 eigenvalue-minimisations  :  7168
 total energy-change (2. order) :-0.5232304E+03  (-0.5081039E+03)
 number of electron     672.0000000 magnetization      48.0000000
 augmentation part      672.0000000 magnetization      48.0000000

 Free energy of the ion-electron system (eV)
  ---------------------------------------------------
  alpha Z        PSCENC =      2652.81237852
  Ewald energy   TEWEN  =    -41876.85068668
  -Hartree energ DENC   =    -25735.76597027
  -exchange      EXHF   =         0.00000000
  -V(xc)+E(xc)   XCENC  =      3606.01755212
  PAW double counting   =     55594.23204139   -59034.67079123
  entropy T*S    EENTRO =        -0.00380363
  eigenvalues    EBANDS =    -10125.99811656
  atomic energy  EATOM  =     73862.19814772
  Solvation  Ediel_sol  =         0.00000000
  ---------------------------------------------------
  free energy    TOTEN  =     -1058.02924862 eV

  energy without entropy =    -1058.02544500  energy(sigma->0) =    -1058.02734681


--------------------------------------------------------------------------------------------------------




--------------------------------------- Iteration      1(   5)  ---------------------------------------


    EDDIAG:  cpu time    3.8816: real time    3.8844
  RMM-DIIS:  cpu time    6.8666: real time    6.8715
    ORTHCH:  cpu time    1.1698: real time    1.1722
       DOS:  cpu time    0.0012: real time    0.0012
    --------------------------------------------
      LOOP:  cpu time   11.9192: real time   11.9293

 eigenvalue-minimisations  :  7168
 total energy-change (2. order) :-0.1473790E+03  (-0.2130264E+03)
 number of electron     672.0000000 magnetization      48.0000000
 augmentation part      672.0000000 magnetization      48.0000000

 Free energy of the ion-electron system (eV)
  ---------------------------------------------------
  alpha Z        PSCENC =      2652.81237852
  Ewald energy   TEWEN  =    -41876.85068668
  -Hartree energ DENC   =    -25735.76597027
  -exchange      EXHF   =         0.00000000
  -V(xc)+E(xc)   XCENC  =      3606.01755212
  PAW double counting   =     55594.23204139   -59034.67079123
  entropy T*S    EENTRO =        -0.00000000
  eigenvalues    EBANDS =    -10273.38089778
  atomic energy  EATOM  =     73862.19814772
  Solvation  Ediel_sol  =         0.00000000
  ---------------------------------------------------
  free energy    TOTEN  =     -1205.40822622 eV

  energy without entropy =    -1205.40822622  energy(sigma->0) =    -1205.40822622


--------------------------------------------------------------------------------------------------------




--------------------------------------- Iteration      1(   6)  ---------------------------------------


    EDDIAG:  cpu time    3.8734: real time    3.8774
  RMM-DIIS:  cpu time    6.8325: real time    6.8376
    ORTHCH:  cpu time    1.1778: real time    1.1816
       DOS:  cpu time    0.0012: real time    0.0012
    --------------------------------------------
      LOOP:  cpu time   11.8849: real time   11.8978

 eigenvalue-minimisations  :  7168
 total energy-change (2. order) :-0.2140691E+02  (-0.1156027E+03)
 number of electron     672.0000000 magnetization      48.0000000
 augmentation part      672.0000000 magnetization      48.0000000

 Free energy of the ion-electron system (eV)
  ---------------------------------------------------
  alpha Z        PSCENC =      2652.81237852
  Ewald energy   TEWEN  =    -41876.85068668
  -Hartree energ DENC   =    -25735.76597027
  -exchange      EXHF   =         0.00000000
  -V(xc)+E(xc)   XCENC  =      3606.01755212
  PAW double counting   =     55594.23204139   -59034.67079123
  entropy T*S    EENTRO =        -0.00000000
  eigenvalues    EBANDS =    -10294.78781049
  atomic energy  EATOM  =     73862.19814772
  Solvation  Ediel_sol  =         0.00000000
  ---------------------------------------------------
  free energy    TOTEN  =     -1226.81513893 eV

  energy without entropy =    -1226.81513893  energy(sigma->0) =    -1226.81513893


--------------------------------------------------------------------------------------------------------




--------------------------------------- Iteration      1(   7)  ---------------------------------------


    EDDIAG:  cpu time    3.8672: real time    3.8910
  RMM-DIIS:  cpu time    6.8362: real time    6.8488
    ORTHCH:  cpu time    1.1660: real time    1.1700
       DOS:  cpu time    0.0012: real time    0.0012
    --------------------------------------------
      LOOP:  cpu time   11.8706: real time   11.9111

 eigenvalue-minimisations  :  7168
 total energy-change (2. order) :-0.6625584E+01  (-0.7637440E+02)
 number of electron     672.0000000 magnetization      48.0000000
 augmentation part      672.0000000 magnetization      48.0000000

 Free energy of the ion-electron system (eV)
  ---------------------------------------------------
  alpha Z        PSCENC =      2652.81237852
  Ewald energy   TEWEN  =    -41876.85068668
  -Hartree energ DENC   =    -25735.76597027
  -exchange      EXHF   =         0.00000000
  -V(xc)+E(xc)   XCENC  =      3606.01755212
  PAW double counting   =     55594.23204139   -59034.67079123
  entropy T*S    EENTRO =        -0.00000000
  eigenvalues    EBANDS =    -10301.41339446
  atomic energy  EATOM  =     73862.19814772
  Solvation  Ediel_sol  =         0.00000000
  ---------------------------------------------------
  free energy    TOTEN  =     -1233.44072290 eV

  energy without entropy =    -1233.44072290  energy(sigma->0) =    -1233.44072290


--------------------------------------------------------------------------------------------------------




--------------------------------------- Iteration      1(   8)  ---------------------------------------


    EDDIAG:  cpu time    3.8435: real time    3.8523
  RMM-DIIS:  cpu time    6.8789: real time    6.8923
    ORTHCH:  cpu time    1.1811: real time    1.1847
       DOS:  cpu time    0.0011: real time    0.0011
    --------------------------------------------
      LOOP:  cpu time   11.9046: real time   11.9305

 eigenvalue-minimisations  :  7168
 total energy-change (2. order) : 0.4701325E+01  (-0.5295225E+02)
 number of electron     672.0000000 magnetization      48.0000000
 augmentation part      672.0000000 magnetization      48.0000000

 Free energy of the ion-electron system (eV)
  ---------------------------------------------------
  alpha Z        PSCENC =      2652.81237852
  Ewald energy   TEWEN  =    -41876.85068668
  -Hartree energ DENC   =    -25735.76597027
  -exchange      EXHF   =         0.00000000
  -V(xc)+E(xc)   XCENC  =      3606.01755212
  PAW double counting   =     55594.23204139   -59034.67079123
  entropy T*S    EENTRO =        -0.00000000
  eigenvalues    EBANDS =    -10296.71206930
  atomic energy  EATOM  =     73862.19814772
  Solvation  Ediel_sol  =         0.00000000
  ---------------------------------------------------
  free energy    TOTEN  =     -1228.73939774 eV

  energy without entropy =    -1228.73939774  energy(sigma->0) =    -1228.73939774


--------------------------------------------------------------------------------------------------------




--------------------------------------- Iteration      1(   9)  ---------------------------------------


    EDDIAG:  cpu time    3.8209: real time    3.8287
  RMM-DIIS:  cpu time   14.1365: real time   14.1926
    ORTHCH:  cpu time    1.1683: real time    1.1721
       DOS:  cpu time    0.0010: real time    0.0010
    --------------------------------------------
      LOOP:  cpu time   19.1268: real time   19.1945

 eigenvalue-minimisations  : 20228
 total energy-change (2. order) : 0.1814461E+02  (-0.2374128E+02)
 number of electron     672.0000000 magnetization      48.0000000
 augmentation part      672.0000000 magnetization      48.0000000

 Free energy of the ion-electron system (eV)
  ---------------------------------------------------
  alpha Z        PSCENC =      2652.81237852
  Ewald energy   TEWEN  =    -41876.85068668
  -Hartree energ DENC   =    -25735.76597027
  -exchange      EXHF   =         0.00000000
  -V(xc)+E(xc)   XCENC  =      3606.01755212
  PAW double counting   =     55594.23204139   -59034.67079123
  entropy T*S    EENTRO =        -0.00000000
  eigenvalues    EBANDS =    -10278.56746350
  atomic energy  EATOM  =     73862.19814772
  Solvation  Ediel_sol  =         0.00000000
  ---------------------------------------------------
  free energy    TOTEN  =     -1210.59479193 eV

  energy without entropy =    -1210.59479193  energy(sigma->0) =    -1210.59479193


--------------------------------------------------------------------------------------------------------




--------------------------------------- Iteration      1(  10)  ---------------------------------------


    EDDIAG:  cpu time    3.8348: real time    3.8434
  RMM-DIIS:  cpu time   15.8715: real time   15.9024
    ORTHCH:  cpu time    1.1824: real time    1.1848
       DOS:  cpu time    0.0011: real time    0.0011
    --------------------------------------------
      LOOP:  cpu time   20.8899: real time   20.9317

 eigenvalue-minimisations  : 20240
 total energy-change (2. order) :-0.3104918E+01  (-0.1041319E+01)
 number of electron     672.0000000 magnetization      48.0000000
 augmentation part      672.0000000 magnetization      48.0000000

 Free energy of the ion-electron system (eV)
  ---------------------------------------------------
  alpha Z        PSCENC =      2652.81237852
  Ewald energy   TEWEN  =    -41876.85068668
  -Hartree energ DENC   =    -25735.76597027
  -exchange      EXHF   =         0.00000000
  -V(xc)+E(xc)   XCENC  =      3606.01755212
  PAW double counting   =     55594.23204139   -59034.67079123
  entropy T*S    EENTRO =        -0.00000001
  eigenvalues    EBANDS =    -10281.67238121
  atomic energy  EATOM  =     73862.19814772
  Solvation  Ediel_sol  =         0.00000000
  ---------------------------------------------------
  free energy    TOTEN  =     -1213.69970965 eV

  energy without entropy =    -1213.69970964  energy(sigma->0) =    -1213.69970965


--------------------------------------------------------------------------------------------------------




--------------------------------------- Iteration      1(  11)  ---------------------------------------


    EDDIAG:  cpu time    3.8250: real time    3.8295
  RMM-DIIS:  cpu time   15.3430: real time   15.3504
    ORTHCH:  cpu time    1.1713: real time    1.1742
       DOS:  cpu time    0.0011: real time    0.0011
    --------------------------------------------
      LOOP:  cpu time   20.3404: real time   20.3552

 eigenvalue-minimisations  : 21695
 total energy-change (2. order) : 0.1055971E+00  (-0.9739461E-01)
 number of electron     672.0000000 magnetization      48.0000000
 augmentation part      672.0000000 magnetization      48.0000000

 Free energy of the ion-electron system (eV)
  ---------------------------------------------------
  alpha Z        PSCENC =      2652.81237852
  Ewald energy   TEWEN  =    -41876.85068668
  -Hartree energ DENC   =    -25735.76597027
  -exchange      EXHF   =         0.00000000
  -V(xc)+E(xc)   XCENC  =      3606.01755212
  PAW double counting   =     55594.23204139   -59034.67079123
  entropy T*S    EENTRO =        -0.00000001
  eigenvalues    EBANDS =    -10281.56678407
  atomic energy  EATOM  =     73862.19814772
  Solvation  Ediel_sol  =         0.00000000
  ---------------------------------------------------
  free energy    TOTEN  =     -1213.59411251 eV

  energy without entropy =    -1213.59411250  energy(sigma->0) =    -1213.59411251


--------------------------------------------------------------------------------------------------------




--------------------------------------- Iteration      1(  12)  ---------------------------------------


    EDDIAG:  cpu time    3.8133: real time    3.8161
  RMM-DIIS:  cpu time   16.2223: real time   16.2578
    ORTHCH:  cpu time    1.1716: real time    1.1739
       DOS:  cpu time    0.0014: real time    0.0013
    CHARGE:  cpu time    1.4059: real time    1.4065
    MIXING:  cpu time    0.0012: real time    0.0015
    --------------------------------------------
      LOOP:  cpu time   22.6155: real time   22.6571

 eigenvalue-minimisations  : 22781
 total energy-change (2. order) : 0.6318475E-02  (-0.7112820E-02)
 number of electron     671.9999633 magnetization      47.9999998
 augmentation part      239.1067902 magnetization      29.0497273

 Broyden mixing:
  rms(total) = 0.12623E+02    rms(broyden)= 0.12614E+02
  rms(prec ) = 0.14465E+02
  weight for this iteration     100.00

 Free energy of the ion-electron system (eV)
  ---------------------------------------------------
  alpha Z        PSCENC =      2652.81237852
  Ewald energy   TEWEN  =    -41876.85068668
  -Hartree energ DENC   =    -25735.76597027
  -exchange      EXHF   =         0.00000000
  -V(xc)+E(xc)   XCENC  =      3606.01755212
  PAW double counting   =     55594.23204139   -59034.67079123
  entropy T*S    EENTRO =        -0.00000001
  eigenvalues    EBANDS =    -10281.56046559
  atomic energy  EATOM  =     73862.19814772
  Solvation  Ediel_sol  =         0.00000000
  ---------------------------------------------------
  free energy    TOTEN  =     -1213.58779404 eV

  energy without entropy =    -1213.58779403  energy(sigma->0) =    -1213.58779403


--------------------------------------------------------------------------------------------------------




--------------------------------------- Iteration      1(  13)  ---------------------------------------


    POTLOK:  cpu time    0.1969: real time    0.1978
    SETDIJ:  cpu time    3.3076: real time    3.3082
    EDDIAG:  cpu time    3.8993: real time    3.9020
  RMM-DIIS:  cpu time   13.3278: real time   13.3745
    ORTHCH:  cpu time    1.1767: real time    1.1792
       DOS:  cpu time    0.0020: real time    0.0020
    CHARGE:  cpu time    1.4041: real time    1.4043
    MIXING:  cpu time    0.0008: real time    0.0009
    --------------------------------------------
      LOOP:  cpu time   23.3153: real time   23.3689

 eigenvalue-minimisations  : 17329
 total energy-change (2. order) : 0.2244868E+03  (-0.1381529E+03)
 number of electron     671.9999760 magnetization      47.9999989
 augmentation part      268.7348052 magnetization      26.7334760

 Broyden mixing:
  rms(total) = 0.13909E+02    rms(broyden)= 0.13906E+02
  rms(prec ) = 0.15625E+02
  weight for this iteration     100.00

 eigenvalues of (default mixing * dielectric matrix)
  average eigenvalue GAMMA=   0.3184
  0.3184

 Free energy of the ion-electron system (eV)
  ---------------------------------------------------
  alpha Z        PSCENC =      2652.81237852
  Ewald energy   TEWEN  =    -41876.85068668
  -Hartree energ DENC   =    -25066.69182721
  -exchange      EXHF   =         0.00000000
  -V(xc)+E(xc)   XCENC  =      3696.55771522
  PAW double counting   =     59936.41834423   -63361.82654145
  entropy T*S    EENTRO =        -0.07963162
  eigenvalues    EBANDS =    -10831.63894263
  atomic energy  EATOM  =     73862.19814772
  Solvation  Ediel_sol  =         0.00000000
  ---------------------------------------------------
  free energy    TOTEN  =      -989.10104389 eV

  energy without entropy =     -989.02141228  energy(sigma->0) =     -989.06122808


--------------------------------------------------------------------------------------------------------




--------------------------------------- Iteration      1(  14)  ---------------------------------------


    POTLOK:  cpu time    0.2100: real time    0.2102
    SETDIJ:  cpu time    3.2996: real time    3.3014
    EDDIAG:  cpu time    3.8591: real time    3.8614
  RMM-DIIS:  cpu time   13.8043: real time   13.8231
    ORTHCH:  cpu time    1.1812: real time    1.1837
       DOS:  cpu time    0.0010: real time    0.0010
    CHARGE:  cpu time    1.4056: real time    1.4061
    MIXING:  cpu time    0.0007: real time    0.0007
    --------------------------------------------
      LOOP:  cpu time   23.7615: real time   23.7877

 eigenvalue-minimisations  : 17803
 total energy-change (2. order) : 0.7456704E+02  (-0.1829668E+02)
 number of electron     671.9999683 magnetization      47.9999984
 augmentation part      246.7539885 magnetization      32.2118849

 Broyden mixing:
  rms(total) = 0.52761E+01    rms(broyden)= 0.52719E+01
  rms(prec ) = 0.56870E+01
  weight for this iteration     100.00

 eigenvalues of (default mixing * dielectric matrix)
  average eigenvalue GAMMA=   0.7310
  1.1010  0.3609

 Free energy of the ion-electron system (eV)
  ---------------------------------------------------
  alpha Z        PSCENC =      2652.81237852
  Ewald energy   TEWEN  =    -41876.85068668
  -Hartree energ DENC   =    -25672.15724536
  -exchange      EXHF   =         0.00000000
  -V(xc)+E(xc)   XCENC  =      3674.51870745
  PAW double counting   =     63358.09604450   -66840.45524485
  entropy T*S    EENTRO =        -0.00000000
  eigenvalues    EBANDS =    -10072.69610544
  atomic energy  EATOM  =     73862.19814772
  Solvation  Ediel_sol  =         0.00000000
  ---------------------------------------------------
  free energy    TOTEN  =      -914.53400415 eV

  energy without entropy =     -914.53400415  energy(sigma->0) =     -914.53400415


--------------------------------------------------------------------------------------------------------




--------------------------------------- Iteration      1(  15)  ---------------------------------------


    POTLOK:  cpu time    0.2061: real time    0.2077
    SETDIJ:  cpu time    3.3026: real time    3.3033
    EDDIAG:  cpu time    3.8470: real time    3.8614
  RMM-DIIS:  cpu time   13.7197: real time   13.7273
    ORTHCH:  cpu time    1.1781: real time    1.1805
       DOS:  cpu time    0.0010: real time    0.0010
    CHARGE:  cpu time    1.4015: real time    1.4028
    MIXING:  cpu time    0.0007: real time    0.0007
    --------------------------------------------
      LOOP:  cpu time   23.6568: real time   23.6847

 eigenvalue-minimisations  : 18363
 total energy-change (2. order) : 0.1319036E+02  (-0.2141085E+01)
 number of electron     671.9999697 magnetization      47.9999981
 augmentation part      249.6423964 magnetization      33.7827654

 Broyden mixing:
  rms(total) = 0.22485E+01    rms(broyden)= 0.22482E+01
  rms(prec ) = 0.23396E+01
  weight for this iteration     100.00

 eigenvalues of (default mixing * dielectric matrix)
  average eigenvalue GAMMA=   0.9248
  1.6553  0.3891  0.7301

 Free energy of the ion-electron system (eV)
  ---------------------------------------------------
  alpha Z        PSCENC =      2652.81237852
  Ewald energy   TEWEN  =    -41876.85068668
  -Hartree energ DENC   =    -25598.21615301
  -exchange      EXHF   =         0.00000000
  -V(xc)+E(xc)   XCENC  =      3706.49801914
  PAW double counting   =     67452.30576551   -70975.36637999
  entropy T*S    EENTRO =        -0.00000000
  eigenvalues    EBANDS =    -10124.72473181
  atomic energy  EATOM  =     73862.19814772
  Solvation  Ediel_sol  =         0.00000000
  ---------------------------------------------------
  free energy    TOTEN  =      -901.34364059 eV

  energy without entropy =     -901.34364059  energy(sigma->0) =     -901.34364059


--------------------------------------------------------------------------------------------------------




--------------------------------------- Iteration      1(  16)  ---------------------------------------


    POTLOK:  cpu time    0.2079: real time    0.2096
    SETDIJ:  cpu time    3.3128: real time    3.3392
    EDDIAG:  cpu time    3.8238: real time    3.8264
  RMM-DIIS:  cpu time   13.7142: real time   13.7219
    ORTHCH:  cpu time    1.1747: real time    1.1769
       DOS:  cpu time    0.0010: real time    0.0010
    CHARGE:  cpu time    1.4036: real time    1.4041
    MIXING:  cpu time    0.0009: real time    0.0009
    --------------------------------------------
      LOOP:  cpu time   23.6390: real time   23.6801

 eigenvalue-minimisations  : 17580
 total energy-change (2. order) :-0.1244106E+01  (-0.7254147E+00)
 number of electron     671.9999701 magnetization      47.9999981
 augmentation part      251.0474447 magnetization      33.8745937

 Broyden mixing:
  rms(total) = 0.14832E+01    rms(broyden)= 0.14828E+01
  rms(prec ) = 0.15632E+01
  weight for this iteration     100.00

 eigenvalues of (default mixing * dielectric matrix)
  average eigenvalue GAMMA=   0.9670
  2.0789  0.8872  0.3954  0.5064

 Free energy of the ion-electron system (eV)
  ---------------------------------------------------
  alpha Z        PSCENC =      2652.81237852
  Ewald energy   TEWEN  =    -41876.85068668
  -Hartree energ DENC   =    -25550.81755326
  -exchange      EXHF   =         0.00000000
  -V(xc)+E(xc)   XCENC  =      3707.79735136
  PAW double counting   =     70341.80064843   -73893.92373691
  entropy T*S    EENTRO =        -0.00000000
  eigenvalues    EBANDS =    -10145.60429534
  atomic energy  EATOM  =     73862.19814772
  Solvation  Ediel_sol  =         0.00000000
  ---------------------------------------------------
  free energy    TOTEN  =      -902.58774616 eV

  energy without entropy =     -902.58774616  energy(sigma->0) =     -902.58774616


--------------------------------------------------------------------------------------------------------




--------------------------------------- Iteration      1(  17)  ---------------------------------------


    POTLOK:  cpu time    0.2115: real time    0.2116
    SETDIJ:  cpu time    3.3442: real time    3.3449
    EDDIAG:  cpu time    3.8340: real time    3.8388
  RMM-DIIS:  cpu time   14.1837: real time   14.2597
    ORTHCH:  cpu time    1.1694: real time    1.1725
       DOS:  cpu time    0.0010: real time    0.0010
    CHARGE:  cpu time    1.4021: real time    1.4026
    MIXING:  cpu time    0.0016: real time    0.0016
    --------------------------------------------
      LOOP:  cpu time   24.1476: real time   24.2328

 eigenvalue-minimisations  : 18451
 total energy-change (2. order) : 0.1028486E+00  (-0.8804208E-01)
 number of electron     671.9999703 magnetization      47.9999981
 augmentation part      251.0825026 magnetization      33.8702731

 Broyden mixing:
  rms(total) = 0.76868E+00    rms(broyden)= 0.76851E+00
  rms(prec ) = 0.86690E+00
  weight for this iteration     100.00

 eigenvalues of (default mixing * dielectric matrix)
  average eigenvalue GAMMA=   0.9885
  2.2284  1.1004  0.3833  0.6833  0.5472

 Free energy of the ion-electron system (eV)
  ---------------------------------------------------
  alpha Z        PSCENC =      2652.81237852
  Ewald energy   TEWEN  =    -41876.85068668
  -Hartree energ DENC   =    -25540.04899045
  -exchange      EXHF   =         0.00000000
  -V(xc)+E(xc)   XCENC  =      3705.35153582
  PAW double counting   =     71291.91410598   -74853.22845241
  entropy T*S    EENTRO =        -0.00000000
  eigenvalues    EBANDS =    -10144.63293607
  atomic energy  EATOM  =     73862.19814772
  Solvation  Ediel_sol  =         0.00000000
  ---------------------------------------------------
  free energy    TOTEN  =      -902.48489756 eV

  energy without entropy =     -902.48489756  energy(sigma->0) =     -902.48489756


--------------------------------------------------------------------------------------------------------




--------------------------------------- Iteration      1(  18)  ---------------------------------------


    POTLOK:  cpu time    0.2021: real time    0.2035
    SETDIJ:  cpu time    3.3294: real time    3.3303
    EDDIAG:  cpu time    3.8903: real time    3.8925
  RMM-DIIS:  cpu time   13.5768: real time   13.6003
    ORTHCH:  cpu time    1.1861: real time    1.1886
       DOS:  cpu time    0.0013: real time    0.0013
    CHARGE:  cpu time    1.4063: real time    1.4066
    MIXING:  cpu time    0.0011: real time    0.0011
    --------------------------------------------
      LOOP:  cpu time   23.5933: real time   23.6241

 eigenvalue-minimisations  : 17770
 total energy-change (2. order) : 0.4014465E+00  (-0.7074289E-01)
 number of electron     671.9999699 magnetization      47.9999982
 augmentation part      250.5965687 magnetization      33.8377240

 Broyden mixing:
  rms(total) = 0.28269E+00    rms(broyden)= 0.28244E+00
  rms(prec ) = 0.29911E+00
  weight for this iteration     100.00

 eigenvalues of (default mixing * dielectric matrix)
[...]
   4      -0.838    -0.688     1.526     0.074     0.440    -0.154
   5      -1.001    -0.865     1.866     0.026     0.008     0.036
   6      -0.630    -0.848     1.479     0.071    -0.042    -0.484
   7      -0.848    -0.691     1.539    -0.107    -0.429    -0.197
   8      -0.932    -0.900     1.832    -0.013    -0.078     0.038
   9      -0.852    -0.717     1.568     0.089    -0.389     0.308
  10      -0.843    -0.587     1.431     0.132    -0.339     0.194
  11      -0.779    -0.690     1.469    -0.083     0.451     0.169
  12      -0.843    -0.824     1.667    -0.141    -0.367    -0.246
  13      -0.709    -0.705     1.414     0.160     0.356    -0.104
  14      -0.648    -0.860     1.508     0.000    -0.009     0.521
  15      -0.803    -0.686     1.489    -0.103     0.382     0.282
  16      -0.980    -0.948     1.928     0.014     0.099    -0.118
  17       1.386     1.463    -2.848     0.065     0.039     0.060
  18       1.411     1.501    -2.912    -0.016    -0.098    -0.072
  19       1.543     1.278    -2.821     0.001     0.004     0.137
  20       1.308     1.584    -2.892     0.066     0.084    -0.048
  21       1.671     1.212    -2.883     0.057     0.041    -0.045
  22       1.261     1.617    -2.877     0.135     0.034     0.061
  23       1.385     1.586    -2.970     0.172    -0.046     0.034
  24       1.539     1.376    -2.915    -0.001    -0.058    -0.017
  25      -0.660     0.002     0.658    -0.082     0.366     0.248
  26      -0.816     1.908    -1.092     1.625     0.896    -0.417
  27      -2.430     0.946     1.484    -1.209     2.216    -0.700
  28       0.618    -0.913     0.295     0.967    -0.373    -0.488
  29       0.350    -0.437     0.088     0.515     0.514    -0.233
  30       0.203    -0.897     0.694     0.260     0.281    -0.161
  31      -0.425     0.409     0.016    -0.153    -1.068    -0.420
  32      -1.296     1.407    -0.111     0.249    -0.027    -0.503
  33       0.412    -0.958     0.546     0.514     0.346     0.628
  34      -0.130    -0.411     0.541    -0.782    -0.702     0.262
  35       1.530    -1.366    -0.164    -0.096    -1.551     0.163
  36      -1.474     0.914     0.561    -0.773     0.502    -0.947
  37       1.043     0.212    -1.254    -0.045    -0.435     0.865
  38       1.262    -0.544    -0.718     0.796     0.567     0.934
  39      -0.727     1.234    -0.507     1.126     1.132     0.685
  40       1.392     0.050    -1.443    -0.213    -0.614     0.821
  41      -1.991     2.058    -0.066    -6.459     2.396    -3.818
  42      -3.997     3.763     0.234     5.597     3.159     4.248
  43       7.326    -4.872    -2.454    -0.367    -2.682    -1.774
  44      -5.628     1.548     4.080     3.151    -3.282    -4.284
  45      -3.777     3.463     0.314    -5.230    -3.635     2.825
  46       7.245    -6.012    -1.233    -0.237     4.826    -0.037
  47      -2.323     1.976     0.347    -5.080     4.291    -2.957
  48       5.680    -5.774     0.094     1.713    -3.887     0.586
  49      -3.883     3.286     0.598     6.463     2.830     4.620
  50       4.642    -4.613    -0.028     2.958     4.382    -2.501
  51      -2.373     1.658     0.715    -5.025    -4.485     2.916
  52      -3.613     2.031     1.582     4.688    -4.726    -3.222
  53      -2.731     2.695     0.036    -4.562     1.534    -3.256
  54      -4.264     2.071     2.193     4.742     2.756     4.331
  55       5.725    -5.878     0.153     1.521    -3.831    -0.511
  56      -1.944     1.541     0.403     6.108    -2.121    -4.265
  57      -2.417     4.084    -1.667    -5.248     0.687     5.101
  58       5.318    -6.026     0.708    -0.700     4.128     1.933
  59      -1.880     1.890    -0.010    -5.856     0.806    -2.836
  60       4.317    -6.645     2.328     1.079    -5.302    -0.784
  61      -3.641     3.038     0.603     4.735     3.345     3.758
  62       3.720    -5.422     1.702     0.035     5.822     0.116
  63      -3.919     4.812    -0.893    -4.029    -3.533     3.488
  64      -3.295     2.425     0.870     6.047    -1.466    -4.123
  65      -3.293     1.480     1.813    -5.365     1.900    -4.225
  66      -3.329     1.526     1.803     4.384     1.983     3.331
  67       4.913    -6.247     1.335    -0.585    -5.590    -0.236
  68      -1.196    -0.482     1.677     5.063    -2.687    -4.644
  69      -2.214     1.316     0.898    -7.061     0.228     4.992
  70       3.581    -4.793     1.211    -2.775     5.194     0.774
  71      -3.978     1.971     2.007    -3.751     4.226    -4.082
  72       5.542    -5.247    -0.295     0.117    -3.791     0.898
  73      -2.409     3.559    -1.150     5.476     2.217     3.197
  74       6.651    -5.766    -0.885    -0.896     3.848     2.761
  75      -4.384     1.874     2.510    -2.398    -2.209     4.546
  76      -2.886     3.197    -0.312     4.936    -0.525    -5.067
  77      -2.296     3.373    -1.077    -5.050     0.732    -2.017
  78      -2.369     2.685    -0.315     4.466     2.292     4.623
  79       6.155    -6.622     0.467    -0.432    -5.453    -1.683
  80      -2.584     1.557     1.027     2.657    -3.041    -3.913
  81      -2.731     2.037     0.694    -4.286    -3.376     3.392
  82       7.390    -6.362    -1.028     1.032     3.722    -1.237
  83      -3.157     4.111    -0.954    -3.802     2.393    -2.086
  84       5.851    -6.652     0.801     1.873    -4.207    -0.856
  85      -3.437     1.255     2.182     6.668     1.900     4.735
  86       5.432    -4.973    -0.459    -0.432     3.583    -3.276
  87      -2.669     2.140     0.529    -5.763    -1.947     4.430
  88      -3.839     2.443     1.396     5.825    -3.663    -4.495
 ---------------------------------------------------------------------


 Total hyperfine coupling parameters after diagonalization (MHz)
 (convention: |A_zz| > |A_xx| > |A_yy|)
 ----------------------------------------------------------------------
  ion      A_xx      A_yy      A_zz     asymmetry (A_yy - A_xx)/ A_zz 
 ----------------------------------------------------------------------
   1       1.798     1.415     3.907      -0.098
   2       1.373     0.977     3.264      -0.121
   3       0.108    -0.018     2.870      -0.044
   4       1.910     1.612     4.182      -0.071
   5      -0.381    -0.236     2.491       0.058
   6       2.040     1.704     4.237      -0.079
   7       2.175     1.821     4.439      -0.080
   8       0.286     0.243     3.016      -0.014
   9       2.407     2.094     4.747      -0.066
  10       1.623     1.194     3.650      -0.118
  11       2.313     2.033     4.522      -0.062
  12       2.834     2.482     5.267      -0.067
  13       1.421     1.066     3.455      -0.103
  14       2.815     2.493     5.080      -0.063
  15       2.358     2.030     4.566      -0.072
  16       0.043    -0.004     2.923      -0.016
  17      13.920     9.722    14.072      -0.298
  18      13.500     9.174    13.594      -0.318
  19      13.079     8.970    13.339      -0.308
  20      14.051     9.861    14.355      -0.292
  21      14.780    10.690    15.252      -0.268
  22      13.491     9.398    13.939      -0.294
  23      15.747    11.490    16.145      -0.264
  24      14.484    10.191    14.647      -0.293
  25      99.071    98.321    99.916      -0.008
  26      98.254    96.221   101.237      -0.020
  27      98.042    93.985   100.676      -0.040
  28      97.965    96.480    99.280      -0.015
  29      93.990    93.002    94.720      -0.010
  30      92.404    91.258    93.064      -0.012
  31     100.718    98.949   101.315      -0.017
  32      96.806    95.747    98.646      -0.011
  33      97.874    96.477    98.893      -0.014
  34      96.977    96.007    98.371      -0.010
  35      94.896    94.553    98.411      -0.003
  36      93.444    91.937    95.610      -0.016
  37      93.280    91.046    93.935      -0.024
  38      94.931    93.650    97.094      -0.013
  39      93.639    92.226    96.252      -0.015
  40      94.486    92.354    95.851      -0.022
  41       5.023     0.535    16.319      -0.275
  42       4.991     0.496    17.173      -0.262
  43       6.521     2.509    16.536      -0.243
  44       4.690    -0.809    15.000      -0.367
  45       5.026    -0.770    14.778      -0.392
  46       5.864     3.263    18.713      -0.139
  47       6.429     1.849    16.681      -0.275
  48       7.755     2.996    17.063      -0.279
  49       7.890     2.670    20.520      -0.254
  50       5.953    -1.624    13.292      -0.570
  51       7.415     2.580    17.545      -0.276
  52       6.821     1.005    16.884      -0.344
  53       4.532     0.956    13.411      -0.267
  54       8.373     3.392    18.875      -0.264
  55       5.492     1.204    15.137      -0.283
  56       4.439    -0.171    15.307      -0.301
  57       7.199     1.115    17.282      -0.352
  58       8.227     2.310    16.895      -0.350
  59       5.955     0.524    14.078      -0.386
  60       3.964    -0.726    14.867      -0.315
  61       4.437     0.163    15.097      -0.283
  62       5.014     2.785    16.830      -0.132
  63       6.349     1.949    17.075      -0.258
  64       7.495     1.593    17.477      -0.338
  65       5.182    -0.279    14.815      -0.369
  66       4.211    -0.615    12.299      -0.392
  67       5.330     1.662    16.997      -0.216
  68       6.202     2.203    16.771      -0.238
  69       8.103    -0.920    16.806      -0.537
  70       5.737     0.664    15.134      -0.335
  71       3.620    -0.833    14.299      -0.311
  72       7.163     3.628    16.517      -0.214
  73       4.366     1.389    15.464      -0.192
  74       6.718     0.074    15.805      -0.420
  75       3.945     1.009    13.921      -0.211
  76       3.238    -1.335    13.726      -0.333
  77       5.896     2.202    14.383      -0.257
  78       4.609     2.898    16.279      -0.105
  79       3.535    -1.513    15.226      -0.332
  80       2.579     0.766    12.047      -0.151
  81       4.687     1.185    14.457      -0.242
  82       7.385     2.406    18.123      -0.275
  83       3.818     0.010    12.131      -0.314
  84       6.381     1.021    16.467      -0.325
  85       8.306     1.085    18.823      -0.384
  86       8.882     2.592    16.839      -0.374
  87       3.410    -1.112    14.284      -0.317
  88       5.980     0.963    18.229      -0.275
 ---------------------------------------------------------------------



--------------------------------------------------------------------------------------------------------


 stress matrix after NEB project (eV)
    -43.29894     -1.66433      0.10784
     -1.64343    -43.42412     -5.61564
      0.13752     -5.59013    -58.64927
  FORCES: max atom, RMS     2.685439    1.158499
  FORCE total and by dimension   10.867687    2.578934
  Stress total and by dimension   85.255360   58.649270
     LOOP+:  cpu time  721.7754: real time  723.1225
    4ORBIT:  cpu time    0.0000: real time    0.0000
 


 total charge     
 
# of ion       s       p       d       tot
------------------------------------------
    1        0.050   5.992   0.000   6.042
    2        0.049   5.991   0.000   6.040
    3        0.050   5.994   0.000   6.044
    4        0.060   6.005   0.000   6.066
    5        0.047   5.991   0.000   6.039
    6        0.052   5.993   0.000   6.045
    7        0.050   5.993   0.000   6.043
    8        0.048   5.992   0.000   6.041
    9        0.056   6.000   0.000   6.056
   10        0.052   5.995   0.000   6.047
   11        0.049   5.991   0.000   6.040
   12        0.054   5.997   0.000   6.051
   13        0.051   5.994   0.000   6.045
   14        0.048   5.990   0.000   6.039
   15        0.054   5.997   0.000   6.051
   16        0.058   6.005   0.000   6.063
   17        0.146   6.122   0.079   6.347
   18        0.151   6.133   0.087   6.371
   19        0.143   6.118   0.076   6.337
   20        0.147   6.124   0.080   6.351
   21        0.140   6.114   0.073   6.327
   22        0.150   6.130   0.086   6.366
   23        0.148   6.126   0.083   6.357
   24        0.148   6.125   0.081   6.354
   25        0.375   6.457   4.835  11.667
   26        0.372   6.445   4.832  11.649
   27        0.370   6.434   4.827  11.631
   28        0.365   6.434   4.811  11.610
   29        0.401   6.506   4.891  11.797
   30        0.389   6.482   4.856  11.727
   31        0.367   6.438   4.820  11.626
   32        0.356   6.413   4.787  11.556
   33        0.376   6.456   4.838  11.670
   34        0.376   6.453   4.830  11.659
   35        0.383   6.470   4.848  11.701
   36        0.377   6.454   4.829  11.659
   37        0.379   6.463   4.826  11.668
   38        0.382   6.472   4.847  11.700
   39        0.374   6.446   4.829  11.648
   40        0.400   6.506   4.888  11.795
   41        1.598   3.510   0.000   5.109
   42        1.604   3.517   0.000   5.121
   43        1.600   3.484   0.000   5.084
   44        1.597   3.505   0.000   5.103
   45        1.597   3.496   0.000   5.093
   46        1.602   3.462   0.000   5.064
   47        1.598   3.494   0.000   5.092
   48        1.599   3.511   0.000   5.110
   49        1.603   3.521   0.000   5.125
   50        1.598   3.491   0.000   5.089
   51        1.603   3.516   0.000   5.119
   52        1.600   3.519   0.000   5.119
   53        1.597   3.508   0.000   5.105
   54        1.602   3.507   0.000   5.109
   55        1.598   3.532   0.000   5.130
   56        1.600   3.515   0.000   5.115
   57        1.601   3.488   0.000   5.089
   58        1.596   3.487   0.000   5.084
   59        1.597   3.516   0.000   5.113
   60        1.600   3.513   0.000   5.112
   61        1.598   3.484   0.000   5.082
   62        1.599   3.491   0.000   5.090
   63        1.602   3.503   0.000   5.105
   64        1.599   3.514   0.000   5.113
   65        1.600   3.510   0.000   5.109
   66        1.595   3.483   0.000   5.078
   67        1.601   3.523   0.000   5.124
   68        1.600   3.521   0.000   5.121
   69        1.601   3.515   0.000   5.116
   70        1.599   3.497   0.000   5.095
   71        1.598   3.494   0.000   5.092
   72        1.600   3.525   0.000   5.126
   73        1.598   3.484   0.000   5.082
   74        1.599   3.486   0.000   5.086
   75        1.597   3.490   0.000   5.087
   76        1.599   3.514   0.000   5.113
   77        1.598   3.505   0.000   5.102
   78        1.598   3.525   0.000   5.122
   79        1.600   3.500   0.000   5.100
   80        1.598   3.529   0.000   5.127
   81        1.599   3.516   0.000   5.115
   82        1.603   3.522   0.000   5.125
   83        1.596   3.472   0.000   5.068
   84        1.600   3.533   0.000   5.133
   85        1.603   3.511   0.000   5.114
   86        1.598   3.504   0.000   5.103
   87        1.598   3.501   0.000   5.099
   88        1.601   3.498   0.000   5.099
--------------------------------------------------
tot         84.809 416.488  78.037 579.335
 


 magnetization (x)
 
# of ion       s       p       d       tot
------------------------------------------
    1        0.002  -0.000   0.000   0.002
    2        0.001   0.001   0.000   0.002
    3        0.001   0.000   0.000   0.001
    4        0.002   0.000   0.000   0.002
    5        0.000   0.000   0.000   0.001
    6        0.002   0.000   0.000   0.002
    7        0.002   0.000   0.000   0.002
    8        0.001   0.000   0.000   0.001
    9        0.002   0.001   0.000   0.003
   10        0.002   0.000   0.000   0.002
   11        0.002   0.001   0.000   0.003
   12        0.002   0.000   0.000   0.003
   13        0.001   0.000   0.000   0.002
   14        0.003   0.001   0.000   0.003
   15        0.002   0.001   0.000   0.003
   16        0.001   0.000   0.000   0.001
   17        0.007   0.002   0.001   0.010
   18        0.007   0.002   0.001   0.010
   19        0.007   0.002   0.001   0.010
   20        0.007   0.002   0.001   0.011
   21        0.008   0.002   0.001   0.011
   22        0.007   0.002   0.001   0.010
   23        0.008   0.003   0.001   0.012
   24        0.007   0.002   0.001   0.011
   25        0.016   0.031   2.753   2.800
   26        0.016   0.031   2.755   2.802
   27        0.015   0.029   2.768   2.812
   28        0.016   0.029   2.778   2.822
   29        0.015   0.032   2.696   2.742
   30        0.014   0.030   2.726   2.770
   31        0.016   0.030   2.765   2.811
   32        0.015   0.029   2.808   2.851
   33        0.016   0.030   2.754   2.800
   34        0.016   0.030   2.757   2.802
   35        0.015   0.031   2.736   2.782
   36        0.014   0.029   2.748   2.791
   37        0.014   0.030   2.755   2.799
   38        0.015   0.031   2.741   2.787
   39        0.014   0.028   2.753   2.796
   40        0.015   0.032   2.691   2.737
   41        0.002   0.037   0.000   0.039
   42        0.002   0.038   0.000   0.040
   43        0.002   0.027   0.000   0.030
   44        0.002   0.031   0.000   0.033
   45        0.002   0.026   0.000   0.028
   46        0.003   0.029   0.000   0.032
   47        0.002   0.029   0.000   0.032
   48        0.002   0.050   0.000   0.052
   49        0.003   0.058   0.000   0.061
   50        0.002   0.009   0.000   0.011
   51        0.002   0.045   0.000   0.047
   52        0.002   0.039   0.000   0.041
   53        0.002   0.024   0.000   0.026
   54        0.003   0.057   0.000   0.060
   55        0.002   0.037   0.000   0.039
   56        0.002   0.035   0.000   0.037
   57        0.002   0.039   0.000   0.041
   58        0.003   0.036   0.000   0.039
   59        0.002   0.038   0.000   0.040
   60        0.002   0.034   0.000   0.035
   61        0.002   0.023   0.000   0.025
   62        0.002   0.038   0.000   0.040
   63        0.002   0.032   0.000   0.034
   64        0.002   0.042   0.000   0.044
   65        0.002   0.027   0.000   0.029
   66        0.002   0.020   0.000   0.021
   67        0.002   0.046   0.000   0.048
   68        0.002   0.045   0.000   0.047
   69        0.002   0.040   0.000   0.042
   70        0.002   0.027   0.000   0.029
   71        0.002   0.023   0.000   0.025
   72        0.002   0.042   0.000   0.044
   73        0.002   0.027   0.000   0.029
   74        0.002   0.036   0.000   0.038
   75        0.002   0.020   0.000   0.022
   76        0.002   0.016   0.000   0.018
   77        0.002   0.031   0.000   0.033
   78        0.002   0.042   0.000   0.044
   79        0.002   0.023   0.000   0.025
   80        0.001   0.015   0.000   0.016
   81        0.002   0.024   0.000   0.025
   82        0.002   0.046   0.000   0.049
   83        0.002   0.012   0.000   0.014
   84        0.002   0.052   0.000   0.054
   85        0.002   0.050   0.000   0.052
   86        0.002   0.048   0.000   0.051
   87        0.002   0.019   0.000   0.020
   88        0.002   0.045   0.000   0.047
--------------------------------------------------
tot          0.422   2.137  43.994  46.553
 

 total amount of memory used by VASP MPI-rank0    88188. kBytes
=======================================================================

   base      :      30000. kBytes
   nonlr-proj:      13679. kBytes
   fftplans  :        992. kBytes
   grid      :      21513. kBytes
   one-center:       2737. kBytes
   wavefun   :      19267. kBytes
 
  
  
 General timing and accounting informations for this job:
 ========================================================
  
                  Total CPU time used (sec):      740.945
                            User time (sec):      734.850
                          System time (sec):        6.095
                         Elapsed time (sec):      745.291
  
                   Maximum memory used (kb):      182308.
                   Average memory used (kb):           0.
  
                          Minor page faults:       349818
                          Major page faults:            0
                 Voluntary context switches:         3763
