 vasp.5.4.4.18Apr17-6-g9f103f2a35 (build Dec 02 2020 12:53:39) complex          
  
 executed on             LinuxIFC date 2021.08.03  13:28:39
 running on  112 total cores
 distrk:  each k-point on  112 cores,    1 groups
 distr:  one band on NCORES_PER_BAND=   1 cores,  112 groups


--------------------------------------------------------------------------------------------------------


 INCAR:
 POTCAR:    PAW_PBE Na_pv 19Sep2006               
 POTCAR:    PAW_PBE Mg_pv 13Apr2007               
 POTCAR:    PAW_PBE Mn_pv 02Aug2007               
 POTCAR:    PAW_PBE O 08Apr2002                   

 ----------------------------------------------------------------------------- 
|                                                                             |
|           W    W    AA    RRRRR   N    N  II  N    N   GGGG   !!!           |
|           W    W   A  A   R    R  NN   N  II  NN   N  G    G  !!!           |
|           W    W  A    A  R    R  N N  N  II  N N  N  G       !!!           |
|           W WW W  AAAAAA  RRRRR   N  N N  II  N  N N  G  GGG   !            |
|           WW  WW  A    A  R   R   N   NN  II  N   NN  G    G                |
|           W    W  A    A  R    R  N    N  II  N    N   GGGG   !!!           |
|                                                                             |
|      For optimal performance we recommend to set                            |
|        NCORE= 4 - approx SQRT( number of cores)                             |
|      NCORE specifies how many cores store one orbital (NPAR=cpu/NCORE).     |
|      This setting can  greatly improve the performance of VASP for DFT.     |
|      The default,   NCORE=1            might be grossly inefficient         |
|      on modern multi-core architectures or massively parallel machines.     |
|      Do your own testing !!!!                                               |
|      Unfortunately you need to use the default for GW and RPA calculations. |
|      (for HF NCORE is supported but not extensively tested yet)             |
|                                                                             |
 ----------------------------------------------------------------------------- 

 POTCAR:    PAW_PBE Na_pv 19Sep2006               
   VRHFIN =Na: p6s1                                                             
   LEXCH  = PE                                                                  
   EATOM  =   766.0439 eV,   56.3026 Ry                                         
                                                                                
   TITEL  = PAW_PBE Na_pv 19Sep2006                                             
   LULTRA =        F    use ultrasoft PP ?                                      
   IUNSCR =        1    unscreen: 0-lin 1-nonlin 2-no                           
   RPACOR =    1.800    partial core radius                                     
   POMASS =   22.990; ZVAL   =    7.000    mass and valenz                      
   RCORE  =    2.200    outmost cutoff radius                                   
   RWIGS  =    2.200; RWIGS  =    1.164    wigner-seitz radius (au A)           
   ENMAX  =  259.561; ENMIN  =  194.671 eV                                      
   ICORE  =        2    local potential                                         
   LCOR   =        T    correct aug charges                                     
   LPAW   =        T    paw PP                                                  
   EAUG   =  368.056                                                            
   DEXC   =    0.000                                                            
   RMAX   =    2.245    core radius for proj-oper                               
   RAUG   =    1.300    factor for augmentation sphere                          
   RDEP   =    2.259    radius for radial grids                                 
   RDEPT  =    1.738    core radius for aug-charge                              
                                                                                
   Atomic configuration                                                         
    5 entries                                                                   
     n  l   j            E        occ.                                          
     1  0  0.50     -1033.6933   2.0000                                         
     2  0  0.50       -56.7526   2.0000                                         
     2  1  1.50       -28.6721   6.0000                                         
     3  0  0.50        -2.7440   1.0000                                         
     3  2  1.50        -1.3606   0.0000                                         
   Description                                                                  
     l       E           TYP  RCUT    TYP  RCUT                                 
     1    -28.6720912     23  2.000                                             
     1      6.8029130     23  2.000                                             
     0     -2.7439560     23  2.200                                             
     0     34.0145650     23  2.200                                             
     2     -1.3605826     23  2.200                                             
  local pseudopotential read in
  partial core-charges read in
  partial kinetic energy density read in
  atomic valenz-charges read in
  non local Contribution for L=           1  read in
    real space projection operators read in
  non local Contribution for L=           1  read in
    real space projection operators read in
  non local Contribution for L=           0  read in
    real space projection operators read in
  non local Contribution for L=           0  read in
    real space projection operators read in
    PAW grid and wavefunctions read in
 
   number of l-projection  operators is LMAX  =           4
   number of lm-projection operators is LMMAX =           8
 
 POTCAR:    PAW_PBE Mg_pv 13Apr2007               
   VRHFIN =Mg: p6s2                                                             
   LEXCH  = PE                                                                  
   EATOM  =  1056.7344 eV,   77.6678 Ry                                         
                                                                                
   TITEL  = PAW_PBE Mg_pv 13Apr2007                                             
   LULTRA =        F    use ultrasoft PP ?                                      
   IUNSCR =        1    unscreen: 0-lin 1-nonlin 2-no                           
   RPACOR =    1.500    partial core radius                                     
   POMASS =   24.305; ZVAL   =    8.000    mass and valenz                      
   RCORE  =    2.000    outmost cutoff radius                                   
   RWIGS  =    2.000; RWIGS  =    1.058    wigner-seitz radius (au A)           
   ENMAX  =  403.929; ENMIN  =  302.947 eV                                      
   RCLOC  =    1.506    cutoff for local pot                                    
   LCOR   =        T    correct aug charges                                     
   LPAW   =        T    paw PP                                                  
   EAUG   =  758.780                                                            
   DEXC   =    0.000                                                            
   RMAX   =    2.045    core radius for proj-oper                               
   RAUG   =    1.300    factor for augmentation sphere                          
   RDEP   =    2.025    radius for radial grids                                 
   RDEPT  =    1.557    core radius for aug-charge                              
                                                                                
   Atomic configuration                                                         
    5 entries                                                                   
     n  l   j            E        occ.                                          
     1  0  0.50     -1259.6230   2.0000                                         
     2  0  0.50       -79.8442   2.0000                                         
     2  1  1.50       -46.6121   6.0000                                         
     3  0  0.50        -4.7055   2.0000                                         
     3  2  1.50        -1.3606   0.0000                                         
   Description                                                                  
     l       E           TYP  RCUT    TYP  RCUT                                 
     1    -46.6121073     23  1.600                                             
     1      2.7211652     23  1.600                                             
     0     -4.7054661     23  2.000                                             
     0     61.2262170     23  2.000                                             
     2     -1.3605826     23  2.000                                             
  local pseudopotential read in
  partial core-charges read in
  partial kinetic energy density read in
  atomic valenz-charges read in
  non local Contribution for L=           1  read in
    real space projection operators read in
  non local Contribution for L=           1  read in
    real space projection operators read in
  non local Contribution for L=           0  read in
    real space projection operators read in
  non local Contribution for L=           0  read in
    real space projection operators read in
  non local Contribution for L=           2  read in
    real space projection operators read in
    PAW grid and wavefunctions read in
 
   number of l-projection  operators is LMAX  =           5
   number of lm-projection operators is LMMAX =          13
 
 POTCAR:    PAW_PBE Mn_pv 02Aug2007               
   VRHFIN =Mn: 3p4s3d                                                           
   LEXCH  = PE                                                                  
   EATOM  =  2025.2664 eV,  148.8529 Ry                                         
                                                                                
   TITEL  = PAW_PBE Mn_pv 02Aug2007                                             
   LULTRA =        F    use ultrasoft PP ?                                      
   IUNSCR =        1    unscreen: 0-lin 1-nonlin 2-no                           
   RPACOR =    2.080    partial core radius                                     
   POMASS =   54.938; ZVAL   =   13.000    mass and valenz                      
   RCORE  =    2.300    outmost cutoff radius                                   
   RWIGS  =    2.500; RWIGS  =    1.323    wigner-seitz radius (au A)           
   ENMAX  =  269.864; ENMIN  =  202.398 eV                                      
   ICORE  =        3    local potential                                         
   LCOR   =        T    correct aug charges                                     
   LPAW   =        T    paw PP                                                  
   EAUG   =  569.085                                                            
   DEXC   =    0.000                                                            
   RMAX   =    2.343    core radius for proj-oper                               
   RAUG   =    1.300    factor for augmentation sphere                          
   RDEP   =    2.338    radius for radial grids                                 
   RDEPT  =    1.798    core radius for aug-charge                              
                                                                                
   Atomic configuration                                                         
    8 entries                                                                   
     n  l   j            E        occ.                                          
     1  0  0.50     -6424.8287   2.0000                                         
     2  0  0.50      -739.1154   2.0000                                         
     2  1  1.50      -625.3949   6.0000                                         
     3  0  0.50       -81.6100   2.0000                                         
     3  1  1.50       -50.4667   6.0000                                         
     3  2  2.50        -3.3745   6.0000                                         
     4  0  0.50        -4.1331   1.0000                                         
     4  3  2.50        -1.3606   0.0000                                         
   Description                                                                  
     l       E           TYP  RCUT    TYP  RCUT                                 
     1    -50.4666628     23  2.000                                             
     1     -1.3605826     23  2.000                                             
     2     -3.3744729     23  2.300                                             
     2     -4.7350555     23  2.300                                             
     0     -4.1331431     23  2.300                                             
     0      7.6656591     23  2.300                                             
     3      9.5240782     23  2.300                                             
  local pseudopotential read in
  partial core-charges read in
  partial kinetic energy density read in
  atomic valenz-charges read in
  non local Contribution for L=           1  read in
    real space projection operators read in
  non local Contribution for L=           1  read in
    real space projection operators read in
  non local Contribution for L=           2  read in
    real space projection operators read in
  non local Contribution for L=           2  read in
    real space projection operators read in
  non local Contribution for L=           0  read in
    real space projection operators read in
  non local Contribution for L=           0  read in
    real space projection operators read in
    PAW grid and wavefunctions read in
 
   number of l-projection  operators is LMAX  =           6
   number of lm-projection operators is LMMAX =          18
 
 POTCAR:    PAW_PBE O 08Apr2002                   
   VRHFIN =O: s2p4                                                              
   LEXCH  = PE                                                                  
   EATOM  =   432.3788 eV,   31.7789 Ry                                         
                                                                                
   TITEL  = PAW_PBE O 08Apr2002                                                 
   LULTRA =        F    use ultrasoft PP ?                                      
   IUNSCR =        1    unscreen: 0-lin 1-nonlin 2-no                           
   RPACOR =    1.200    partial core radius                                     
   POMASS =   16.000; ZVAL   =    6.000    mass and valenz                      
   RCORE  =    1.520    outmost cutoff radius                                   
   RWIGS  =    1.550; RWIGS  =    0.820    wigner-seitz radius (au A)           
   ENMAX  =  400.000; ENMIN  =  300.000 eV                                      
   ICORE  =        2    local potential                                         
   LCOR   =        T    correct aug charges                                     
   LPAW   =        T    paw PP                                                  
   EAUG   =  605.392                                                            
   DEXC   =    0.000                                                            
   RMAX   =    1.553    core radius for proj-oper                               
   RAUG   =    1.300    factor for augmentation sphere                          
   RDEP   =    1.550    radius for radial grids                                 
   RDEPT  =    1.329    core radius for aug-charge                              
                                                                                
   Atomic configuration                                                         
    4 entries                                                                   
     n  l   j            E        occ.                                          
     1  0  0.50      -514.6923   2.0000                                         
     2  0  0.50       -23.9615   2.0000                                         
     2  1  0.50        -9.0305   4.0000                                         
     3  2  1.50        -9.5241   0.0000                                         
   Description                                                                  
     l       E           TYP  RCUT    TYP  RCUT                                 
     0    -23.9615318     23  1.200                                             
     0     -9.5240782     23  1.200                                             
     1     -9.0304911     23  1.520                                             
     1      8.1634956     23  1.520                                             
     2     -9.5240782      7  1.500                                             
  local pseudopotential read in
  partial core-charges read in
  partial kinetic energy density read in
  kinetic energy density of atom read in
  atomic valenz-charges read in
  non local Contribution for L=           0  read in
    real space projection operators read in
  non local Contribution for L=           0  read in
    real space projection operators read in
  non local Contribution for L=           1  read in
    real space projection operators read in
  non local Contribution for L=           1  read in
    real space projection operators read in
    PAW grid and wavefunctions read in
 
   number of l-projection  operators is LMAX  =           4
   number of lm-projection operators is LMMAX =           8
 
 Optimization of the real space projectors (new method)

 maximal supplied QI-value         = 17.01
 optimisation between [QCUT,QGAM] = [ 10.20, 20.41] = [ 29.16,116.64] Ry 
 Optimized for a Real-space Cutoff    1.30 Angstroem

   l    n(q)    QCUT    max X(q) W(low)/X(q) W(high)/X(q)  e(spline) 
   1      7    10.205     4.940    0.23E-03    0.84E-03    0.11E-06
   1      7    10.205     6.253    0.40E-03    0.13E-02    0.18E-06
   0      8    10.205    37.438    0.23E-03    0.37E-03    0.42E-07
   0      8    10.205     9.606    0.16E-03    0.26E-03    0.31E-07
 Optimization of the real space projectors (new method)

 maximal supplied QI-value         = 18.90
 optimisation between [QCUT,QGAM] = [ 10.20, 20.41] = [ 29.16,116.64] Ry 
 Optimized for a Real-space Cutoff    1.26 Angstroem

   l    n(q)    QCUT    max X(q) W(low)/X(q) W(high)/X(q)  e(spline) 
   1      7    10.205     2.974    0.63E-04    0.14E-03    0.13E-06
   1      7    10.205     4.279    0.11E-03    0.45E-03    0.24E-06
   0      8    10.205    16.381    0.44E-03    0.15E-03    0.55E-07
   0      8    10.205     5.611    0.31E-03    0.11E-03    0.40E-07
   2      7    10.205     4.652    0.50E-03    0.47E-03    0.57E-07
 Optimization of the real space projectors (new method)

 maximal supplied QI-value         = 16.25
 optimisation between [QCUT,QGAM] = [ 10.24, 20.48] = [ 29.35,117.42] Ry 
 Optimized for a Real-space Cutoff    1.34 Angstroem

   l    n(q)    QCUT    max X(q) W(low)/X(q) W(high)/X(q)  e(spline) 
   1      8    10.239     3.658    0.23E-03    0.30E-03    0.98E-07
   1      8    10.239     5.612    0.32E-03    0.65E-03    0.21E-06
   2      7    10.239    55.373    0.42E-03    0.45E-03    0.65E-07
   2      7    10.239    50.863    0.43E-03    0.48E-03    0.67E-07
   0      8    10.239    79.536    0.11E-03    0.21E-03    0.56E-07
   0      8    10.239    38.668    0.96E-04    0.19E-03    0.52E-07
 Optimization of the real space projectors (new method)

 maximal supplied QI-value         = 24.76
 optimisation between [QCUT,QGAM] = [ 10.15, 20.30] = [ 28.85,115.39] Ry 
 Optimized for a Real-space Cutoff    1.38 Angstroem

   l    n(q)    QCUT    max X(q) W(low)/X(q) W(high)/X(q)  e(spline) 
   0      8    10.150    20.381    0.22E-03    0.32E-03    0.29E-06
   0      8    10.150    15.268    0.23E-03    0.35E-03    0.30E-06
   1      8    10.150     5.964    0.46E-03    0.53E-03    0.21E-06
   1      8    10.150     5.382    0.38E-03    0.45E-03    0.19E-06
  PAW_PBE Na_pv 19Sep2006               :
 energy of atom  1       EATOM= -766.0439
 kinetic energy error for atom=    0.0103 (will be added to EATOM!!)
  PAW_PBE Mg_pv 13Apr2007               :
 energy of atom  2       EATOM=-1056.7344
 kinetic energy error for atom=    0.0820 (will be added to EATOM!!)
  PAW_PBE Mn_pv 02Aug2007               :
 energy of atom  3       EATOM=-2025.2664
 kinetic energy error for atom=    0.0284 (will be added to EATOM!!)
  PAW_PBE O 08Apr2002                   :
 energy of atom  4       EATOM= -432.3788
 kinetic energy error for atom=    0.1156 (will be added to EATOM!!)
 
 
 POSCAR: Na Mg Mn  O                             
  positions in cartesian coordinates
  No initial velocities read in

 METAGGA = SCAN     LMAXTAU =  6    LMIXTAU =  F

 exchange correlation table for  LEXCH =        8
   RHO(1)=    0.500       N(1)  =     2000
   RHO(2)=  100.500       N(2)  =     4000

 VTST: version 3.2, (02/03/18)

 CHAIN: initializing optimizer
 
 OPT: Using VASP Dynamics algorithm
 CHAIN: Read ICHAIN            0
 
 POSCAR: Na Mg Mn  O                             
  positions in cartesian coordinates
  No initial velocities read in
 


--------------------------------------------------------------------------------------------------------


 ion  position               nearest neighbor table
   1  0.627  0.566  0.257-  52 2.24  74 2.38
   2  0.041  0.889  0.757-  70 2.31  73 2.31
   3  0.491  0.067  0.742-  81 2.26  56 2.33  49 2.35  31 2.76  29 2.82
   4  0.177  0.260  0.756-  48 2.32  47 2.32  58 2.37  61 2.37
   5  0.036  0.199  0.244-  41 2.13  50 2.18  54 2.27  25 2.94
   6  0.372  0.250  0.248-  51 2.36  43 2.37  26 2.85
   7  0.670  0.753  0.754-  85 2.24  71 2.36
   8  0.326  0.724  0.740-  80 2.35  14 2.79
   9  0.702  0.929  0.243-  54 2.26  40 2.95
  10  0.379  0.945  0.240-  79 2.17  88 2.35  42 2.35
  11  0.824  0.386  0.263-  62 2.24  64 2.28  75 2.37
  12  0.825  0.091  0.747-  56 2.32  59 2.32  58 2.32
  13  0.569  0.410  0.752-  46 2.24  71 2.26  68 2.34  49 2.35
  14  0.017  0.495  0.751-  80 2.20  60 2.24  57 2.35   8 2.79
  15  0.998  0.777  0.261-  76 2.16  67 2.36
  16  0.211  0.572  0.250-  87 2.21  78 2.22  77 2.36
  17  0.693  0.422  1.000-  60 1.99  53 2.03  71 2.06  66 2.10  43 2.12  49 2.23  34 2.84  37 2.85
                            30 2.85
  18  0.338  0.263  0.507-  52 1.96  45 2.07  46 2.07  50 2.08  51 2.09  44 2.11  35 2.74  32 2.85

  19  0.195  0.414  0.007-  78 2.00  41 2.02  83 2.05  61 2.11  48 2.12  55 2.23  26 2.82  33 2.82

  20  0.839  0.245  0.506-  58 2.00  63 2.02  64 2.06  57 2.07  56 2.08  62 2.20  32 2.78  40 2.80
                            27 2.84
  21  0.181  0.915  0.001-  73 1.97  42 1.97  67 2.03  47 2.14  84 2.19  77 2.22  34 2.85
  22  0.823  0.746  0.490-  74 1.98  68 2.00  69 2.03  75 2.06  76 2.07  70 2.20  28 2.80
  23  0.680  0.913  0.991-  59 2.03  72 2.04  85 2.07  65 2.07  79 2.12  54 2.16  38 2.83
  24  0.335  0.755  0.493-  88 1.94  86 1.95  87 2.02  80 2.08  82 2.10  81 2.15  39 2.83
  25  0.016  0.082  1.000-  47 1.88  41 1.90  67 1.90  72 1.95  61 1.97  54 2.03  34 2.88  30 2.91
                            26 2.92   5 2.94
  26  0.353  0.247  0.995-  48 1.87  43 1.88  42 1.90  47 1.93  49 1.94  41 1.99  29 2.82  19 2.82
                             6 2.85  25 2.92  33 2.92
  27  0.004  0.083  0.501-  63 1.84  50 1.93  76 1.93  44 1.94  69 1.99  58 2.01  36 2.82  20 2.84
                            32 2.87  40 2.90
  28  0.680  0.424  0.496-  75 1.89  52 1.90  62 1.92  57 1.93  68 1.98  46 2.00  22 2.80  39 2.85
                            31 2.91  35 3.00
  29  0.514  0.082  0.993-  49 1.80  42 1.87  59 1.89  79 1.95  53 1.96  84 1.98   3 2.82  26 2.82
                            30 2.88  38 2.90
  30  0.845  0.246  0.004-  54 1.89  59 1.89  60 1.93  61 1.94  55 1.97  53 1.99  17 2.85  29 2.88
                            37 2.90  25 2.91
  31  0.499  0.090  0.497-  51 1.82  62 1.88  46 1.91  88 1.92  81 1.97  56 2.03   3 2.76  36 2.88
                            28 2.91  40 2.93
  32  0.160  0.414  0.509-  45 1.83  50 1.86  87 1.90  80 1.90  58 1.94  64 2.02  20 2.78  18 2.85
                            39 2.86  35 2.86  27 2.87
  33  0.520  0.583  0.993-  65 1.86  85 1.90  43 1.90  71 1.96  48 2.01  78 2.03  19 2.82  34 2.88
                            38 2.88  26 2.92
  34  0.852  0.750  0.997-  73 1.84  67 1.88  65 1.92  72 1.96  66 1.96  71 1.99  17 2.84  21 2.85
                            33 2.88  25 2.88  37 2.93
  35  0.489  0.579  0.505-  87 1.87  52 1.87  45 1.89  82 1.90  68 1.95  74 1.97  18 2.74  32 2.86
                            40 2.99  28 3.00
  36  0.168  0.922  0.493-  76 1.86  44 1.88  81 1.90  86 1.95  51 1.96  70 1.96  27 2.82  39 2.87
                            31 2.88
  37  0.020  0.580  0.009-  55 1.86  73 1.90  83 1.95  60 1.97  66 1.98  77 2.05  17 2.85  38 2.89
                            30 2.90  34 2.93
  38  0.354  0.749  0.005-  77 1.83  84 1.83  78 1.85  79 1.89  83 1.90  85 2.01  23 2.83  33 2.88
                            37 2.89  29 2.90
  39  0.008  0.591  0.494-  80 1.85  70 1.87  64 1.87  57 1.93  86 1.98  75 2.00  24 2.83  28 2.85
                            32 2.86  36 2.87
  40  0.669  0.923  0.504-  56 1.83  82 1.91  69 1.92  88 1.97  63 1.98  74 2.01  20 2.80  27 2.90
                            31 2.93   9 2.95  35 2.99
  41  0.181  0.230  0.094-  25 1.90  26 1.99  19 2.02   5 2.13
  42  0.358  0.087  0.082-  29 1.87  26 1.90  21 1.97  10 2.35
  43  0.500  0.415  0.085-  26 1.88  33 1.90  17 2.12   6 2.37
  44  0.160  0.069  0.593-  36 1.88  27 1.94  18 2.11
  45  0.322  0.435  0.599-  32 1.83  35 1.89  18 2.07
  46  0.516  0.254  0.594-  31 1.91  28 2.00  18 2.07  13 2.24
  47  0.177  0.097  0.904-  25 1.88  26 1.93  21 2.14   4 2.32
  48  0.363  0.403  0.898-  26 1.87  33 2.01  19 2.12   4 2.32
  49  0.504  0.224  0.902-  29 1.80  26 1.94  17 2.23  13 2.35   3 2.35
  50  0.157  0.260  0.414-  32 1.86  27 1.93  18 2.08   5 2.18
  51  0.346  0.089  0.411-  31 1.82  36 1.96  18 2.09   6 2.36
  52  0.512  0.429  0.421-  35 1.87  28 1.90  18 1.96   1 2.24
  53  0.672  0.241  0.095-  29 1.96  30 1.99  17 2.03
  54  0.854  0.095  0.099-  30 1.89  25 2.03  23 2.16   9 2.26   5 2.27
  55  0.000  0.416  0.101-  37 1.86  30 1.97  19 2.23
  56  0.656  0.066  0.596-  40 1.83  31 2.03  20 2.08  12 2.32   3 2.33
  57  0.846  0.433  0.590-  39 1.93  28 1.93  20 2.07  14 2.35
  58  0.005  0.246  0.606-  32 1.94  20 2.00  27 2.01  12 2.32   4 2.37
  59  0.684  0.095  0.909-  29 1.89  30 1.89  23 2.03  12 2.32
  60  0.861  0.415  0.910-  30 1.93  37 1.97  17 1.99  14 2.24
  61  0.007  0.245  0.909-  30 1.94  25 1.97  19 2.11   4 2.37
  62  0.653  0.250  0.406-  31 1.88  28 1.92  20 2.20  11 2.24
  63  0.848  0.079  0.412-  27 1.84  40 1.98  20 2.02
  64  0.001  0.428  0.407-  39 1.87  32 2.02  20 2.06  11 2.28
  65  0.679  0.733  0.084-  33 1.86  34 1.92  23 2.07
  66  0.865  0.601  0.103-  34 1.96  37 1.98  17 2.10
  67  0.003  0.914  0.088-  34 1.88  25 1.90  21 2.03  15 2.36
  68  0.659  0.580  0.590-  35 1.95  28 1.98  22 2.00  13 2.34
  69  0.831  0.917  0.593-  40 1.92  27 1.99  22 2.03
  70  0.014  0.748  0.587-  39 1.87  36 1.96  22 2.20   2 2.31
  71  0.686  0.589  0.897-  33 1.96  34 1.99  17 2.06  13 2.26   7 2.36
  72  0.860  0.917  0.902-  25 1.95  34 1.96  23 2.04
  73  0.008  0.737  0.921-  34 1.84  37 1.90  21 1.97   2 2.31
  74  0.649  0.745  0.406-  35 1.97  22 1.98  40 2.01   1 2.38
  75  0.834  0.575  0.396-  28 1.89  39 2.00  22 2.06  11 2.37
  76  0.011  0.925  0.406-  36 1.86  27 1.93  22 2.07  15 2.16
  77  0.205  0.740  0.105-  38 1.83  37 2.05  21 2.22  16 2.36
  78  0.359  0.597  0.095-  38 1.85  19 2.00  33 2.03  16 2.22
  79  0.504  0.918  0.092-  38 1.89  29 1.95  23 2.12  10 2.17
  80  0.154  0.579  0.587-  39 1.85  32 1.90  24 2.08  14 2.20   8 2.35
  81  0.327  0.934  0.593-  36 1.90  31 1.97  24 2.15   3 2.26
  82  0.512  0.752  0.591-  35 1.90  40 1.91  24 2.10
  83  0.189  0.589  0.917-  38 1.90  37 1.95  19 2.05
  84  0.362  0.897  0.905-  38 1.83  29 1.98  21 2.19
  85  0.506  0.732  0.897-  33 1.90  38 2.01  23 2.07   7 2.24
  86  0.173  0.760  0.400-  24 1.95  36 1.95  39 1.98
  87  0.324  0.566  0.418-  35 1.87  32 1.90  24 2.02  16 2.21
  88  0.504  0.926  0.411-  31 1.92  24 1.94  40 1.97  10 2.35
 
  LATTYP: Found a hexagonal cell.
 ALAT       =    10.0190000534
 C/A-ratio  =     1.1196726572
  
  Lattice vectors:
  
 A1 = (  10.0190000534,   0.0000000000,   0.0000000000)
 A2 = (  -5.0095000267,   8.6767085668,   0.0000000000)
 A3 = (   0.0000000000,   0.0000000000,  11.2180004120)


Analysis of symmetry for initial positions (statically):
=====================================================================
 Subroutine PRICEL returns:
 Original cell was already a primitive cell.
 

 Routine SETGRP: Setting up the symmetry group for a 
 hexagonal supercell.


 Subroutine GETGRP returns: Found  1 space group operations
 (whereof  1 operations were pure point group operations)
 out of a pool of 24 trial point group operations.


The static configuration has the point symmetry C_1 .


Analysis of symmetry for dynamics (positions and initial velocities):
=====================================================================
 Subroutine PRICEL returns:
 Original cell was already a primitive cell.
 

 Routine SETGRP: Setting up the symmetry group for a 
 hexagonal supercell.


 Subroutine GETGRP returns: Found  1 space group operations
 (whereof  1 operations were pure point group operations)
 out of a pool of 24 trial point group operations.


The dynamic configuration has the point symmetry C_1 .


Analysis of structural, dynamic, and magnetic symmetry:
=====================================================================
 Subroutine PRICEL returns:
 Original cell was already a primitive cell.
 

 Routine SETGRP: Setting up the symmetry group for a 
 hexagonal supercell.


 Subroutine GETGRP returns: Found  1 space group operations
 (whereof  1 operations were pure point group operations)
 out of a pool of 24 trial point group operations.


The magnetic configuration has the point symmetry C_1 .


 Subroutine INISYM returns: Found  1 space group operations
 (whereof  1 operations are pure point group operations),
 and found     1 'primitive' translations

 
 

Automatic generation of k-mesh.
 generate k-points for:    2    2    2
Space group operators:
 irot       det(A)        alpha          n_x          n_y          n_z        tau_x        tau_y        tau_z
    1     1.000000     0.000000     1.000000     0.000000     0.000000     0.000000     0.000000     0.000000
 
 Subroutine IBZKPT returns following result:
 ===========================================
 
 Found      8 irreducible k-points:
 
 Following reciprocal coordinates:
            Coordinates               Weight
  0.000000  0.000000  0.000000      1.000000
  0.500000 -0.000000 -0.000000      1.000000
  0.000000  0.500000  0.000000      1.000000
  0.500000  0.500000 -0.000000      1.000000
  0.000000  0.000000  0.500000      1.000000
  0.500000 -0.000000  0.500000      1.000000
  0.000000  0.500000  0.500000      1.000000
  0.500000  0.500000  0.500000      1.000000
 
 Following cartesian coordinates:
            Coordinates               Weight
  0.000000  0.000000  0.000000      1.000000
  0.049905  0.028813 -0.000000      1.000000
  0.000000  0.057626  0.000000      1.000000
  0.049905  0.086438 -0.000000      1.000000
  0.000000  0.000000  0.044571      1.000000
  0.049905  0.028813  0.044571      1.000000
  0.000000  0.057626  0.044571      1.000000
  0.049905  0.086438  0.044571      1.000000
 


--------------------------------------------------------------------------------------------------------




 Dimension of arrays:
   k-points           NKPTS =      8   k-points in BZ     NKDIM =      8   number of bands    NBANDS=    448
   number of dos      NEDOS =    301   number of ions     NIONS =     88
   non local maximal  LDIM  =      6   non local SUM 2l+1 LMDIM =     18
   total plane-waves  NPLWV = 140000
   max r-space proj   IRMAX =   1632   max aug-charges    IRDMAX=   4555
   dimension x,y,z NGX =    50 NGY =   50 NGZ =   56
   dimension x,y,z NGXF=   100 NGYF=  100 NGZF=  112
   support grid    NGXF=   100 NGYF=  100 NGZF=  112
   ions per type =              16   8  16  48
   NGX,Y,Z   is equivalent  to a cutoff of   8.30,  8.30,  8.30 a.u.
   NGXF,Y,Z  is equivalent  to a cutoff of  16.59, 16.59, 16.60 a.u.

 SYSTEM =  unknown system                          
 POSCAR =  Na Mg Mn  O                             

 Startparameter for this run:
   NWRITE =      2    write-flag & timer
   PREC   = normal    normal or accurate (medium, high low for compatibility)
   ISTART =      0    job   : 0-new  1-cont  2-samecut
   ICHARG =      1    charge: 1-file 2-atom 10-const
   ISPIN  =      2    spin polarized calculation?
   LNONCOLLINEAR =      F non collinear calculations
   LSORBIT =      F    spin-orbit coupling
   INIWAV =      1    electr: 0-lowe 1-rand  2-diag
   LASPH  =      T    aspherical Exc in radial PAW
   METAGGA=      F    non-selfconsistent MetaGGA calc.

 Electronic Relaxation 1
   ENCUT  =  400.0 eV  29.40 Ry    5.42 a.u.  16.34 16.34 18.29*2*pi/ulx,y,z
   ENINI  =  400.0     initial cutoff
   ENAUG  =  758.8 eV  augmentation charge cutoff
   NELM   =    200;   NELMIN=  6; NELMDL=-12     # of ELM steps 
   EDIFF  = 0.1E-04   stopping-criterion for ELM
   LREAL  =      T    real-space projection
   NLSPLINE    = F    spline interpolate recip. space projectors
   LCOMPAT=      F    compatible to vasp.4.4
   GGA_COMPAT  = T    GGA compatible to vasp.4.4-vasp.4.6
   LMAXPAW     = -100 max onsite density
   LMAXMIX     =    4 max onsite mixed and CHGCAR
   VOSKOWN=      0    Vosko Wilk Nusair interpolation
   ROPT   =   -0.00050  -0.00050  -0.00050  -0.00050
 Ionic relaxation
   EDIFFG = 0.1E-03   stopping-criterion for IOM
   NSW    =      1    number of steps for IOM
   NBLOCK =      1;   KBLOCK =      1    inner block; outer block 
   IBRION =     -1    ionic relax: 0-MD 1-quasi-New 2-CG
   NFREE  =      0    steps in history (QN), initial steepest desc. (CG)
   ISIF   =      2    stress and relaxation
   IWAVPR =     10    prediction:  0-non 1-charg 2-wave 3-comb
   ISYM   =      2    0-nonsym 1-usesym 2-fastsym
   LCORR  =      T    Harris-Foulkes like correction to forces

   POTIM  = 0.5000    time-step for ionic-motion
   TEIN   =    0.0    initial temperature
   TEBEG  =    0.0;   TEEND  =   0.0 temperature during run
   SMASS  =  -3.00    Nose mass-parameter (am)
   estimated Nose-frequenzy (Omega)   =  0.10E-29 period in steps =****** mass=  -0.229E-26a.u.
   SCALEE = 1.0000    scale energy and forces
   NPACO  =    256;   APACO  = 16.0  distance and # of slots for P.C.
   PSTRESS=    0.0 pullay stress

  Mass of Ions in am
   POMASS =  22.99 24.30 54.94 16.00
  Ionic Valenz
   ZVAL   =   7.00  8.00 13.00  6.00
  Atomic Wigner-Seitz radii
   RWIGS  =  -1.00 -1.00 -1.00 -1.00
  virtual crystal weights 
   VCA    =   1.00  1.00  1.00  1.00
   NELECT =     672.0000    total number of electrons
   NUPDOWN=      48.0000    fix difference up-down

 DOS related values:
   EMIN   =  10.00;   EMAX   =-10.00  energy-range for DOS
   EFERMI =   0.00
   ISMEAR =     0;   SIGMA  =   0.05  broadening in eV -4-tet -1-fermi 0-gaus

 Electronic relaxation 2 (details)
   IALGO  =     48    algorithm
   LDIAG  =      T    sub-space diagonalisation (order eigenvalues)
   LSUBROT=      F    optimize rotation matrix (better conditioning)
   TURBO    =      0    0=normal 1=particle mesh
   IRESTART =      0    0=no restart 2=restart with 2 vectors
   NREBOOT  =      0    no. of reboots
   NMIN     =      0    reboot dimension
   EREF     =   0.00    reference energy to select bands
   IMIX   =      4    mixing-type and parameters
     AMIX     =   0.40;   BMIX     =  1.00
     AMIX_MAG =   1.60;   BMIX_MAG =  1.00
     AMIN     =   0.10
     WC   =   100.;   INIMIX=   1;  MIXPRE=   1;  MAXMIX= -45

 Intra band minimization:
   WEIMIN = 0.0000     energy-eigenvalue tresh-hold
   EBREAK =  0.56E-08  absolut break condition
   DEPER  =   0.30     relativ break condition  

   TIME   =   0.40     timestep for ELM

  volume/ion in A,a.u.               =      11.08        74.78
  Fermi-wavevector in a.u.,A,eV,Ry     =   1.445993  2.732531 28.448379  2.090897
  Thomas-Fermi vector in A             =   2.564112
 
 Write flags
   LWAVE        =      F    write WAVECAR
   LDOWNSAMPLE  =      F    k-point downsampling of WAVECAR
   LCHARG       =      F    write CHGCAR
   LVTOT        =      F    write LOCPOT, total local potential
   LVHAR        =      F    write LOCPOT, Hartree potential only
   LELF         =      F    write electronic localiz. function (ELF)
   LORBIT       =     11    0 simple, 1 ext, 2 COOP (PROOUT), +10 PAW based schemes


 Dipole corrections
   LMONO  =      F    monopole corrections only (constant potential shift)
   LDIPOL =      F    correct potential (dipole corrections)
   IDIPOL =      0    1-x, 2-y, 3-z, 4-all directions 
   EPSILON=  1.0000000 bulk dielectric constant

 Exchange correlation treatment:
   GGA     =    --    GGA type
   LEXCH   =     8    internal setting for exchange type
   VOSKOWN=      0    Vosko Wilk Nusair interpolation
   LHFCALC =     F    Hartree Fock is set to
   LHFONE  =     F    Hartree Fock one center treatment
   AEXX    =    0.0000 exact exchange contribution

 Linear response parameters
   LEPSILON=     F    determine dielectric tensor
   LRPA    =     F    only Hartree local field effects (RPA)
   LNABLA  =     F    use nabla operator in PAW spheres
   LVEL    =     F    velocity operator in full k-point grid
   LINTERFAST=   F  fast interpolation
   KINTER  =     0    interpolate to denser k-point grid
   CSHIFT  =0.1000    complex shift for real part using Kramers Kronig
   OMEGAMAX=  -1.0    maximum frequency
   DEG_THRESHOLD= 0.2000000E-02 threshold for treating states as degnerate
   RTIME   =   -0.100 relaxation time in fs
  (WPLASMAI=    0.000 imaginary part of plasma frequency in eV, 0.658/RTIME)
   DFIELD  = 0.0000000 0.0000000 0.0000000 field for delta impulse in time
 
 Orbital magnetization related:
   ORBITALMAG=     F  switch on orbital magnetization
   LCHIMAG   =     F  perturbation theory with respect to B field
   DQ        =  0.001000  dq finite difference perturbation B field
   LLRAUG    =     F  two centre corrections for induced B field



--------------------------------------------------------------------------------------------------------


 Static calculation
 charge density and potential will be updated during run
 spin polarized calculation
 RMM-DIIS sequential band-by-band
 perform sub-space diagonalisation
    before iterative eigenvector-optimisation
 modified Broyden-mixing scheme, WC =      100.0
 initial mixing is a Kerker type mixing with AMIX =  0.4000 and BMIX =      1.0000
 Hartree-type preconditioning will be used
 using additional bands          112
 real space projection scheme for non local part
 use partial core corrections
 calculate Harris-corrections to forces 
   (improved forces if not selfconsistent)
 use gradient corrections 
 use of overlap-Matrix (Vanderbilt PP)
 Gauss-broadening in eV      SIGMA  =   0.05


--------------------------------------------------------------------------------------------------------


  energy-cutoff  :      400.00
  volume of cell :      975.20
      direct lattice vectors                 reciprocal lattice vectors
    10.019000053  0.000000000  0.000000000     0.099810360  0.057625538 -0.000000000
    -5.009500027  8.676708567  0.000000000     0.000000000  0.115251076  0.000000000
     0.000000000  0.000000000 11.218000412     0.000000000  0.000000000  0.089142446

  length of vectors
    10.019000053 10.019000053 11.218000412     0.115251076  0.115251076  0.089142446


 
 k-points in units of 2pi/SCALE and weight: read from INCAR                         
   0.00000000  0.00000000  0.00000000       0.125
   0.04990518  0.02881277 -0.00000000       0.125
   0.00000000  0.05762554  0.00000000       0.125
   0.04990518  0.08643831 -0.00000000       0.125
   0.00000000  0.00000000  0.04457122       0.125
   0.04990518  0.02881277  0.04457122       0.125
   0.00000000  0.05762554  0.04457122       0.125
   0.04990518  0.08643831  0.04457122       0.125
 
 k-points in reciprocal lattice and weights: read from INCAR                         
   0.00000000  0.00000000  0.00000000       0.125
   0.50000000 -0.00000000 -0.00000000       0.125
   0.00000000  0.50000000  0.00000000       0.125
   0.50000000  0.50000000 -0.00000000       0.125
   0.00000000  0.00000000  0.50000000       0.125
   0.50000000 -0.00000000  0.50000000       0.125
   0.00000000  0.50000000  0.50000000       0.125
   0.50000000  0.50000000  0.50000000       0.125
 
 position of ions in fractional coordinates (direct lattice) 
   0.62707147  0.56599046  0.25699589
   0.04060087  0.88896695  0.75702618
   0.49138493  0.06671435  0.74245852
   0.17731137  0.25958329  0.75622836
   0.03637725  0.19852953  0.24380192
   0.37231877  0.25031677  0.24840969
   0.67038830  0.75323296  0.75355230
   0.32632858  0.72386188  0.74003117
   0.70239513  0.92949334  0.24255838
   0.37936509  0.94489649  0.24028079
   0.82405582  0.38605554  0.26332144
   0.82477800  0.09061797  0.74677480
   0.56917288  0.41010943  0.75190406
   0.01715879  0.49498230  0.75121944
   0.99846828  0.77741362  0.26061151
   0.21143597  0.57230803  0.25013014
   0.69281143  0.42243092  0.99988954
   0.33795522  0.26333834  0.50715455
   0.19533675  0.41388160  0.00736313
   0.83916231  0.24547903  0.50634514
   0.18091386  0.91451959  0.00109284
   0.82331518  0.74623113  0.48956586
   0.67973510  0.91276893  0.99131696
   0.33454385  0.75450500  0.49259403
   0.01638230  0.08186531  0.99996284
   0.35295331  0.24665920  0.99527034
   0.00403975  0.08267098  0.50069618
   0.67982489  0.42414125  0.49567301
   0.51366285  0.08224794  0.99314906
   0.84508884  0.24638490  0.00358349
   0.49935967  0.08965059  0.49730877
   0.15973892  0.41360499  0.50931626
   0.52014449  0.58335715  0.99255585
   0.85209039  0.74985001  0.99729366
   0.48936256  0.57860535  0.50475217
   0.16774506  0.92186800  0.49301656
   0.02048850  0.58037215  0.00891745
   0.35367119  0.74854191  0.00515832
   0.00805758  0.59063756  0.49365571
   0.66947480  0.92268052  0.50393027
   0.18062478  0.23046066  0.09416741
   0.35840630  0.08691741  0.08191852
   0.49991879  0.41481513  0.08505758
   0.15989785  0.06867482  0.59327151
   0.32243976  0.43500827  0.59851932
   0.51614321  0.25421276  0.59386252
   0.17739263  0.09743222  0.90443035
   0.36257491  0.40280827  0.89817255
   0.50369067  0.22431317  0.90177390
   0.15702617  0.26031184  0.41429130
   0.34563102  0.08867895  0.41078087
   0.51190659  0.42932870  0.42080048
   0.67219893  0.24102227  0.09481280
   0.85375196  0.09530711  0.09942414
   0.00047280  0.41632838  0.10096630
   0.65561137  0.06574514  0.59592973
   0.84565650  0.43317347  0.59023442
   0.00538736  0.24648287  0.60562843
   0.68359084  0.09549589  0.90880724
   0.86067991  0.41509173  0.91004632
   0.00654972  0.24512060  0.90900335
   0.65327692  0.24995538  0.40570599
   0.84816895  0.07887109  0.41166695
   0.00143143  0.42751004  0.40704313
   0.67866851  0.73326077  0.08394919
   0.86473712  0.60091450  0.10292833
   0.00286209  0.91361718  0.08798609
   0.65944545  0.58008863  0.58956318
   0.83068476  0.91672435  0.59285967
   0.01403338  0.74772939  0.58713940
   0.68629691  0.58863335  0.89669278
   0.85993903  0.91747463  0.90238007
   0.00807368  0.73657654  0.92126935
   0.64880138  0.74490689  0.40587091
   0.83389825  0.57538408  0.39597342
   0.01117204  0.92546614  0.40576661
   0.20498668  0.73952121  0.10537439
   0.35948272  0.59685305  0.09451952
   0.50420551  0.91809123  0.09238634
   0.15433303  0.57878284  0.58729005
   0.32681836  0.93390022  0.59286591
   0.51217460  0.75239591  0.59056247
   0.18943955  0.58891802  0.91652698
   0.36183134  0.89684123  0.90492954
   0.50561175  0.73192616  0.89744158
   0.17316496  0.76031135  0.39956854
   0.32434422  0.56635647  0.41772507
   0.50400349  0.92598362  0.41137367
 
 position of ions in cartesian coordinates  (Angst):
   3.44729989  4.91093427  2.88298000
  -4.04649984  7.71330713  8.49232000
   4.58898005  0.57886100  8.32890000
   0.47610008  2.25232857  8.48337000
  -0.63007005  1.72258287  2.73497000
   2.47629992  2.17192570  2.78666000
   2.94329989  6.53558287  8.45335000
  -0.35670008  6.28073857  8.30167000
   2.38099997  8.06494283  2.72102000
  -0.93260008  8.19859143  2.69547000
   6.32227003  3.34969143  2.95394000
   7.80950011  0.78626573  8.37732000
   3.64809989  3.55840000  8.43486000
  -2.30769995  4.29481713  8.42718000
   6.10920019  6.74539143  2.92354000
  -0.74860011  4.96575000  2.80596000
   4.82511000  3.66531000 11.21676124
   2.06678000  2.28491000  5.68926000
  -0.11626100  3.59113000  0.08259959
   7.17784000  2.12995000  5.68018000
  -2.76871000  7.93502000  0.01225950
   4.51055000  6.47483000  5.49195000
   2.23775000  7.91983000 11.12059401
  -0.42789800  6.54662000  5.52592000
  -0.24597003  0.71032143 11.21758354
   2.30060000  2.14019000 11.16494311
  -0.37366600  0.71731200  5.61681000
   4.68643000  3.68015000  5.56046000
   4.73436703  0.71364143 11.14114661
   7.23268000  2.13781000  0.04019959
   4.55398000  0.77787200  5.57881000
  -0.47153000  3.58873000  5.71351000
   2.28900000  5.06162000 11.13449191
   4.78072000  6.50623000 11.18764071
   2.00440000  5.02039000  5.66231000
  -2.93746000  7.99878000  5.53066000
  -2.70210000  5.03572000  0.10003600
  -0.20638900  6.49488000  0.05786600
  -2.87807000  5.12479000  5.53783000
   2.08530000  8.00583000  5.65309000
   0.65518700  1.99964000  1.05637000
   3.15546000  0.75415700  0.91896200
   2.93067000  3.59923000  0.95417600
   1.25799003  0.59587143  6.65532000
   1.05135000  3.77444000  6.71419000
   3.89776000  2.20573000  6.66195000
   1.28921000  0.84539100 10.14590000
   1.61477000  3.49505000 10.07570000
   3.92278000  1.94630000 10.11610000
   0.26921300  2.25865000  4.64752000
   3.01864003  0.76944143  4.60814000
   2.97807000  3.72516000  4.72054000
   5.52736000  2.09128000  1.06361000
   8.07630000  0.82695200  1.11534000
  -2.08086005  3.61236000  1.13264000
   6.23922003  0.57045143  6.68514000
   6.30265000  3.75852000  6.62125000
  -1.18078000  2.13866000  6.79394000
   6.37051000  0.82859000 10.19500000
   6.54375000  3.60163000 10.20890000
  -1.16231005  2.12684000 10.19720000
   5.29303000  2.16879000  4.55121000
   8.10270003  0.68434143  4.61808000
  -2.12727000  3.70938000  4.56621000
   3.12631000  6.36229000  0.94174200
   5.65352000  5.21396000  1.15465000
  -4.54809005  7.92719000  0.98702800
   3.70103000  5.03326000  6.61372000
   3.73030000  7.95415000  6.65070000
  -3.60515000  6.48783000  6.58653000
   3.92725000  5.10740000 10.05910000
   4.01964000  7.96066000 10.12290000
  -3.60899005  6.39106000 10.33480000
   2.76873000  6.46334000  4.55306000
   5.47244000  4.99244000  4.44203000
  -4.52419000  8.03000000  4.55189000
  -1.65087000  6.41661000  1.18209000
   0.61172200  5.17872000  1.06032000
   0.45245700  7.96601000  1.03639000
  -1.35315000  5.02193000  6.58822000
  -1.40398000  8.10318000  6.65077000
   1.36235000  6.52832000  6.62493000
  -1.05219000  5.10987000 10.28160000
  -0.86753800  7.78163000 10.15150000
   1.39914000  6.35071000 10.06750000
  -2.07384000  6.59700000  4.48236000
   0.41244200  4.91411000  4.68604000
   0.41089600  8.03449000  4.61479000
 


--------------------------------------------------------------------------------------------------------


 k-point  1 :   0.0000 0.0000 0.0000  plane waves:   17725
 k-point  2 :   0.5000-0.0000-0.0000  plane waves:   17736
 k-point  3 :   0.0000 0.5000 0.0000  plane waves:   17736
 k-point  4 :   0.5000 0.5000-0.0000  plane waves:   17736
 k-point  5 :   0.0000 0.0000 0.5000  plane waves:   17676
 k-point  6 :   0.5000-0.0000 0.5000  plane waves:   17700
 k-point  7 :   0.0000 0.5000 0.5000  plane waves:   17700
 k-point  8 :   0.5000 0.5000 0.5000  plane waves:   17700

 maximum and minimum number of plane-waves per node :     17736    17676

 maximum number of plane-waves:     17736
 maximum index in each direction: 
   IXMAX=   16   IYMAX=   16   IZMAX=   18
   IXMIN=  -16   IYMIN=  -16   IZMIN=  -18


 serial   3D FFT for wavefunctions
 parallel 3D FFT for charge:
    minimum data exchange during FFTs selected (reduces bandwidth)


 total amount of memory used by VASP MPI-rank0    88177. kBytes
=======================================================================

   base      :      30000. kBytes
   nonlr-proj:      13668. kBytes
   fftplans  :        992. kBytes
   grid      :      21513. kBytes
   one-center:       2737. kBytes
   wavefun   :      19267. kBytes
 
     INWAV:  cpu time    0.0000: real time    0.0001
 Broyden mixing: mesh for mixing (old mesh)
   NGX = 33   NGY = 33   NGZ = 37
  (NGX  =100   NGY  =100   NGZ  =112)
  gives a total of  40293 points

 initial charge density was supplied:
 charge density of overlapping atoms calculated
 number of electron     672.0000000 magnetization      48.0000000
 keeping initial charge density in first step


--------------------------------------------------------------------------------------------------------


 Maximum index for non-local projection operator         1550
 Maximum index for augmentation-charges          291 (set IRDMAX)


--------------------------------------------------------------------------------------------------------


 First call to EWALD:  gamma=   0.179
 Maximum number of real-space cells 3x 3x 2
 Maximum number of reciprocal cells 3x 3x 3

    FEWALD:  cpu time    0.0024: real time    0.0030


--------------------------------------- Iteration      1(   1)  ---------------------------------------


    POTLOK:  cpu time    0.2021: real time    0.2035
    SETDIJ:  cpu time    3.0855: real time    3.0860
    EDDIAG:  cpu time    3.7485: real time    3.8107
  RMM-DIIS:  cpu time    6.6280: real time    6.6316
    ORTHCH:  cpu time    1.1463: real time    1.1488
       DOS:  cpu time    0.0017: real time    0.0018
    --------------------------------------------
      LOOP:  cpu time   14.8122: real time   14.8824

 eigenvalue-minimisations  :  7168
 total energy-change (2. order) : 0.1845393E+04  (-0.3593086E+05)
 number of electron     672.0000000 magnetization      48.0000000
 augmentation part      672.0000000 magnetization      48.0000000

 Free energy of the ion-electron system (eV)
  ---------------------------------------------------
  alpha Z        PSCENC =      2652.81237852
  Ewald energy   TEWEN  =    -41874.39187182
  -Hartree energ DENC   =    -25740.35199946
  -exchange      EXHF   =         0.00000000
  -V(xc)+E(xc)   XCENC  =      3606.17104706
  PAW double counting   =     55594.23204139   -59034.67079123
  entropy T*S    EENTRO =        -0.06384770
  eigenvalues    EBANDS =     -7220.54223404
  atomic energy  EATOM  =     73862.19814772
  Solvation  Ediel_sol  =         0.00000000
  ---------------------------------------------------
  free energy    TOTEN  =      1845.39287044 eV

  energy without entropy =     1845.45671814  energy(sigma->0) =     1845.42479429


--------------------------------------------------------------------------------------------------------




--------------------------------------- Iteration      1(   2)  ---------------------------------------


    EDDIAG:  cpu time    3.7218: real time    3.7255
  RMM-DIIS:  cpu time    6.5983: real time    6.6029
    ORTHCH:  cpu time    1.1428: real time    1.1451
       DOS:  cpu time    0.0014: real time    0.0014
    --------------------------------------------
      LOOP:  cpu time   11.4642: real time   11.4748

 eigenvalue-minimisations  :  7168
 total energy-change (2. order) :-0.2686009E+04  (-0.8679871E+04)
 number of electron     672.0000000 magnetization      48.0000000
 augmentation part      672.0000000 magnetization      48.0000000

 Free energy of the ion-electron system (eV)
  ---------------------------------------------------
  alpha Z        PSCENC =      2652.81237852
  Ewald energy   TEWEN  =    -41874.39187182
  -Hartree energ DENC   =    -25740.35199946
  -exchange      EXHF   =         0.00000000
  -V(xc)+E(xc)   XCENC  =      3606.17104706
  PAW double counting   =     55594.23204139   -59034.67079123
  entropy T*S    EENTRO =        -0.04692673
  eigenvalues    EBANDS =     -9906.56796554
  atomic energy  EATOM  =     73862.19814772
  Solvation  Ediel_sol  =         0.00000000
  ---------------------------------------------------
  free energy    TOTEN  =      -840.61594008 eV

  energy without entropy =     -840.56901335  energy(sigma->0) =     -840.59247672


--------------------------------------------------------------------------------------------------------




--------------------------------------- Iteration      1(   3)  ---------------------------------------


    EDDIAG:  cpu time    3.7190: real time    3.7229
  RMM-DIIS:  cpu time    6.5899: real time    6.6219
    ORTHCH:  cpu time    1.1772: real time    1.1802
       DOS:  cpu time    0.0014: real time    0.0014
    --------------------------------------------
      LOOP:  cpu time   11.4875: real time   11.5264

 eigenvalue-minimisations  :  7168
 total energy-change (2. order) : 0.3075139E+03  (-0.1561182E+04)
 number of electron     672.0000000 magnetization      48.0000000
 augmentation part      672.0000000 magnetization      48.0000000

 Free energy of the ion-electron system (eV)
  ---------------------------------------------------
  alpha Z        PSCENC =      2652.81237852
  Ewald energy   TEWEN  =    -41874.39187182
  -Hartree energ DENC   =    -25740.35199946
  -exchange      EXHF   =         0.00000000
  -V(xc)+E(xc)   XCENC  =      3606.17104706
  PAW double counting   =     55594.23204139   -59034.67079123
  entropy T*S    EENTRO =        -0.04778775
  eigenvalues    EBANDS =     -9599.05324644
  atomic energy  EATOM  =     73862.19814772
  Solvation  Ediel_sol  =         0.00000000
  ---------------------------------------------------
  free energy    TOTEN  =      -533.10208201 eV

  energy without entropy =     -533.05429426  energy(sigma->0) =     -533.07818814


--------------------------------------------------------------------------------------------------------




--------------------------------------- Iteration      1(   4)  ---------------------------------------


    EDDIAG:  cpu time    3.7566: real time    3.7604
  RMM-DIIS:  cpu time    6.6035: real time    6.6069
    ORTHCH:  cpu time    1.1396: real time    1.1426
       DOS:  cpu time    0.0012: real time    0.0012
    --------------------------------------------
      LOOP:  cpu time   11.5008: real time   11.5111

 eigenvalue-minimisations  :  7168
 total energy-change (2. order) :-0.5243878E+03  (-0.5064108E+03)
 number of electron     672.0000000 magnetization      48.0000000
 augmentation part      672.0000000 magnetization      48.0000000

 Free energy of the ion-electron system (eV)
  ---------------------------------------------------
  alpha Z        PSCENC =      2652.81237852
  Ewald energy   TEWEN  =    -41874.39187182
  -Hartree energ DENC   =    -25740.35199946
  -exchange      EXHF   =         0.00000000
  -V(xc)+E(xc)   XCENC  =      3606.17104706
  PAW double counting   =     55594.23204139   -59034.67079123
  entropy T*S    EENTRO =        -0.00014522
  eigenvalues    EBANDS =    -10123.48873598
  atomic energy  EATOM  =     73862.19814772
  Solvation  Ediel_sol  =         0.00000000
  ---------------------------------------------------
  free energy    TOTEN  =     -1057.48992902 eV

  energy without entropy =    -1057.48978380  energy(sigma->0) =    -1057.48985641


--------------------------------------------------------------------------------------------------------




--------------------------------------- Iteration      1(   5)  ---------------------------------------


    EDDIAG:  cpu time    3.7327: real time    3.7358
  RMM-DIIS:  cpu time    6.6266: real time    6.6300
    ORTHCH:  cpu time    1.1525: real time    1.1549
       DOS:  cpu time    0.0011: real time    0.0011
    --------------------------------------------
      LOOP:  cpu time   11.5130: real time   11.5217

 eigenvalue-minimisations  :  7168
 total energy-change (2. order) :-0.1473578E+03  (-0.2127063E+03)
 number of electron     672.0000000 magnetization      48.0000000
 augmentation part      672.0000000 magnetization      48.0000000

 Free energy of the ion-electron system (eV)
  ---------------------------------------------------
  alpha Z        PSCENC =      2652.81237852
  Ewald energy   TEWEN  =    -41874.39187182
  -Hartree energ DENC   =    -25740.35199946
  -exchange      EXHF   =         0.00000000
  -V(xc)+E(xc)   XCENC  =      3606.17104706
  PAW double counting   =     55594.23204139   -59034.67079123
  entropy T*S    EENTRO =        -0.00000000
  eigenvalues    EBANDS =    -10270.84664249
  atomic energy  EATOM  =     73862.19814772
  Solvation  Ediel_sol  =         0.00000000
  ---------------------------------------------------
  free energy    TOTEN  =     -1204.84769030 eV

  energy without entropy =    -1204.84769030  energy(sigma->0) =    -1204.84769030


--------------------------------------------------------------------------------------------------------




--------------------------------------- Iteration      1(   6)  ---------------------------------------


    EDDIAG:  cpu time    3.7276: real time    3.7324
  RMM-DIIS:  cpu time    6.5708: real time    6.6231
    ORTHCH:  cpu time    1.1437: real time    1.1466
       DOS:  cpu time    0.0013: real time    0.0013
    --------------------------------------------
      LOOP:  cpu time   11.4433: real time   11.5034

 eigenvalue-minimisations  :  7168
 total energy-change (2. order) :-0.2151871E+02  (-0.1151291E+03)
 number of electron     672.0000000 magnetization      48.0000000
 augmentation part      672.0000000 magnetization      48.0000000

 Free energy of the ion-electron system (eV)
  ---------------------------------------------------
  alpha Z        PSCENC =      2652.81237852
  Ewald energy   TEWEN  =    -41874.39187182
  -Hartree energ DENC   =    -25740.35199946
  -exchange      EXHF   =         0.00000000
  -V(xc)+E(xc)   XCENC  =      3606.17104706
  PAW double counting   =     55594.23204139   -59034.67079123
  entropy T*S    EENTRO =        -0.00000000
  eigenvalues    EBANDS =    -10292.36535407
  atomic energy  EATOM  =     73862.19814772
  Solvation  Ediel_sol  =         0.00000000
  ---------------------------------------------------
  free energy    TOTEN  =     -1226.36640189 eV

  energy without entropy =    -1226.36640189  energy(sigma->0) =    -1226.36640189


--------------------------------------------------------------------------------------------------------




--------------------------------------- Iteration      1(   7)  ---------------------------------------


    EDDIAG:  cpu time    3.7376: real time    3.7420
  RMM-DIIS:  cpu time    6.6100: real time    6.6164
    ORTHCH:  cpu time    1.1389: real time    1.1413
       DOS:  cpu time    0.0011: real time    0.0011
    --------------------------------------------
      LOOP:  cpu time   11.4876: real time   11.5007

 eigenvalue-minimisations  :  7168
 total energy-change (2. order) :-0.6744443E+01  (-0.7600592E+02)
 number of electron     672.0000000 magnetization      48.0000000
 augmentation part      672.0000000 magnetization      48.0000000

 Free energy of the ion-electron system (eV)
  ---------------------------------------------------
  alpha Z        PSCENC =      2652.81237852
  Ewald energy   TEWEN  =    -41874.39187182
  -Hartree energ DENC   =    -25740.35199946
  -exchange      EXHF   =         0.00000000
  -V(xc)+E(xc)   XCENC  =      3606.17104706
  PAW double counting   =     55594.23204139   -59034.67079123
  entropy T*S    EENTRO =        -0.00000000
  eigenvalues    EBANDS =    -10299.10979752
  atomic energy  EATOM  =     73862.19814772
  Solvation  Ediel_sol  =         0.00000000
  ---------------------------------------------------
  free energy    TOTEN  =     -1233.11084534 eV

  energy without entropy =    -1233.11084534  energy(sigma->0) =    -1233.11084534


--------------------------------------------------------------------------------------------------------




--------------------------------------- Iteration      1(   8)  ---------------------------------------


    EDDIAG:  cpu time    3.7212: real time    3.7241
  RMM-DIIS:  cpu time    6.6414: real time    6.6449
    ORTHCH:  cpu time    1.1431: real time    1.1459
       DOS:  cpu time    0.0015: real time    0.0015
    --------------------------------------------
      LOOP:  cpu time   11.5072: real time   11.5165

 eigenvalue-minimisations  :  7168
 total energy-change (2. order) : 0.4604574E+01  (-0.5264568E+02)
 number of electron     672.0000000 magnetization      48.0000000
 augmentation part      672.0000000 magnetization      48.0000000

 Free energy of the ion-electron system (eV)
  ---------------------------------------------------
  alpha Z        PSCENC =      2652.81237852
  Ewald energy   TEWEN  =    -41874.39187182
  -Hartree energ DENC   =    -25740.35199946
  -exchange      EXHF   =         0.00000000
  -V(xc)+E(xc)   XCENC  =      3606.17104706
  PAW double counting   =     55594.23204139   -59034.67079123
  entropy T*S    EENTRO =        -0.00000000
  eigenvalues    EBANDS =    -10294.50522339
  atomic energy  EATOM  =     73862.19814772
  Solvation  Ediel_sol  =         0.00000000
  ---------------------------------------------------
  free energy    TOTEN  =     -1228.50627121 eV

  energy without entropy =    -1228.50627121  energy(sigma->0) =    -1228.50627121


--------------------------------------------------------------------------------------------------------




--------------------------------------- Iteration      1(   9)  ---------------------------------------


    EDDIAG:  cpu time    3.7523: real time    3.7711
  RMM-DIIS:  cpu time   13.8576: real time   13.8663
    ORTHCH:  cpu time    1.1518: real time    1.1541
       DOS:  cpu time    0.0010: real time    0.0010
    --------------------------------------------
      LOOP:  cpu time   18.7627: real time   18.7925

 eigenvalue-minimisations  : 20216
 total energy-change (2. order) : 0.1803013E+02  (-0.2358516E+02)
 number of electron     672.0000000 magnetization      48.0000000
 augmentation part      672.0000000 magnetization      48.0000000

 Free energy of the ion-electron system (eV)
  ---------------------------------------------------
  alpha Z        PSCENC =      2652.81237852
  Ewald energy   TEWEN  =    -41874.39187182
  -Hartree energ DENC   =    -25740.35199946
  -exchange      EXHF   =         0.00000000
  -V(xc)+E(xc)   XCENC  =      3606.17104706
  PAW double counting   =     55594.23204139   -59034.67079123
  entropy T*S    EENTRO =        -0.00000000
  eigenvalues    EBANDS =    -10276.47509710
  atomic energy  EATOM  =     73862.19814772
  Solvation  Ediel_sol  =         0.00000000
  ---------------------------------------------------
  free energy    TOTEN  =     -1210.47614492 eV

  energy without entropy =    -1210.47614492  energy(sigma->0) =    -1210.47614492


--------------------------------------------------------------------------------------------------------




--------------------------------------- Iteration      1(  10)  ---------------------------------------


    EDDIAG:  cpu time    3.7029: real time    3.7171
  RMM-DIIS:  cpu time   15.6924: real time   15.8091
    ORTHCH:  cpu time    1.1425: real time    1.1454
       DOS:  cpu time    0.0013: real time    0.0013
    --------------------------------------------
      LOOP:  cpu time   20.5389: real time   20.6728

 eigenvalue-minimisations  : 20266
 total energy-change (2. order) :-0.3074014E+01  (-0.1035210E+01)
 number of electron     672.0000000 magnetization      48.0000000
 augmentation part      672.0000000 magnetization      48.0000000

 Free energy of the ion-electron system (eV)
  ---------------------------------------------------
  alpha Z        PSCENC =      2652.81237852
  Ewald energy   TEWEN  =    -41874.39187182
  -Hartree energ DENC   =    -25740.35199946
  -exchange      EXHF   =         0.00000000
  -V(xc)+E(xc)   XCENC  =      3606.17104706
  PAW double counting   =     55594.23204139   -59034.67079123
  entropy T*S    EENTRO =        -0.00000003
  eigenvalues    EBANDS =    -10279.54911090
  atomic energy  EATOM  =     73862.19814772
  Solvation  Ediel_sol  =         0.00000000
  ---------------------------------------------------
  free energy    TOTEN  =     -1213.55015874 eV

  energy without entropy =    -1213.55015872  energy(sigma->0) =    -1213.55015873


--------------------------------------------------------------------------------------------------------




--------------------------------------- Iteration      1(  11)  ---------------------------------------


    EDDIAG:  cpu time    3.7317: real time    3.7349
  RMM-DIIS:  cpu time   15.2302: real time   15.2390
    ORTHCH:  cpu time    1.1466: real time    1.1495
       DOS:  cpu time    0.0013: real time    0.0013
    --------------------------------------------
      LOOP:  cpu time   20.1098: real time   20.1248

 eigenvalue-minimisations  : 21680
 total energy-change (2. order) : 0.1064733E+00  (-0.9902331E-01)
 number of electron     672.0000000 magnetization      48.0000000
 augmentation part      672.0000000 magnetization      48.0000000

 Free energy of the ion-electron system (eV)
  ---------------------------------------------------
  alpha Z        PSCENC =      2652.81237852
  Ewald energy   TEWEN  =    -41874.39187182
  -Hartree energ DENC   =    -25740.35199946
  -exchange      EXHF   =         0.00000000
  -V(xc)+E(xc)   XCENC  =      3606.17104706
  PAW double counting   =     55594.23204139   -59034.67079123
  entropy T*S    EENTRO =        -0.00000003
  eigenvalues    EBANDS =    -10279.44263761
  atomic energy  EATOM  =     73862.19814772
  Solvation  Ediel_sol  =         0.00000000
  ---------------------------------------------------
  free energy    TOTEN  =     -1213.44368546 eV

  energy without entropy =    -1213.44368543  energy(sigma->0) =    -1213.44368544


--------------------------------------------------------------------------------------------------------




--------------------------------------- Iteration      1(  12)  ---------------------------------------


    EDDIAG:  cpu time    3.7311: real time    3.7584
  RMM-DIIS:  cpu time   16.1033: real time   16.1130
    ORTHCH:  cpu time    1.1402: real time    1.1425
       DOS:  cpu time    0.0013: real time    0.0013
    CHARGE:  cpu time    1.3472: real time    1.3480
    MIXING:  cpu time    0.0013: real time    0.0015
    --------------------------------------------
      LOOP:  cpu time   22.3245: real time   22.3648

 eigenvalue-minimisations  : 22790
 total energy-change (2. order) : 0.6109556E-02  (-0.7265220E-02)
 number of electron     672.0000345 magnetization      48.0000022
 augmentation part      239.1072832 magnetization      29.0452683

 Broyden mixing:
  rms(total) = 0.12650E+02    rms(broyden)= 0.12641E+02
  rms(prec ) = 0.14485E+02
  weight for this iteration     100.00

 Free energy of the ion-electron system (eV)
  ---------------------------------------------------
  alpha Z        PSCENC =      2652.81237852
  Ewald energy   TEWEN  =    -41874.39187182
  -Hartree energ DENC   =    -25740.35199946
  -exchange      EXHF   =         0.00000000
  -V(xc)+E(xc)   XCENC  =      3606.17104706
  PAW double counting   =     55594.23204139   -59034.67079123
  entropy T*S    EENTRO =        -0.00000002
  eigenvalues    EBANDS =    -10279.43652806
  atomic energy  EATOM  =     73862.19814772
  Solvation  Ediel_sol  =         0.00000000
  ---------------------------------------------------
  free energy    TOTEN  =     -1213.43757590 eV

  energy without entropy =    -1213.43757588  energy(sigma->0) =    -1213.43757589


--------------------------------------------------------------------------------------------------------




--------------------------------------- Iteration      1(  13)  ---------------------------------------


    POTLOK:  cpu time    0.1979: real time    0.1989
    SETDIJ:  cpu time    3.2729: real time    3.2734
    EDDIAG:  cpu time    3.7150: real time    3.7187
  RMM-DIIS:  cpu time   13.0341: real time   13.0866
    ORTHCH:  cpu time    1.1806: real time    1.1830
       DOS:  cpu time    0.0016: real time    0.0016
    CHARGE:  cpu time    1.3484: real time    1.3501
    MIXING:  cpu time    0.0007: real time    0.0008
    --------------------------------------------
      LOOP:  cpu time   22.7514: real time   22.8131

 eigenvalue-minimisations  : 17288
 total energy-change (2. order) : 0.2256470E+03  (-0.1375251E+03)
 number of electron     672.0000463 magnetization      48.0000026
 augmentation part      268.7927331 magnetization      26.6416564

 Broyden mixing:
  rms(total) = 0.13880E+02    rms(broyden)= 0.13877E+02
  rms(prec ) = 0.15577E+02
  weight for this iteration     100.00

 eigenvalues of (default mixing * dielectric matrix)
  average eigenvalue GAMMA=   0.3203
  0.3203

 Free energy of the ion-electron system (eV)
  ---------------------------------------------------
  alpha Z        PSCENC =      2652.81237852
  Ewald energy   TEWEN  =    -41874.39187182
  -Hartree energ DENC   =    -25073.64821946
  -exchange      EXHF   =         0.00000000
  -V(xc)+E(xc)   XCENC  =      3696.71065223
  PAW double counting   =     59955.35238738   -63380.65360373
  entropy T*S    EENTRO =        -0.08222399
  eigenvalues    EBANDS =    -10826.08820327
  atomic energy  EATOM  =     73862.19814772
  Solvation  Ediel_sol  =         0.00000000
  ---------------------------------------------------
  free energy    TOTEN  =      -987.79055641 eV

  energy without entropy =     -987.70833242  energy(sigma->0) =     -987.74944442


--------------------------------------------------------------------------------------------------------




--------------------------------------- Iteration      1(  14)  ---------------------------------------


    POTLOK:  cpu time    0.2070: real time    0.2071
    SETDIJ:  cpu time    3.2661: real time    3.2668
    EDDIAG:  cpu time    3.7313: real time    3.7344
  RMM-DIIS:  cpu time   13.6710: real time   13.7274
    ORTHCH:  cpu time    1.1627: real time    1.1649
       DOS:  cpu time    0.0019: real time    0.0019
    CHARGE:  cpu time    1.3458: real time    1.3471
    MIXING:  cpu time    0.0007: real time    0.0007
    --------------------------------------------
      LOOP:  cpu time   23.3864: real time   23.4502

 eigenvalue-minimisations  : 17758
 total energy-change (2. order) : 0.7337389E+02  (-0.1855726E+02)
 number of electron     672.0000399 magnetization      48.0000041
 augmentation part      246.6678606 magnetization      32.2195723

 Broyden mixing:
  rms(total) = 0.53001E+01    rms(broyden)= 0.52959E+01
  rms(prec ) = 0.57127E+01
  weight for this iteration     100.00

 eigenvalues of (default mixing * dielectric matrix)
  average eigenvalue GAMMA=   0.7337
  1.1071  0.3604

 Free energy of the ion-electron system (eV)
  ---------------------------------------------------
  alpha Z        PSCENC =      2652.81237852
  Ewald energy   TEWEN  =    -41874.39187182
  -Hartree energ DENC   =    -25683.40694449
  -exchange      EXHF   =         0.00000000
  -V(xc)+E(xc)   XCENC  =      3674.64744321
  PAW double counting   =     63400.84946416   -66883.47459053
  entropy T*S    EENTRO =        -0.00000000
  eigenvalues    EBANDS =    -10063.65069678
  atomic energy  EATOM  =     73862.19814772
  Solvation  Ediel_sol  =         0.00000000
  ---------------------------------------------------
  free energy    TOTEN  =      -914.41667000 eV

  energy without entropy =     -914.41667000  energy(sigma->0) =     -914.41667000


--------------------------------------------------------------------------------------------------------




--------------------------------------- Iteration      1(  15)  ---------------------------------------


    POTLOK:  cpu time    0.2031: real time    0.2047
    SETDIJ:  cpu time    3.2545: real time    3.2551
    EDDIAG:  cpu time    3.7746: real time    3.7778
  RMM-DIIS:  cpu time   13.7204: real time   13.7252
    ORTHCH:  cpu time    1.1432: real time    1.1455
       DOS:  cpu time    0.0010: real time    0.0010
    CHARGE:  cpu time    1.3969: real time    1.4122
    MIXING:  cpu time    0.0007: real time    0.0006
    --------------------------------------------
      LOOP:  cpu time   23.4944: real time   23.5221

 eigenvalue-minimisations  : 18392
 total energy-change (2. order) : 0.1347403E+02  (-0.2039158E+01)
 number of electron     672.0000408 magnetization      48.0000053
 augmentation part      249.6427996 magnetization      33.8008706

 Broyden mixing:
  rms(total) = 0.21711E+01    rms(broyden)= 0.21708E+01
  rms(prec ) = 0.22569E+01
  weight for this iteration     100.00

 eigenvalues of (default mixing * dielectric matrix)
  average eigenvalue GAMMA=   0.9505
  1.7156  0.3875  0.7484

 Free energy of the ion-electron system (eV)
  ---------------------------------------------------
  alpha Z        PSCENC =      2652.81237852
  Ewald energy   TEWEN  =    -41874.39187182
  -Hartree energ DENC   =    -25605.93726545
  -exchange      EXHF   =         0.00000000
  -V(xc)+E(xc)   XCENC  =      3706.97458836
  PAW double counting   =     67543.30069859   -71066.60299697
  entropy T*S    EENTRO =        -0.00000000
  eigenvalues    EBANDS =    -10119.29632049
  atomic energy  EATOM  =     73862.19814772
  Solvation  Ediel_sol  =         0.00000000
  ---------------------------------------------------
  free energy    TOTEN  =      -900.94264153 eV

  energy without entropy =     -900.94264153  energy(sigma->0) =     -900.94264153


--------------------------------------------------------------------------------------------------------




--------------------------------------- Iteration      1(  16)  ---------------------------------------


    POTLOK:  cpu time    0.2175: real time    0.2176
    SETDIJ:  cpu time    3.2895: real time    3.2901
    EDDIAG:  cpu time    3.7233: real time    3.7253
  RMM-DIIS:  cpu time   13.1374: real time   13.1426
    ORTHCH:  cpu time    1.1594: real time    1.1616
       DOS:  cpu time    0.0013: real time    0.0013
    CHARGE:  cpu time    1.3560: real time    1.3565
    MIXING:  cpu time    0.0010: real time    0.0010
    --------------------------------------------
      LOOP:  cpu time   22.8854: real time   22.8960

 eigenvalue-minimisations  : 17403
 total energy-change (2. order) :-0.1437395E+01  (-0.7258713E+00)
 number of electron     672.0000418 magnetization      48.0000057
 augmentation part      251.1591112 magnetization      33.8930795

 Broyden mixing:
  rms(total) = 0.14220E+01    rms(broyden)= 0.14215E+01
  rms(prec ) = 0.15074E+01
  weight for this iteration     100.00

 eigenvalues of (default mixing * dielectric matrix)
  average eigenvalue GAMMA=   0.9736
  2.0801  0.8984  0.3947  0.5213

 Free energy of the ion-electron system (eV)
  ---------------------------------------------------
  alpha Z        PSCENC =      2652.81237852
  Ewald energy   TEWEN  =    -41874.39187182
  -Hartree energ DENC   =    -25553.81677574
  -exchange      EXHF   =         0.00000000
  -V(xc)+E(xc)   XCENC  =      3708.18215140
  PAW double counting   =     70513.12483242   -74066.24065236
  entropy T*S    EENTRO =        -0.00000000
  eigenvalues    EBANDS =    -10144.24824650
  atomic energy  EATOM  =     73862.19814772
  Solvation  Ediel_sol  =         0.00000000
  ---------------------------------------------------
  free energy    TOTEN  =      -902.38003636 eV

  energy without entropy =     -902.38003636  energy(sigma->0) =     -902.38003636


--------------------------------------------------------------------------------------------------------




--------------------------------------- Iteration      1(  17)  ---------------------------------------


    POTLOK:  cpu time    0.2077: real time    0.2078
    SETDIJ:  cpu time    3.2923: real time    3.2928
    EDDIAG:  cpu time    3.7770: real time    3.8017
  RMM-DIIS:  cpu time   13.9082: real time   13.9130
    ORTHCH:  cpu time    1.1498: real time    1.1522
       DOS:  cpu time    0.0010: real time    0.0010
    CHARGE:  cpu time    1.3513: real time    1.3516
    MIXING:  cpu time    0.0015: real time    0.0015
    --------------------------------------------
      LOOP:  cpu time   23.6888: real time   23.7217

 eigenvalue-minimisations  : 18543
 total energy-change (2. order) : 0.1516100E+00  (-0.6535850E-01)
 number of electron     672.0000416 magnetization      48.0000060
 augmentation part      251.0911017 magnetization      33.8879165

 Broyden mixing:
  rms(total) = 0.75945E+00    rms(broyden)= 0.75935E+00
  rms(prec ) = 0.85446E+00
  weight for this iteration     100.00

 eigenvalues of (default mixing * dielectric matrix)
  average eigenvalue GAMMA=   1.0036
  2.2411  1.1319  0.3842  0.6965  0.5646

 Free energy of the ion-electron system (eV)
  ---------------------------------------------------
  alpha Z        PSCENC =      2652.81237852
  Ewald energy   TEWEN  =    -41874.39187182
  -Hartree energ DENC   =    -25544.90584052
  -exchange      EXHF   =         0.00000000
  -V(xc)+E(xc)   XCENC  =      3705.27295675
  PAW double counting   =     71355.96689136   -74917.24088710
  entropy T*S    EENTRO =        -0.00000000
  eigenvalues    EBANDS =    -10141.94020129
  atomic energy  EATOM  =     73862.19814772
  Solvation  Ediel_sol  =         0.00000000
  ---------------------------------------------------
  free energy    TOTEN  =      -902.22842638 eV

  energy without entropy =     -902.22842638  energy(sigma->0) =     -902.22842638


--------------------------------------------------------------------------------------------------------




--------------------------------------- Iteration      1(  18)  ---------------------------------------


    POTLOK:  cpu time    0.2000: real time    0.2001
    SETDIJ:  cpu time    3.2894: real time    3.2901
    EDDIAG:  cpu time    3.7243: real time    3.7264
  RMM-DIIS:  cpu time   13.3030: real time   13.3519
    ORTHCH:  cpu time    1.1550: real time    1.1572
       DOS:  cpu time    0.0011: real time    0.0011
    CHARGE:  cpu time    1.3558: real time    1.3564
    MIXING:  cpu time    0.0009: real time    0.0009
    --------------------------------------------
      LOOP:  cpu time   23.0296: real time   23.0841

 eigenvalue-minimisations  : 17603
 total energy-change (2. order) : 0.3906865E+00  (-0.7195835E-01)
 number of electron     672.0000413 magnetization      48.0000061
 augmentation part      250.5982922 magnetization      33.8530234

 Broyden mixing:
  rms(total) = 0.26598E+00    rms(broyden)= 0.26570E+00
  rms(prec ) = 0.27870E+00
  weight for this iteration     100.00

 eigenvalues of (default mixing * dielectric matrix)
  average eigenvalue GAMMA=   1.0227
  2.4704  1.3609  0.8480  0.3859  0.5841  0.4870

 Free energy of the ion-electron system (eV)
  ---------------------------------------------------
[...]
   4      -0.823    -0.741     1.565     0.095     0.509    -0.336
   5      -0.920    -0.859     1.779    -0.131     0.233     0.260
   6      -0.730    -0.659     1.389    -0.078     0.155    -0.013
   7      -0.817    -0.705     1.522     0.105     0.414    -0.315
   8      -0.581    -0.647     1.228     0.043     0.001     0.162
   9      -0.607    -0.689     1.296     0.092    -0.037     0.043
  10      -0.950    -0.755     1.706     0.006    -0.447     0.279
  11      -0.759    -0.685     1.444     0.126    -0.477     0.299
  12      -0.585    -0.907     1.492     0.026    -0.040     0.468
  13      -0.693    -0.691     1.384    -0.137    -0.384    -0.245
  14      -0.969    -0.866     1.835    -0.062    -0.335    -0.167
  15      -0.877    -0.627     1.503    -0.129     0.490     0.254
  16      -0.583    -0.859     1.442     0.007     0.058    -0.544
  17       1.470     1.388    -2.857    -0.063     0.058    -0.006
  18       1.474     1.515    -2.989    -0.085    -0.136     0.059
  19       1.246     1.573    -2.819    -0.052    -0.116     0.096
  20       1.297     1.551    -2.848    -0.128     0.031    -0.071
  21       1.500     1.488    -2.988     0.337     0.095     0.085
  22       1.384     1.498    -2.883     0.130    -0.167    -0.007
  23       1.282     1.564    -2.846    -0.153    -0.019     0.015
  24       1.478     1.567    -3.045     0.074     0.131    -0.147
  25       0.399    -0.126    -0.273    -0.460    -0.352     0.314
  26       1.538    -0.987    -0.551     0.284     0.519     0.601
  27      -0.425    -0.080     0.505     0.211    -0.963    -0.349
  28      -0.980    -0.289     1.269     0.057     0.420     0.340
  29       0.347    -0.300    -0.048     1.185     0.175     0.957
  30       0.264    -0.280     0.016     0.024    -0.693     0.506
  31      -0.460    -0.540     1.001     0.308    -0.863    -0.648
  32       0.035    -0.502     0.467    -0.605    -0.398    -0.700
  33       1.749    -0.717    -1.032     0.124    -0.923     0.227
  34      -2.128     0.874     1.255     0.253    -0.754    -0.585
  35      -2.675     0.018     2.656     0.030     0.806    -0.244
  36      -0.584     0.434     0.150     0.016    -0.772    -1.414
  37      -0.099    -0.257     0.356     0.834     0.278     1.137
  38       3.586    -1.241    -2.345    -0.461     1.366     1.543
  39       0.697    -0.834     0.137     0.552    -1.021    -0.700
  40      -1.308    -0.740     2.048     0.558     0.532    -0.635
  41      -1.115     1.579    -0.464    -5.189     1.121    -3.769
  42      -2.493     1.103     1.390     4.429     3.540     3.620
  43       7.940    -7.015    -0.925     0.350    -3.567    -1.201
  44      -2.745     2.677     0.068     5.057    -2.757    -4.872
  45      -4.355     3.478     0.877    -5.880    -3.038     3.913
  46       4.815    -4.325    -0.490    -1.815     4.345    -1.401
  47      -4.309     4.566    -0.256    -5.113     3.334    -2.201
  48       7.206    -6.314    -0.892     0.902    -6.068     1.962
  49      -3.468     3.108     0.359     6.817     2.825     5.057
  50       5.863    -5.897     0.033    -0.668     3.868    -0.212
  51      -4.776     2.863     1.912    -4.292    -3.921     3.186
  52      -5.408     3.623     1.785     3.489    -0.794    -4.550
  53      -4.625     3.998     0.627    -3.270     1.787    -4.771
  54      -2.848     2.585     0.263     5.183     0.915     3.760
  55       6.873    -6.331    -0.542    -0.168    -4.255     1.937
  56      -1.358     1.222     0.135     6.177     0.144    -4.909
  57      -1.646     1.804    -0.158    -5.241    -3.176     4.365
  58       4.053    -4.349     0.296     0.116     3.786    -0.342
  59      -3.491     1.971     1.520    -4.245     0.917    -4.139
  60       6.128    -6.460     0.333    -0.643    -5.419    -1.332
  61      -3.359     2.687     0.673     4.388     2.229     4.484
  62       6.593    -7.788     1.195    -1.342     5.193    -0.985
  63      -4.921     4.301     0.620    -3.931    -2.609     3.512
  64      -0.483    -0.421     0.904     4.937    -2.379    -3.867
  65      -2.241     1.997     0.244    -6.107     0.892    -4.158
  66      -2.135     2.972    -0.837     5.418     2.049     5.234
  67       5.414    -7.008     1.594    -0.780    -5.228    -0.219
  68      -5.190     4.335     0.855     3.347    -1.612    -5.156
  69      -4.734     3.327     1.407    -2.936    -1.878     4.843
  70       6.224    -6.412     0.188     1.233     5.650     1.120
  71      -4.169     3.513     0.656    -3.559     2.986    -3.896
  72       3.864    -5.455     1.591     0.619    -4.482    -0.552
  73      -5.218     2.783     2.435     5.133     2.997     3.329
  74       4.835    -4.906     0.071    -0.698     3.954     0.099
  75      -1.113     0.578     0.535    -4.298    -0.465     3.991
  76      -4.110     1.134     2.976     5.018    -2.434    -5.512
  77      -2.900     2.836     0.064    -5.038     3.089    -2.899
  78      -3.532     1.513     2.019     4.805     3.840     3.740
  79       5.831    -6.138     0.307    -0.596    -4.155    -0.160
  80      -2.981     1.063     1.918     5.137    -4.679    -2.874
  81      -2.020     2.937    -0.918    -4.568    -2.486     3.625
  82       6.193    -6.941     0.748    -1.357     4.193     0.277
  83      -3.415     2.799     0.616    -4.001     3.034    -2.310
  84       6.779    -5.439    -1.340    -0.736    -3.404     0.686
  85      -2.055     2.138    -0.083     5.574    -1.058     4.088
  86       2.805    -4.677     1.872     0.861     4.203     0.215
  87      -3.138     2.199     0.939    -4.928    -2.334     5.290
  88      -3.472     1.129     2.343     4.121    -3.475    -4.277
 ---------------------------------------------------------------------


 Total hyperfine coupling parameters after diagonalization (MHz)
 (convention: |A_zz| > |A_xx| > |A_yy|)
 ----------------------------------------------------------------------
  ion      A_xx      A_yy      A_zz     asymmetry (A_yy - A_xx)/ A_zz 
 ----------------------------------------------------------------------
   1       2.159     1.888     4.634      -0.059
   2       2.337     1.890     4.458      -0.100
   3      -0.864    -0.538     2.289       0.143
   4       2.345     1.994     4.732      -0.074
   5       1.506     1.197     4.085      -0.076
   6       1.237     1.063     3.251      -0.053
   7       2.091     1.747     4.364      -0.079
   8       1.789     1.671     3.592      -0.033
   9       0.937     0.735     2.782      -0.073
  10       2.942     2.683     5.525      -0.047
  11       1.834     1.442     4.000      -0.098
  12       2.282     1.868     4.445      -0.093
  13       1.326     0.968     3.359      -0.107
  14       1.995     1.786     4.715      -0.044
  15       1.812     1.335     4.007      -0.119
  16       2.736     2.338     4.886      -0.082
  17      13.319     9.108    13.470      -0.313
  18      15.903    11.501    16.080      -0.274
  19      13.660     9.596    14.004      -0.290
  20      13.316     9.222    13.677      -0.299
  21      16.103    11.956    16.782      -0.247
  22      13.565     9.372    13.847      -0.303
  23      13.684     9.622    14.100      -0.288
  24      15.456    10.958    15.621      -0.288
  25      95.722    95.533    96.912      -0.002
  26      97.617    96.522    99.658      -0.011
  27      98.718    97.895   100.160      -0.008
  28      96.795    96.097    98.568      -0.007
  29      96.863    95.395    98.528      -0.015
  30      95.850    95.043    96.840      -0.008
  31      95.013    94.929    97.426      -0.001
  32      98.465    96.773    98.884      -0.017
  33      95.433    94.654    98.086      -0.008
  34      97.177    94.416    98.536      -0.028
  35      97.758    94.963   100.554      -0.028
  36      97.086    95.908    99.249      -0.012
  37      99.896    98.742   101.664      -0.011
  38      89.644    86.140    93.725      -0.037
  39      93.639    93.003    95.969      -0.007
  40      95.450    94.060    98.104      -0.014
  41       4.327     0.405    13.391      -0.293
  42       6.384     2.982    16.564      -0.205
  43       6.712     1.440    17.921      -0.294
  44       5.381     2.978    17.908      -0.134
  45       7.611     1.830    18.864      -0.306
  46       2.423     0.484    12.977      -0.149
  47       6.600     0.178    15.823      -0.406
  48       6.063     1.234    19.328      -0.250
  49       6.484     1.602    20.009      -0.244
  50       6.353     2.310    16.071      -0.252
  51       6.634     0.085    15.674      -0.418
  52       5.142    -0.092    14.704      -0.356
  53       4.261     1.220    15.378      -0.198
  54       5.992     1.122    14.960      -0.326
  55       6.520     1.350    17.240      -0.300
  56       8.244     0.687    16.674      -0.453
  57       4.092     2.051    16.325      -0.125
  58       6.008     3.606    14.410      -0.167
  59       5.529     0.688    13.971      -0.346
  60       3.907    -0.703    15.666      -0.294
  61       4.126     1.075    15.027      -0.203
  62       7.324     1.332    19.181      -0.312
  63       7.611     2.478    17.236      -0.298
  64       6.013     2.255    15.370      -0.245
  65       7.421     1.612    16.944      -0.343
  66       2.154    -0.436    14.964      -0.173
  67       5.630     0.512    16.700      -0.306
  68       3.244    -0.269    14.963      -0.235
  69       4.252     1.064    15.003      -0.213
  70       5.170     1.730    18.114      -0.190
  71       5.220     1.282    15.247      -0.258
  72       4.247     0.634    13.548      -0.267
  73       9.000     1.642    17.970      -0.409
  74       1.830    -1.069    11.022      -0.263
  75       7.489     2.552    14.420      -0.342
  76       5.849     0.977    17.808      -0.274
  77       4.790     0.417    14.450      -0.303
  78       4.634    -0.227    15.088      -0.322
  79       4.917     0.602    14.868      -0.290
  80       4.915    -0.944    14.809      -0.396
  81       3.374     1.669    14.300      -0.119
  82       4.379    -1.387    14.310      -0.403
  83       4.701    -0.386    12.259      -0.415
  84       5.667     2.640    16.274      -0.186
  85       8.323     0.651    15.245      -0.503
  86       6.333     3.375    14.787      -0.200
  87       3.510     0.287    15.636      -0.206
  88       3.966     0.367    14.838      -0.242
 ---------------------------------------------------------------------



--------------------------------------------------------------------------------------------------------


 stress matrix after NEB project (eV)
    -43.56165     -2.02045      5.64157
     -2.02199    -43.12753     -2.13107
      5.66408     -2.09445    -56.47184
  FORCES: max atom, RMS     2.562342    1.154814
  FORCE total and by dimension   10.833119    2.101324
  Stress total and by dimension   83.831247   56.471841
     LOOP+:  cpu time  586.0200: real time  587.1053
    4ORBIT:  cpu time    0.0000: real time    0.0000
 


 total charge     
 
# of ion       s       p       d       tot
------------------------------------------
    1        0.049   5.990   0.000   6.039
    2        0.044   5.987   0.000   6.031
    3        0.054   5.998   0.000   6.052
    4        0.051   5.994   0.000   6.045
    5        0.058   6.002   0.000   6.060
    6        0.044   5.985   0.000   6.030
    7        0.052   5.995   0.000   6.047
    8        0.048   5.989   0.000   6.036
    9        0.044   5.986   0.000   6.030
   10        0.052   5.995   0.000   6.046
   11        0.051   5.995   0.000   6.046
   12        0.051   5.993   0.000   6.045
   13        0.052   5.995   0.000   6.047
   14        0.053   5.996   0.000   6.048
   15        0.053   5.996   0.000   6.049
   16        0.052   5.995   0.000   6.047
   17        0.146   6.122   0.079   6.347
   18        0.149   6.127   0.084   6.360
   19        0.145   6.121   0.078   6.344
   20        0.148   6.127   0.083   6.357
   21        0.147   6.123   0.080   6.349
   22        0.151   6.132   0.087   6.370
   23        0.148   6.124   0.080   6.352
   24        0.157   6.139   0.093   6.389
   25        0.372   6.444   4.821  11.637
   26        0.380   6.466   4.845  11.691
   27        0.369   6.443   4.820  11.631
   28        0.368   6.438   4.812  11.619
   29        0.390   6.486   4.866  11.743
   30        0.369   6.442   4.806  11.616
   31        0.383   6.464   4.848  11.695
   32        0.389   6.483   4.866  11.738
   33        0.370   6.440   4.819  11.629
   34        0.377   6.458   4.833  11.668
   35        0.384   6.474   4.843  11.701
   36        0.377   6.461   4.833  11.672
   37        0.361   6.425   4.803  11.588
   38        0.405   6.517   4.898  11.820
   39        0.381   6.468   4.847  11.695
   40        0.372   6.443   4.824  11.639
   41        1.598   3.521   0.000   5.119
   42        1.599   3.550   0.000   5.149
   43        1.598   3.521   0.000   5.118
   44        1.600   3.494   0.000   5.095
   45        1.603   3.517   0.000   5.120
   46        1.597   3.500   0.000   5.097
   47        1.600   3.501   0.000   5.102
   48        1.601   3.484   0.000   5.085
   49        1.602   3.515   0.000   5.117
   50        1.601   3.520   0.000   5.121
   51        1.599   3.520   0.000   5.119
   52        1.598   3.556   0.000   5.154
   53        1.601   3.465   0.000   5.065
   54        1.597   3.495   0.000   5.092
   55        1.598   3.488   0.000   5.086
   56        1.598   3.519   0.000   5.117
   57        1.602   3.475   0.000   5.077
   58        1.596   3.506   0.000   5.102
   59        1.598   3.526   0.000   5.124
   60        1.603   3.486   0.000   5.088
   61        1.598   3.484   0.000   5.081
   62        1.602   3.487   0.000   5.089
   63        1.599   3.520   0.000   5.119
   64        1.597   3.509   0.000   5.107
   65        1.600   3.512   0.000   5.113
   66        1.597   3.474   0.000   5.071
   67        1.602   3.509   0.000   5.112
   68        1.598   3.501   0.000   5.099
   69        1.598   3.493   0.000   5.091
   70        1.603   3.476   0.000   5.079
   71        1.598   3.488   0.000   5.086
   72        1.595   3.504   0.000   5.099
   73        1.601   3.541   0.000   5.142
   74        1.594   3.498   0.000   5.092
   75        1.594   3.514   0.000   5.108
   76        1.600   3.516   0.000   5.116
   77        1.600   3.486   0.000   5.085
   78        1.601   3.508   0.000   5.109
   79        1.599   3.516   0.000   5.115
   80        1.601   3.545   0.000   5.146
   81        1.599   3.489   0.000   5.088
   82        1.599   3.508   0.000   5.107
   83        1.598   3.510   0.000   5.108
   84        1.599   3.506   0.000   5.105
   85        1.598   3.501   0.000   5.098
   86        1.596   3.510   0.000   5.106
   87        1.604   3.526   0.000   5.129
   88        1.598   3.512   0.000   5.110
--------------------------------------------------
tot         84.803 416.558  78.045 579.407
 


 magnetization (x)
 
# of ion       s       p       d       tot
------------------------------------------
    1        0.002   0.000   0.000   0.002
    2        0.002   0.001   0.000   0.003
    3        0.000   0.000   0.000   0.000
    4        0.002   0.000   0.000   0.003
    5        0.002   0.000   0.000   0.002
    6        0.001   0.001   0.000   0.002
    7        0.002   0.000   0.000   0.002
    8        0.002   0.001   0.000   0.003
    9        0.001   0.001   0.000   0.002
   10        0.003   0.001   0.000   0.003
   11        0.002   0.000   0.000   0.002
   12        0.002   0.000   0.000   0.002
   13        0.001   0.000   0.000   0.002
   14        0.002   0.001   0.000   0.003
   15        0.002   0.000   0.000   0.002
   16        0.002   0.001   0.000   0.003
   17        0.007   0.002   0.001   0.010
   18        0.008   0.003   0.001   0.012
   19        0.007   0.002   0.001   0.010
   20        0.007   0.002   0.001   0.010
   21        0.008   0.003   0.001   0.013
   22        0.007   0.002   0.001   0.010
   23        0.007   0.002   0.001   0.010
   24        0.008   0.003   0.001   0.012
   25        0.015   0.029   2.768   2.813
   26        0.016   0.031   2.736   2.782
   27        0.016   0.029   2.774   2.820
   28        0.016   0.030   2.768   2.814
   29        0.015   0.031   2.725   2.772
   30        0.015   0.030   2.776   2.821
   31        0.015   0.030   2.731   2.775
   32        0.016   0.031   2.730   2.778
   33        0.015   0.029   2.772   2.817
   34        0.016   0.030   2.757   2.804
   35        0.016   0.032   2.739   2.787
   36        0.016   0.030   2.755   2.802
   37        0.016   0.030   2.789   2.836
   38        0.013   0.030   2.689   2.732
   39        0.014   0.029   2.739   2.782
   40        0.015   0.029   2.760   2.803
   41        0.002   0.020   0.000   0.022
   42        0.002   0.052   0.000   0.054
   43        0.002   0.050   0.000   0.052
   44        0.002   0.043   0.000   0.045
   45        0.002   0.051   0.000   0.054
   46        0.002   0.013   0.000   0.014
   47        0.002   0.031   0.000   0.033
   48        0.002   0.041   0.000   0.043
   49        0.002   0.054   0.000   0.056
   50        0.002   0.037   0.000   0.039
   51        0.002   0.040   0.000   0.042
   52        0.002   0.036   0.000   0.038
   53        0.002   0.012   0.000   0.014
   54        0.002   0.033   0.000   0.035
   55        0.002   0.040   0.000   0.043
   56        0.002   0.050   0.000   0.052
   57        0.002   0.024   0.000   0.027
   58        0.002   0.030   0.000   0.033
   59        0.002   0.041   0.000   0.042
   60        0.002   0.011   0.000   0.013
   61        0.002   0.023   0.000   0.024
   62        0.002   0.049   0.000   0.051
   63        0.002   0.048   0.000   0.051
   64        0.002   0.040   0.000   0.042
   65        0.002   0.044   0.000   0.046
   66        0.002   0.009   0.000   0.010
   67        0.002   0.035   0.000   0.037
   68        0.002   0.016   0.000   0.018
   69        0.002   0.020   0.000   0.022
   70        0.002   0.040   0.000   0.042
   71        0.002   0.021   0.000   0.023
   72        0.002   0.027   0.000   0.028
   73        0.002   0.059   0.000   0.061
   74        0.001   0.005   0.000   0.006
   75        0.002   0.041   0.000   0.043
   76        0.002   0.049   0.000   0.051
   77        0.002   0.023   0.000   0.025
   78        0.002   0.033   0.000   0.034
   79        0.002   0.038   0.000   0.039
   80        0.002   0.038   0.000   0.040
   81        0.002   0.026   0.000   0.027
   82        0.002   0.024   0.000   0.026
   83        0.002   0.021   0.000   0.023
   84        0.002   0.039   0.000   0.041
   85        0.002   0.037   0.000   0.039
   86        0.002   0.034   0.000   0.036
   87        0.002   0.031   0.000   0.033
   88        0.002   0.027   0.000   0.029
--------------------------------------------------
tot          0.426   2.114  44.020  46.559
 

 total amount of memory used by VASP MPI-rank0    88177. kBytes
=======================================================================

   base      :      30000. kBytes
   nonlr-proj:      13668. kBytes
   fftplans  :        992. kBytes
   grid      :      21513. kBytes
   one-center:       2737. kBytes
   wavefun   :      19267. kBytes
 
  
  
 General timing and accounting informations for this job:
 ========================================================
  
                  Total CPU time used (sec):      604.716
                            User time (sec):      599.119
                          System time (sec):        5.597
                         Elapsed time (sec):      608.557
  
                   Maximum memory used (kb):      181744.
                   Average memory used (kb):           0.
  
                          Minor page faults:       281448
                          Major page faults:            0
                 Voluntary context switches:         4478
