 vasp.5.4.4.18Apr17-6-g9f103f2a35 (build Dec 02 2020 12:53:39) complex          
  
 executed on             LinuxIFC date 2021.08.02  22:37:55
 running on   96 total cores
 distrk:  each k-point on   96 cores,    1 groups
 distr:  one band on NCORES_PER_BAND=   1 cores,   96 groups


--------------------------------------------------------------------------------------------------------


 INCAR:
 POTCAR:    PAW_PBE Na_pv 19Sep2006               
 POTCAR:    PAW_PBE Mg_pv 13Apr2007               
 POTCAR:    PAW_PBE Mn_pv 02Aug2007               
 POTCAR:    PAW_PBE O 08Apr2002                   

 ----------------------------------------------------------------------------- 
|                                                                             |
|           W    W    AA    RRRRR   N    N  II  N    N   GGGG   !!!           |
|           W    W   A  A   R    R  NN   N  II  NN   N  G    G  !!!           |
|           W    W  A    A  R    R  N N  N  II  N N  N  G       !!!           |
|           W WW W  AAAAAA  RRRRR   N  N N  II  N  N N  G  GGG   !            |
|           WW  WW  A    A  R   R   N   NN  II  N   NN  G    G                |
|           W    W  A    A  R    R  N    N  II  N    N   GGGG   !!!           |
|                                                                             |
|      For optimal performance we recommend to set                            |
|        NCORE= 4 - approx SQRT( number of cores)                             |
|      NCORE specifies how many cores store one orbital (NPAR=cpu/NCORE).     |
|      This setting can  greatly improve the performance of VASP for DFT.     |
|      The default,   NCORE=1            might be grossly inefficient         |
|      on modern multi-core architectures or massively parallel machines.     |
|      Do your own testing !!!!                                               |
|      Unfortunately you need to use the default for GW and RPA calculations. |
|      (for HF NCORE is supported but not extensively tested yet)             |
|                                                                             |
 ----------------------------------------------------------------------------- 

 POTCAR:    PAW_PBE Na_pv 19Sep2006               
   VRHFIN =Na: p6s1                                                             
   LEXCH  = PE                                                                  
   EATOM  =   766.0439 eV,   56.3026 Ry                                         
                                                                                
   TITEL  = PAW_PBE Na_pv 19Sep2006                                             
   LULTRA =        F    use ultrasoft PP ?                                      
   IUNSCR =        1    unscreen: 0-lin 1-nonlin 2-no                           
   RPACOR =    1.800    partial core radius                                     
   POMASS =   22.990; ZVAL   =    7.000    mass and valenz                      
   RCORE  =    2.200    outmost cutoff radius                                   
   RWIGS  =    2.200; RWIGS  =    1.164    wigner-seitz radius (au A)           
   ENMAX  =  259.561; ENMIN  =  194.671 eV                                      
   ICORE  =        2    local potential                                         
   LCOR   =        T    correct aug charges                                     
   LPAW   =        T    paw PP                                                  
   EAUG   =  368.056                                                            
   DEXC   =    0.000                                                            
   RMAX   =    2.245    core radius for proj-oper                               
   RAUG   =    1.300    factor for augmentation sphere                          
   RDEP   =    2.259    radius for radial grids                                 
   RDEPT  =    1.738    core radius for aug-charge                              
                                                                                
   Atomic configuration                                                         
    5 entries                                                                   
     n  l   j            E        occ.                                          
     1  0  0.50     -1033.6933   2.0000                                         
     2  0  0.50       -56.7526   2.0000                                         
     2  1  1.50       -28.6721   6.0000                                         
     3  0  0.50        -2.7440   1.0000                                         
     3  2  1.50        -1.3606   0.0000                                         
   Description                                                                  
     l       E           TYP  RCUT    TYP  RCUT                                 
     1    -28.6720912     23  2.000                                             
     1      6.8029130     23  2.000                                             
     0     -2.7439560     23  2.200                                             
     0     34.0145650     23  2.200                                             
     2     -1.3605826     23  2.200                                             
  local pseudopotential read in
  partial core-charges read in
  partial kinetic energy density read in
  atomic valenz-charges read in
  non local Contribution for L=           1  read in
    real space projection operators read in
  non local Contribution for L=           1  read in
    real space projection operators read in
  non local Contribution for L=           0  read in
    real space projection operators read in
  non local Contribution for L=           0  read in
    real space projection operators read in
    PAW grid and wavefunctions read in
 
   number of l-projection  operators is LMAX  =           4
   number of lm-projection operators is LMMAX =           8
 
 POTCAR:    PAW_PBE Mg_pv 13Apr2007               
   VRHFIN =Mg: p6s2                                                             
   LEXCH  = PE                                                                  
   EATOM  =  1056.7344 eV,   77.6678 Ry                                         
                                                                                
   TITEL  = PAW_PBE Mg_pv 13Apr2007                                             
   LULTRA =        F    use ultrasoft PP ?                                      
   IUNSCR =        1    unscreen: 0-lin 1-nonlin 2-no                           
   RPACOR =    1.500    partial core radius                                     
   POMASS =   24.305; ZVAL   =    8.000    mass and valenz                      
   RCORE  =    2.000    outmost cutoff radius                                   
   RWIGS  =    2.000; RWIGS  =    1.058    wigner-seitz radius (au A)           
   ENMAX  =  403.929; ENMIN  =  302.947 eV                                      
   RCLOC  =    1.506    cutoff for local pot                                    
   LCOR   =        T    correct aug charges                                     
   LPAW   =        T    paw PP                                                  
   EAUG   =  758.780                                                            
   DEXC   =    0.000                                                            
   RMAX   =    2.045    core radius for proj-oper                               
   RAUG   =    1.300    factor for augmentation sphere                          
   RDEP   =    2.025    radius for radial grids                                 
   RDEPT  =    1.557    core radius for aug-charge                              
                                                                                
   Atomic configuration                                                         
    5 entries                                                                   
     n  l   j            E        occ.                                          
     1  0  0.50     -1259.6230   2.0000                                         
     2  0  0.50       -79.8442   2.0000                                         
     2  1  1.50       -46.6121   6.0000                                         
     3  0  0.50        -4.7055   2.0000                                         
     3  2  1.50        -1.3606   0.0000                                         
   Description                                                                  
     l       E           TYP  RCUT    TYP  RCUT                                 
     1    -46.6121073     23  1.600                                             
     1      2.7211652     23  1.600                                             
     0     -4.7054661     23  2.000                                             
     0     61.2262170     23  2.000                                             
     2     -1.3605826     23  2.000                                             
  local pseudopotential read in
  partial core-charges read in
  partial kinetic energy density read in
  atomic valenz-charges read in
  non local Contribution for L=           1  read in
    real space projection operators read in
  non local Contribution for L=           1  read in
    real space projection operators read in
  non local Contribution for L=           0  read in
    real space projection operators read in
  non local Contribution for L=           0  read in
    real space projection operators read in
  non local Contribution for L=           2  read in
    real space projection operators read in
    PAW grid and wavefunctions read in
 
   number of l-projection  operators is LMAX  =           5
   number of lm-projection operators is LMMAX =          13
 
 POTCAR:    PAW_PBE Mn_pv 02Aug2007               
   VRHFIN =Mn: 3p4s3d                                                           
   LEXCH  = PE                                                                  
   EATOM  =  2025.2664 eV,  148.8529 Ry                                         
                                                                                
   TITEL  = PAW_PBE Mn_pv 02Aug2007                                             
   LULTRA =        F    use ultrasoft PP ?                                      
   IUNSCR =        1    unscreen: 0-lin 1-nonlin 2-no                           
   RPACOR =    2.080    partial core radius                                     
   POMASS =   54.938; ZVAL   =   13.000    mass and valenz                      
   RCORE  =    2.300    outmost cutoff radius                                   
   RWIGS  =    2.500; RWIGS  =    1.323    wigner-seitz radius (au A)           
   ENMAX  =  269.864; ENMIN  =  202.398 eV                                      
   ICORE  =        3    local potential                                         
   LCOR   =        T    correct aug charges                                     
   LPAW   =        T    paw PP                                                  
   EAUG   =  569.085                                                            
   DEXC   =    0.000                                                            
   RMAX   =    2.343    core radius for proj-oper                               
   RAUG   =    1.300    factor for augmentation sphere                          
   RDEP   =    2.338    radius for radial grids                                 
   RDEPT  =    1.798    core radius for aug-charge                              
                                                                                
   Atomic configuration                                                         
    8 entries                                                                   
     n  l   j            E        occ.                                          
     1  0  0.50     -6424.8287   2.0000                                         
     2  0  0.50      -739.1154   2.0000                                         
     2  1  1.50      -625.3949   6.0000                                         
     3  0  0.50       -81.6100   2.0000                                         
     3  1  1.50       -50.4667   6.0000                                         
     3  2  2.50        -3.3745   6.0000                                         
     4  0  0.50        -4.1331   1.0000                                         
     4  3  2.50        -1.3606   0.0000                                         
   Description                                                                  
     l       E           TYP  RCUT    TYP  RCUT                                 
     1    -50.4666628     23  2.000                                             
     1     -1.3605826     23  2.000                                             
     2     -3.3744729     23  2.300                                             
     2     -4.7350555     23  2.300                                             
     0     -4.1331431     23  2.300                                             
     0      7.6656591     23  2.300                                             
     3      9.5240782     23  2.300                                             
  local pseudopotential read in
  partial core-charges read in
  partial kinetic energy density read in
  atomic valenz-charges read in
  non local Contribution for L=           1  read in
    real space projection operators read in
  non local Contribution for L=           1  read in
    real space projection operators read in
  non local Contribution for L=           2  read in
    real space projection operators read in
  non local Contribution for L=           2  read in
    real space projection operators read in
  non local Contribution for L=           0  read in
    real space projection operators read in
  non local Contribution for L=           0  read in
    real space projection operators read in
    PAW grid and wavefunctions read in
 
   number of l-projection  operators is LMAX  =           6
   number of lm-projection operators is LMMAX =          18
 
 POTCAR:    PAW_PBE O 08Apr2002                   
   VRHFIN =O: s2p4                                                              
   LEXCH  = PE                                                                  
   EATOM  =   432.3788 eV,   31.7789 Ry                                         
                                                                                
   TITEL  = PAW_PBE O 08Apr2002                                                 
   LULTRA =        F    use ultrasoft PP ?                                      
   IUNSCR =        1    unscreen: 0-lin 1-nonlin 2-no                           
   RPACOR =    1.200    partial core radius                                     
   POMASS =   16.000; ZVAL   =    6.000    mass and valenz                      
   RCORE  =    1.520    outmost cutoff radius                                   
   RWIGS  =    1.550; RWIGS  =    0.820    wigner-seitz radius (au A)           
   ENMAX  =  400.000; ENMIN  =  300.000 eV                                      
   ICORE  =        2    local potential                                         
   LCOR   =        T    correct aug charges                                     
   LPAW   =        T    paw PP                                                  
   EAUG   =  605.392                                                            
   DEXC   =    0.000                                                            
   RMAX   =    1.553    core radius for proj-oper                               
   RAUG   =    1.300    factor for augmentation sphere                          
   RDEP   =    1.550    radius for radial grids                                 
   RDEPT  =    1.329    core radius for aug-charge                              
                                                                                
   Atomic configuration                                                         
    4 entries                                                                   
     n  l   j            E        occ.                                          
     1  0  0.50      -514.6923   2.0000                                         
     2  0  0.50       -23.9615   2.0000                                         
     2  1  0.50        -9.0305   4.0000                                         
     3  2  1.50        -9.5241   0.0000                                         
   Description                                                                  
     l       E           TYP  RCUT    TYP  RCUT                                 
     0    -23.9615318     23  1.200                                             
     0     -9.5240782     23  1.200                                             
     1     -9.0304911     23  1.520                                             
     1      8.1634956     23  1.520                                             
     2     -9.5240782      7  1.500                                             
  local pseudopotential read in
  partial core-charges read in
  partial kinetic energy density read in
  kinetic energy density of atom read in
  atomic valenz-charges read in
  non local Contribution for L=           0  read in
    real space projection operators read in
  non local Contribution for L=           0  read in
    real space projection operators read in
  non local Contribution for L=           1  read in
    real space projection operators read in
  non local Contribution for L=           1  read in
    real space projection operators read in
    PAW grid and wavefunctions read in
 
   number of l-projection  operators is LMAX  =           4
   number of lm-projection operators is LMMAX =           8
 
 Optimization of the real space projectors (new method)

 maximal supplied QI-value         = 17.01
 optimisation between [QCUT,QGAM] = [ 10.20, 20.41] = [ 29.16,116.64] Ry 
 Optimized for a Real-space Cutoff    1.30 Angstroem

   l    n(q)    QCUT    max X(q) W(low)/X(q) W(high)/X(q)  e(spline) 
   1      7    10.205     4.940    0.23E-03    0.84E-03    0.11E-06
   1      7    10.205     6.253    0.40E-03    0.13E-02    0.18E-06
   0      8    10.205    37.438    0.23E-03    0.37E-03    0.42E-07
   0      8    10.205     9.606    0.16E-03    0.26E-03    0.31E-07
 Optimization of the real space projectors (new method)

 maximal supplied QI-value         = 18.90
 optimisation between [QCUT,QGAM] = [ 10.20, 20.41] = [ 29.16,116.64] Ry 
 Optimized for a Real-space Cutoff    1.26 Angstroem

   l    n(q)    QCUT    max X(q) W(low)/X(q) W(high)/X(q)  e(spline) 
   1      7    10.205     2.974    0.63E-04    0.14E-03    0.13E-06
   1      7    10.205     4.279    0.11E-03    0.45E-03    0.24E-06
   0      8    10.205    16.381    0.44E-03    0.15E-03    0.55E-07
   0      8    10.205     5.611    0.31E-03    0.11E-03    0.40E-07
   2      7    10.205     4.652    0.50E-03    0.47E-03    0.57E-07
 Optimization of the real space projectors (new method)

 maximal supplied QI-value         = 16.25
 optimisation between [QCUT,QGAM] = [ 10.24, 20.48] = [ 29.35,117.42] Ry 
 Optimized for a Real-space Cutoff    1.34 Angstroem

   l    n(q)    QCUT    max X(q) W(low)/X(q) W(high)/X(q)  e(spline) 
   1      8    10.239     3.658    0.23E-03    0.30E-03    0.98E-07
   1      8    10.239     5.612    0.32E-03    0.65E-03    0.21E-06
   2      7    10.239    55.373    0.42E-03    0.45E-03    0.65E-07
   2      7    10.239    50.863    0.43E-03    0.48E-03    0.67E-07
   0      8    10.239    79.536    0.11E-03    0.21E-03    0.56E-07
   0      8    10.239    38.668    0.96E-04    0.19E-03    0.52E-07
 Optimization of the real space projectors (new method)

 maximal supplied QI-value         = 24.76
 optimisation between [QCUT,QGAM] = [ 10.15, 20.30] = [ 28.85,115.39] Ry 
 Optimized for a Real-space Cutoff    1.38 Angstroem

   l    n(q)    QCUT    max X(q) W(low)/X(q) W(high)/X(q)  e(spline) 
   0      8    10.150    20.381    0.22E-03    0.32E-03    0.29E-06
   0      8    10.150    15.268    0.23E-03    0.35E-03    0.30E-06
   1      8    10.150     5.964    0.46E-03    0.53E-03    0.21E-06
   1      8    10.150     5.382    0.38E-03    0.45E-03    0.19E-06
  PAW_PBE Na_pv 19Sep2006               :
 energy of atom  1       EATOM= -766.0439
 kinetic energy error for atom=    0.0103 (will be added to EATOM!!)
  PAW_PBE Mg_pv 13Apr2007               :
 energy of atom  2       EATOM=-1056.7344
 kinetic energy error for atom=    0.0820 (will be added to EATOM!!)
  PAW_PBE Mn_pv 02Aug2007               :
 energy of atom  3       EATOM=-2025.2664
 kinetic energy error for atom=    0.0284 (will be added to EATOM!!)
  PAW_PBE O 08Apr2002                   :
 energy of atom  4       EATOM= -432.3788
 kinetic energy error for atom=    0.1156 (will be added to EATOM!!)
 
 
 POSCAR: Na Mg Mn  O                             
  positions in cartesian coordinates
  No initial velocities read in

 METAGGA = SCAN     LMAXTAU =  6    LMIXTAU =  F

 exchange correlation table for  LEXCH =        8
   RHO(1)=    0.500       N(1)  =     2000
   RHO(2)=  100.500       N(2)  =     4000

 VTST: version 3.2, (02/03/18)

 CHAIN: initializing optimizer
 
 OPT: Using VASP Dynamics algorithm
 CHAIN: Read ICHAIN            0
 
 POSCAR: Na Mg Mn  O                             
  positions in cartesian coordinates
  No initial velocities read in
 


--------------------------------------------------------------------------------------------------------


 ion  position               nearest neighbor table
   1  0.708  0.637  0.250-  65 2.32  74 2.32  43 2.36  33 2.84  35 2.97
   2  0.348  0.817  0.747-  70 2.27  84 2.33
   3  0.505  0.622  0.759-  45 2.23  48 2.26
   4  0.830  0.831  0.763-  85 2.22  72 2.34  71 2.34
   5  0.865  0.997  0.231-  54 2.11  63 2.24
   6  0.111  0.799  0.260-  76 2.22  66 2.27
   7  0.667  0.433  0.745-  46 2.22  49 2.27  68 2.32
   8  0.675  0.105  0.744-  59 2.27  56 2.27  84 2.29  81 2.36  31 2.83  29 2.93
   9  0.342  0.148  0.234-  41 2.22  42 2.27  67 2.33
  10  0.672  0.297  0.243-  42 2.26  53 2.32  62 2.37
  11  0.488  0.889  0.246-  79 2.26  77 2.27  88 2.37
  12  0.015  0.652  0.758-  73 2.24  70 2.29
  13  0.034  0.326  0.755-  61 2.21  60 2.31  30 2.76
  14  0.201  0.132  0.748-  44 2.17  47 2.20  27 2.87  25 2.92
  15  0.345  0.469  0.250-  87 2.31  32 2.88
  16  0.005  0.433  0.251-  55 2.32  62 2.37  64 2.38
  17  0.828  0.463  0.992-  60 2.02  43 2.04  53 2.12  49 2.12  71 2.18  66 2.19  30 2.83
  18  0.491  0.290  0.495-  52 1.94  44 2.04  50 2.07  51 2.09  46 2.18  45 2.21  35 2.81  27 2.82

  19  0.329  0.465  0.982-  83 1.99  61 2.01  55 2.05  48 2.07  41 2.10  25 2.83  26 2.86
  20  0.001  0.285  0.483-  63 2.03  64 2.03  62 2.03  56 2.09  58 2.13  57 2.21  32 2.78  40 2.86

  21  0.344  0.980  0.978-  47 1.94  73 1.99  84 2.01  67 2.05  42 2.13  77 2.14  29 2.78  26 2.84

  22  0.989  0.786  0.513-  75 1.98  69 1.99  74 2.02  68 2.02  76 2.07  70 2.10
  23  0.848  0.983  0.983-  59 1.96  54 1.98  72 1.99  85 2.01  79 2.21  65 2.23  25 2.77  30 2.81

  24  0.490  0.779  0.501-  82 1.98  87 2.05  81 2.06  80 2.06  86 2.07  88 2.14  32 2.82  35 2.83
                            39 2.84
  25  0.165  0.141  0.005-  47 1.85  61 1.88  72 1.93  41 1.94  54 1.95  67 1.98  23 2.77  19 2.83
                            34 2.85  26 2.89  30 2.90  14 2.92
  26  0.498  0.306  0.001-  49 1.88  43 1.89  47 1.91  48 1.91  41 1.92  42 2.01  21 2.84  19 2.86
                            25 2.89  33 2.95  29 2.97
  27  0.166  0.119  0.493-  76 1.87  50 1.89  44 1.89  58 1.90  63 1.95  69 2.00  18 2.82  36 2.83
                            14 2.87  32 2.91  40 2.95
  28  0.825  0.457  0.503-  46 1.89  57 1.90  75 1.90  52 1.91  62 1.93  68 1.93  31 2.82  35 2.87
                            39 2.94
  29  0.662  0.127  0.004-  79 1.87  59 1.89  53 1.93  42 1.94  84 1.94  49 2.01  21 2.78  38 2.89
                            30 2.91   8 2.93  26 2.97
  30  0.997  0.306  1.000-  60 1.87  53 1.92  54 1.93  59 1.95  61 1.96  55 2.01  13 2.76  23 2.81
                            17 2.83  25 2.90  29 2.91  37 2.93
  31  0.665  0.132  0.494-  81 1.91  62 1.93  46 1.94  51 1.95  56 1.98  88 1.99  28 2.82   8 2.83
                            40 2.92  36 2.95
  32  0.319  0.454  0.507-  58 1.83  64 1.86  80 1.94  50 1.94  45 1.96  87 2.09  20 2.78  24 2.82
                            39 2.82  35 2.88  15 2.88  27 2.91
  33  0.677  0.646  0.999-  85 1.84  65 1.91  78 1.92  71 1.93  43 1.98  48 1.99  38 2.81   1 2.84
                            34 2.89  26 2.95
  34  0.010  0.813  0.003-  65 1.88  66 1.90  67 1.93  72 1.94  73 1.97  71 1.98  25 2.85  37 2.85
                            33 2.89
  35  0.651  0.614  0.511-  87 1.89  82 1.89  45 1.90  68 1.91  52 1.96  74 2.02  18 2.81  24 2.83
                            28 2.87  32 2.88   1 2.97  40 2.98
  36  0.326  0.953  0.502-  76 1.85  86 1.89  44 1.93  70 1.94  81 1.98  51 2.02  27 2.83  39 2.87
                            31 2.95
  37  0.169  0.643  0.004-  77 1.84  73 1.87  55 1.93  66 1.94  60 2.01  83 2.01  34 2.85  38 2.91
                            30 2.93
  38  0.503  0.795  0.994-  83 1.85  85 1.91  78 1.92  77 1.97  84 1.97  79 1.98  33 2.81  29 2.89
                            37 2.91
  39  0.163  0.623  0.512-  86 1.88  80 1.88  75 1.90  57 1.94  64 1.94  70 1.95  32 2.82  24 2.84
                            36 2.87  28 2.94
  40  0.826  0.956  0.498-  74 1.88  63 1.90  56 1.90  88 1.93  69 1.94  82 1.97  20 2.86  31 2.92
                            27 2.95  35 2.98
  41  0.336  0.302  0.095-  26 1.92  25 1.94  19 2.10   9 2.22
  42  0.509  0.143  0.099-  29 1.94  26 2.01  21 2.13  10 2.26   9 2.27
  43  0.658  0.467  0.089-  26 1.89  33 1.98  17 2.04   1 2.36
  44  0.318  0.115  0.590-  27 1.89  36 1.93  18 2.04  14 2.17
  45  0.487  0.469  0.607-  35 1.90  32 1.96  18 2.21   3 2.23
  46  0.677  0.292  0.597-  28 1.89  31 1.94  18 2.18   7 2.22
  47  0.325  0.151  0.915-  25 1.85  26 1.91  21 1.94  14 2.20
  48  0.518  0.471  0.903-  26 1.91  33 1.99  19 2.07   3 2.26
  49  0.636  0.280  0.904-  26 1.88  29 2.01  17 2.12   7 2.27
  50  0.311  0.292  0.406-  27 1.89  32 1.94  18 2.07
  51  0.494  0.113  0.398-  31 1.95  36 2.02  18 2.09
  52  0.663  0.458  0.412-  28 1.91  18 1.94  35 1.96
  53  0.829  0.286  0.095-  30 1.92  29 1.93  17 2.12  10 2.32
  54  0.999  0.144  0.091-  30 1.93  25 1.95  23 1.98   5 2.11
  55  0.170  0.477  0.091-  37 1.93  30 2.01  19 2.05  16 2.32
  56  0.824  0.115  0.588-  40 1.90  31 1.98  20 2.09   8 2.27
  57  0.986  0.460  0.593-  28 1.90  39 1.94  20 2.21
  58  0.178  0.283  0.587-  32 1.83  27 1.90  20 2.13
  59  0.826  0.147  0.907-  29 1.89  30 1.95  23 1.96   8 2.27
  60  0.009  0.467  0.908-  30 1.87  37 2.01  17 2.02  13 2.31
  61  0.149  0.283  0.906-  25 1.88  30 1.96  19 2.01  13 2.21
  62  0.826  0.299  0.405-  31 1.93  28 1.93  20 2.03  16 2.37  10 2.37
  63  0.991  0.100  0.402-  40 1.90  27 1.95  20 2.03   5 2.24
  64  0.180  0.476  0.410-  32 1.86  39 1.94  20 2.03  16 2.38
  65  0.844  0.796  0.092-  34 1.88  33 1.91  23 2.23   1 2.32
  66  0.009  0.653  0.095-  34 1.90  37 1.94  17 2.19   6 2.27
  67  0.179  0.975  0.090-  34 1.93  25 1.98  21 2.05   9 2.33
  68  0.812  0.610  0.599-  35 1.91  28 1.93  22 2.02   7 2.32
  69  0.992  0.965  0.593-  40 1.94  22 1.99  27 2.00
  70  0.175  0.792  0.605-  36 1.94  39 1.95  22 2.10   2 2.27  12 2.29
  71  0.842  0.662  0.901-  33 1.93  34 1.98  17 2.18   4 2.34
  72  0.021  0.976  0.903-  25 1.93  34 1.94  23 1.99   4 2.34
  73  0.166  0.794  0.909-  37 1.87  34 1.97  21 1.99  12 2.24
  74  0.820  0.789  0.417-  40 1.88  22 2.02  35 2.02   1 2.32
  75  1.000  0.620  0.425-  39 1.90  28 1.90  22 1.98
  76  0.171  0.956  0.415-  36 1.85  27 1.87  22 2.07   6 2.22
  77  0.335  0.798  0.083-  37 1.84  38 1.97  21 2.14  11 2.27
  78  0.524  0.654  0.097-  33 1.92  38 1.92
  79  0.657  0.967  0.093-  29 1.87  38 1.98  23 2.21  11 2.26
  80  0.315  0.613  0.603-  39 1.88  32 1.94  24 2.06
  81  0.507  0.969  0.585-  31 1.91  36 1.98  24 2.06   8 2.36
  82  0.663  0.786  0.591-  35 1.89  40 1.97  24 1.98
  83  0.339  0.649  0.905-  38 1.85  19 1.99  37 2.01
  84  0.516  0.966  0.898-  29 1.94  38 1.97  21 2.01   8 2.29   2 2.33
  85  0.669  0.795  0.910-  33 1.84  38 1.91  23 2.01   4 2.22
  86  0.309  0.784  0.416-  39 1.88  36 1.89  24 2.07
  87  0.505  0.613  0.404-  35 1.89  24 2.05  32 2.09  15 2.31
  88  0.670  0.964  0.403-  40 1.93  31 1.99  24 2.14  11 2.37
 
  LATTYP: Found a hexagonal cell.
 ALAT       =    10.0190000534
 C/A-ratio  =     1.1196726572
  
  Lattice vectors:
  
 A1 = (  10.0190000534,   0.0000000000,   0.0000000000)
 A2 = (  -5.0095000267,   8.6767085668,   0.0000000000)
 A3 = (   0.0000000000,   0.0000000000,  11.2180004120)


Analysis of symmetry for initial positions (statically):
=====================================================================
 Subroutine PRICEL returns:
 Original cell was already a primitive cell.
 

 Routine SETGRP: Setting up the symmetry group for a 
 hexagonal supercell.


 Subroutine GETGRP returns: Found  1 space group operations
 (whereof  1 operations were pure point group operations)
 out of a pool of 24 trial point group operations.


The static configuration has the point symmetry C_1 .


Analysis of symmetry for dynamics (positions and initial velocities):
=====================================================================
 Subroutine PRICEL returns:
 Original cell was already a primitive cell.
 

 Routine SETGRP: Setting up the symmetry group for a 
 hexagonal supercell.


 Subroutine GETGRP returns: Found  1 space group operations
 (whereof  1 operations were pure point group operations)
 out of a pool of 24 trial point group operations.


The dynamic configuration has the point symmetry C_1 .


Analysis of structural, dynamic, and magnetic symmetry:
=====================================================================
 Subroutine PRICEL returns:
 Original cell was already a primitive cell.
 

 Routine SETGRP: Setting up the symmetry group for a 
 hexagonal supercell.


 Subroutine GETGRP returns: Found  1 space group operations
 (whereof  1 operations were pure point group operations)
 out of a pool of 24 trial point group operations.


The magnetic configuration has the point symmetry C_1 .


 Subroutine INISYM returns: Found  1 space group operations
 (whereof  1 operations are pure point group operations),
 and found     1 'primitive' translations

 
 

Automatic generation of k-mesh.
 generate k-points for:    2    2    2
Space group operators:
 irot       det(A)        alpha          n_x          n_y          n_z        tau_x        tau_y        tau_z
    1     1.000000     0.000000     1.000000     0.000000     0.000000     0.000000     0.000000     0.000000
 
 Subroutine IBZKPT returns following result:
 ===========================================
 
 Found      8 irreducible k-points:
 
 Following reciprocal coordinates:
            Coordinates               Weight
  0.000000  0.000000  0.000000      1.000000
  0.500000 -0.000000 -0.000000      1.000000
  0.000000  0.500000  0.000000      1.000000
  0.500000  0.500000 -0.000000      1.000000
  0.000000  0.000000  0.500000      1.000000
  0.500000 -0.000000  0.500000      1.000000
  0.000000  0.500000  0.500000      1.000000
  0.500000  0.500000  0.500000      1.000000
 
 Following cartesian coordinates:
            Coordinates               Weight
  0.000000  0.000000  0.000000      1.000000
  0.049905  0.028813 -0.000000      1.000000
  0.000000  0.057626  0.000000      1.000000
  0.049905  0.086438 -0.000000      1.000000
  0.000000  0.000000  0.044571      1.000000
  0.049905  0.028813  0.044571      1.000000
  0.000000  0.057626  0.044571      1.000000
  0.049905  0.086438  0.044571      1.000000
 


--------------------------------------------------------------------------------------------------------




 Dimension of arrays:
   k-points           NKPTS =      8   k-points in BZ     NKDIM =      8   number of bands    NBANDS=    480
   number of dos      NEDOS =    301   number of ions     NIONS =     88
   non local maximal  LDIM  =      6   non local SUM 2l+1 LMDIM =     18
   total plane-waves  NPLWV = 140000
   max r-space proj   IRMAX =   1632   max aug-charges    IRDMAX=   4555
   dimension x,y,z NGX =    50 NGY =   50 NGZ =   56
   dimension x,y,z NGXF=   100 NGYF=  100 NGZF=  112
   support grid    NGXF=   100 NGYF=  100 NGZF=  112
   ions per type =              16   8  16  48
   NGX,Y,Z   is equivalent  to a cutoff of   8.30,  8.30,  8.30 a.u.
   NGXF,Y,Z  is equivalent  to a cutoff of  16.59, 16.59, 16.60 a.u.

 SYSTEM =  unknown system                          
 POSCAR =  Na Mg Mn  O                             

 Startparameter for this run:
   NWRITE =      2    write-flag & timer
   PREC   = normal    normal or accurate (medium, high low for compatibility)
   ISTART =      0    job   : 0-new  1-cont  2-samecut
   ICHARG =      1    charge: 1-file 2-atom 10-const
   ISPIN  =      2    spin polarized calculation?
   LNONCOLLINEAR =      F non collinear calculations
   LSORBIT =      F    spin-orbit coupling
   INIWAV =      1    electr: 0-lowe 1-rand  2-diag
   LASPH  =      T    aspherical Exc in radial PAW
   METAGGA=      F    non-selfconsistent MetaGGA calc.

 Electronic Relaxation 1
   ENCUT  =  400.0 eV  29.40 Ry    5.42 a.u.  16.34 16.34 18.29*2*pi/ulx,y,z
   ENINI  =  400.0     initial cutoff
   ENAUG  =  758.8 eV  augmentation charge cutoff
   NELM   =    200;   NELMIN=  6; NELMDL=-12     # of ELM steps 
   EDIFF  = 0.1E-04   stopping-criterion for ELM
   LREAL  =      T    real-space projection
   NLSPLINE    = F    spline interpolate recip. space projectors
   LCOMPAT=      F    compatible to vasp.4.4
   GGA_COMPAT  = T    GGA compatible to vasp.4.4-vasp.4.6
   LMAXPAW     = -100 max onsite density
   LMAXMIX     =    4 max onsite mixed and CHGCAR
   VOSKOWN=      0    Vosko Wilk Nusair interpolation
   ROPT   =   -0.00050  -0.00050  -0.00050  -0.00050
 Ionic relaxation
   EDIFFG = 0.1E-03   stopping-criterion for IOM
   NSW    =      1    number of steps for IOM
   NBLOCK =      1;   KBLOCK =      1    inner block; outer block 
   IBRION =     -1    ionic relax: 0-MD 1-quasi-New 2-CG
   NFREE  =      0    steps in history (QN), initial steepest desc. (CG)
   ISIF   =      2    stress and relaxation
   IWAVPR =     10    prediction:  0-non 1-charg 2-wave 3-comb
   ISYM   =      2    0-nonsym 1-usesym 2-fastsym
   LCORR  =      T    Harris-Foulkes like correction to forces

   POTIM  = 0.5000    time-step for ionic-motion
   TEIN   =    0.0    initial temperature
   TEBEG  =    0.0;   TEEND  =   0.0 temperature during run
   SMASS  =  -3.00    Nose mass-parameter (am)
   estimated Nose-frequenzy (Omega)   =  0.10E-29 period in steps =****** mass=  -0.229E-26a.u.
   SCALEE = 1.0000    scale energy and forces
   NPACO  =    256;   APACO  = 16.0  distance and # of slots for P.C.
   PSTRESS=    0.0 pullay stress

  Mass of Ions in am
   POMASS =  22.99 24.30 54.94 16.00
  Ionic Valenz
   ZVAL   =   7.00  8.00 13.00  6.00
  Atomic Wigner-Seitz radii
   RWIGS  =  -1.00 -1.00 -1.00 -1.00
  virtual crystal weights 
   VCA    =   1.00  1.00  1.00  1.00
   NELECT =     672.0000    total number of electrons
   NUPDOWN=      48.0000    fix difference up-down

 DOS related values:
   EMIN   =  10.00;   EMAX   =-10.00  energy-range for DOS
   EFERMI =   0.00
   ISMEAR =     0;   SIGMA  =   0.05  broadening in eV -4-tet -1-fermi 0-gaus

 Electronic relaxation 2 (details)
   IALGO  =     48    algorithm
   LDIAG  =      T    sub-space diagonalisation (order eigenvalues)
   LSUBROT=      F    optimize rotation matrix (better conditioning)
   TURBO    =      0    0=normal 1=particle mesh
   IRESTART =      0    0=no restart 2=restart with 2 vectors
   NREBOOT  =      0    no. of reboots
   NMIN     =      0    reboot dimension
   EREF     =   0.00    reference energy to select bands
   IMIX   =      4    mixing-type and parameters
     AMIX     =   0.40;   BMIX     =  1.00
     AMIX_MAG =   1.60;   BMIX_MAG =  1.00
     AMIN     =   0.10
     WC   =   100.;   INIMIX=   1;  MIXPRE=   1;  MAXMIX= -45

 Intra band minimization:
   WEIMIN = 0.0000     energy-eigenvalue tresh-hold
   EBREAK =  0.52E-08  absolut break condition
   DEPER  =   0.30     relativ break condition  

   TIME   =   0.40     timestep for ELM

  volume/ion in A,a.u.               =      11.08        74.78
  Fermi-wavevector in a.u.,A,eV,Ry     =   1.445993  2.732531 28.448379  2.090897
  Thomas-Fermi vector in A             =   2.564112
 
 Write flags
   LWAVE        =      F    write WAVECAR
   LDOWNSAMPLE  =      F    k-point downsampling of WAVECAR
   LCHARG       =      F    write CHGCAR
   LVTOT        =      F    write LOCPOT, total local potential
   LVHAR        =      F    write LOCPOT, Hartree potential only
   LELF         =      F    write electronic localiz. function (ELF)
   LORBIT       =     11    0 simple, 1 ext, 2 COOP (PROOUT), +10 PAW based schemes


 Dipole corrections
   LMONO  =      F    monopole corrections only (constant potential shift)
   LDIPOL =      F    correct potential (dipole corrections)
   IDIPOL =      0    1-x, 2-y, 3-z, 4-all directions 
   EPSILON=  1.0000000 bulk dielectric constant

 Exchange correlation treatment:
   GGA     =    --    GGA type
   LEXCH   =     8    internal setting for exchange type
   VOSKOWN=      0    Vosko Wilk Nusair interpolation
   LHFCALC =     F    Hartree Fock is set to
   LHFONE  =     F    Hartree Fock one center treatment
   AEXX    =    0.0000 exact exchange contribution

 Linear response parameters
   LEPSILON=     F    determine dielectric tensor
   LRPA    =     F    only Hartree local field effects (RPA)
   LNABLA  =     F    use nabla operator in PAW spheres
   LVEL    =     F    velocity operator in full k-point grid
   LINTERFAST=   F  fast interpolation
   KINTER  =     0    interpolate to denser k-point grid
   CSHIFT  =0.1000    complex shift for real part using Kramers Kronig
   OMEGAMAX=  -1.0    maximum frequency
   DEG_THRESHOLD= 0.2000000E-02 threshold for treating states as degnerate
   RTIME   =   -0.100 relaxation time in fs
  (WPLASMAI=    0.000 imaginary part of plasma frequency in eV, 0.658/RTIME)
   DFIELD  = 0.0000000 0.0000000 0.0000000 field for delta impulse in time
 
 Orbital magnetization related:
   ORBITALMAG=     F  switch on orbital magnetization
   LCHIMAG   =     F  perturbation theory with respect to B field
   DQ        =  0.001000  dq finite difference perturbation B field
   LLRAUG    =     F  two centre corrections for induced B field



--------------------------------------------------------------------------------------------------------


 Static calculation
 charge density and potential will be updated during run
 spin polarized calculation
 RMM-DIIS sequential band-by-band
 perform sub-space diagonalisation
    before iterative eigenvector-optimisation
 modified Broyden-mixing scheme, WC =      100.0
 initial mixing is a Kerker type mixing with AMIX =  0.4000 and BMIX =      1.0000
 Hartree-type preconditioning will be used
 using additional bands          144
 real space projection scheme for non local part
 use partial core corrections
 calculate Harris-corrections to forces 
   (improved forces if not selfconsistent)
 use gradient corrections 
 use of overlap-Matrix (Vanderbilt PP)
 Gauss-broadening in eV      SIGMA  =   0.05


--------------------------------------------------------------------------------------------------------


  energy-cutoff  :      400.00
  volume of cell :      975.20
      direct lattice vectors                 reciprocal lattice vectors
    10.019000053  0.000000000  0.000000000     0.099810360  0.057625538 -0.000000000
    -5.009500027  8.676708567  0.000000000     0.000000000  0.115251076  0.000000000
     0.000000000  0.000000000 11.218000412     0.000000000  0.000000000  0.089142446

  length of vectors
    10.019000053 10.019000053 11.218000412     0.115251076  0.115251076  0.089142446


 
 k-points in units of 2pi/SCALE and weight: read from INCAR                         
   0.00000000  0.00000000  0.00000000       0.125
   0.04990518  0.02881277 -0.00000000       0.125
   0.00000000  0.05762554  0.00000000       0.125
   0.04990518  0.08643831 -0.00000000       0.125
   0.00000000  0.00000000  0.04457122       0.125
   0.04990518  0.02881277  0.04457122       0.125
   0.00000000  0.05762554  0.04457122       0.125
   0.04990518  0.08643831  0.04457122       0.125
 
 k-points in reciprocal lattice and weights: read from INCAR                         
   0.00000000  0.00000000  0.00000000       0.125
   0.50000000 -0.00000000 -0.00000000       0.125
   0.00000000  0.50000000  0.00000000       0.125
   0.50000000  0.50000000 -0.00000000       0.125
   0.00000000  0.00000000  0.50000000       0.125
   0.50000000 -0.00000000  0.50000000       0.125
   0.00000000  0.50000000  0.50000000       0.125
   0.50000000  0.50000000  0.50000000       0.125
 
 position of ions in fractional coordinates (direct lattice) 
   0.70768738  0.63689391  0.25006239
   0.34786890  0.81674783  0.74663930
   0.50504054  0.62197844  0.75854962
   0.83042334  0.83064546  0.76268138
   0.86546154  0.99712729  0.23089409
   0.11105878  0.79871202  0.26048403
   0.66734927  0.43311157  0.74542786
   0.67481493  0.10532006  0.74425296
   0.34202469  0.14776834  0.23439650
   0.67181756  0.29706360  0.24302905
   0.48768682  0.88897979  0.24639061
   0.01524392  0.65187919  0.75762522
   0.03372184  0.32581282  0.75540111
   0.20140864  0.13183208  0.74767246
   0.34478706  0.46871575  0.25021839
   0.00535141  0.43256528  0.25086378
   0.82840043  0.46311686  0.99174363
   0.49094017  0.28989910  0.49472007
   0.32879904  0.46533198  0.98249239
   0.00082059  0.28493293  0.48339809
   0.34354837  0.98045935  0.97816206
   0.98932753  0.78639036  0.51257442
   0.84776313  0.98316775  0.98298547
   0.49026586  0.77859939  0.50057228
   0.16534663  0.14074017  0.00490406
   0.49790990  0.30613221  0.00137700
   0.16596606  0.11946581  0.49324566
   0.82464672  0.45680917  0.50262434
   0.66170957  0.12734569  0.00378818
   0.99666386  0.30585792  0.99963448
   0.66538208  0.13157063  0.49383667
   0.31947488  0.45424829  0.50655463
   0.67687658  0.64550284  0.99916331
   0.01045919  0.81296150  0.00324399
   0.65098186  0.61365551  0.51078889
   0.32572892  0.95306877  0.50246744
   0.16909007  0.64321856  0.00449774
   0.50318472  0.79516673  0.99396137
   0.16346187  0.62297125  0.51199945
   0.82631548  0.95645370  0.49794971
   0.33557779  0.30154983  0.09498128
   0.50880072  0.14335851  0.09912105
   0.65808826  0.46719559  0.08910180
   0.31795600  0.11505762  0.58982258
   0.48673178  0.46910185  0.60724726
   0.67680948  0.29199206  0.59673558
   0.32533809  0.15099159  0.91484218
   0.51843265  0.47126396  0.90278121
   0.63595206  0.28013849  0.90405595
   0.31117136  0.29232974  0.40589676
   0.49386602  0.11306032  0.39817257
   0.66315830  0.45801239  0.41224370
   0.82864098  0.28600938  0.09520681
   0.99863522  0.14406154  0.09125958
   0.16982305  0.47708298  0.09103851
   0.82362295  0.11544832  0.58765731
   0.98640206  0.46030588  0.59338472
   0.17775067  0.28265096  0.58748438
   0.82553626  0.14717793  0.90720268
   0.00881294  0.46692821  0.90785342
   0.14887330  0.28279502  0.90591903
   0.82575871  0.29946033  0.40479496
   0.99141502  0.10007728  0.40164288
   0.18012719  0.47556628  0.40958012
   0.84405058  0.79601613  0.09228828
   0.00894921  0.65306561  0.09467195
   0.17927412  0.97502295  0.09049206
   0.81223042  0.60952721  0.59873505
   0.99213387  0.96513210  0.59297644
   0.17488274  0.79248830  0.60495273
   0.84222568  0.66156884  0.90074876
   0.02113965  0.97592537  0.90324475
   0.16552361  0.79409144  0.90860221
   0.82033654  0.78921286  0.41678194
   0.99952510  0.61980876  0.42535210
   0.17061075  0.95625892  0.41549383
   0.33495394  0.79835342  0.08299055
   0.52395600  0.65356926  0.09660367
   0.65665776  0.96694961  0.09280531
   0.31526633  0.61291675  0.60338115
   0.50698951  0.96859425  0.58532089
   0.66341545  0.78608034  0.59082722
   0.33888713  0.64858811  0.90534851
   0.51601777  0.96649207  0.89811906
   0.66860708  0.79507223  0.91015329
   0.30880910  0.78372461  0.41625957
   0.50536055  0.61346189  0.40375645
   0.67044261  0.96384360  0.40251113
 
 position of ions in cartesian coordinates  (Angst):
   3.89979987  5.52614283  2.80520000
  -0.60619973  7.08668287  8.37580000
   1.94420013  5.39672570  8.50941000
   4.15889303  7.20726857  8.55576000
   3.67595005  8.65178287  2.59017000
  -2.88844997  6.93019143  2.92211000
   4.51649995  3.75798287  8.36221000
   6.23337003  0.91383143  8.34903000
   2.68649992  1.28214283  2.62946000
   5.24280011  2.57753427  2.72630000
   0.43278997  7.71341857  2.76401000
  -3.11286000  5.65616573  8.49904000
  -1.29430021  2.82698287  8.47409000
   1.35750035  1.14386857  8.38739000
   1.10639000  4.06691000  2.80695000
  -2.11332003  3.75324283  2.81419000
   5.97976000  4.01833000 11.12538041
   3.46648000  2.51537000  5.54977000
   0.96315700  4.03755000 11.02160000
  -1.41915005  2.47228000  5.42276000
  -1.46960000  8.50716000 10.97302241
   5.97265000  6.82328000  5.75006000
   3.56856000  8.53066000 11.02713141
   1.01158000  6.75568000  5.61542000
   0.95156997  1.22116143  0.05501370
   3.45499000  2.65622000  0.01544720
   1.06435000  1.03657000  5.53323000
   5.97375000  3.96360000  5.63844000
   5.99173003  1.10494143  0.04249580
   8.45338000  2.65384000 11.21390000
   6.00736000  1.14160000  5.53986000
   0.92526200  3.94138000  5.68253000
   3.54798000  5.60084000 11.20861437
  -3.96774005  7.05383000  0.03639110
   3.44808000  5.32451000  5.73003000
  -1.51092000  8.26950000  5.63668000
  -1.52809000  5.58102000  0.05045560
   1.05802000  6.89943000 11.15025911
  -1.48305000  5.40534000  5.74361000
   3.48750000  8.29887000  5.58600000
   1.85154000  2.61646000  1.06550000
   4.37952000  1.24388000  1.11194000
   4.25297000  4.05372000  0.99954400
   2.60922003  0.99832143  6.61663000
   2.52660000  4.07026000  6.81210000
   5.31822000  2.53353000  6.69418000
   2.50317000  1.31011000 10.26270000
   2.83338000  4.08902000 10.12740000
   4.96825000  2.43068000 10.14170000
   1.65320000  2.53646000  4.55335000
   4.38166803  0.98099143  4.46670000
   4.34977000  3.97404000  4.62455000
   6.86939000  2.48162000  1.06803000
   9.28365000  1.24998000  1.02375000
  -0.68849005  4.13951000  1.02127000
   7.67354003  1.00171143  6.59234000
   7.57686000  3.99394000  6.65659000
   0.36494400  2.45248000  6.59040000
   7.53376000  1.27702000 10.17700000
  -2.25078005  4.05140000 10.18430000
   0.07489995  2.45373000 10.16260000
   6.77313000  2.59833000  4.54099000
   9.43165003  0.86834143  4.50563000
  -0.57765500  4.12635000  4.59467000
   4.46890000  6.90680000  1.03529000
  -3.18187005  5.66646000  1.06203000
  -3.08823005  8.45999000  1.01514000
   5.08431000  5.28869000  6.71661000
   5.10536000  8.37417000  6.65201000
  -2.21782000  6.87619000  6.78636000
   5.12413000  5.74024000 10.10460000
  -4.67710005  8.46782000 10.13260000
  -2.31962005  6.89010000 10.19270000
   4.26539000  6.84777000  4.67546000
   6.90931000  5.37790000  4.77160000
  -3.08103000  8.29718000  4.66101000
  -0.64344800  6.92708000  0.93098800
   1.97546000  5.67083000  1.08370000
   1.73512000  8.38994000  1.04109000
   0.08824690  5.31810000  6.76873000
   0.22735500  8.40421000  6.56613000
   2.70889000  6.82059000  6.62790000
   0.14620800  5.62761000 10.15620000
   0.32834000  8.38597000 10.07510000
   2.71586000  6.89861000 10.21010000
  -0.83211000  6.80015000  4.66960000
   1.99007000  5.32283000  4.52934000
   1.88879000  8.36299000  4.51537000
 


--------------------------------------------------------------------------------------------------------


 k-point  1 :   0.0000 0.0000 0.0000  plane waves:   17725
 k-point  2 :   0.5000-0.0000-0.0000  plane waves:   17736
 k-point  3 :   0.0000 0.5000 0.0000  plane waves:   17736
 k-point  4 :   0.5000 0.5000-0.0000  plane waves:   17736
 k-point  5 :   0.0000 0.0000 0.5000  plane waves:   17676
 k-point  6 :   0.5000-0.0000 0.5000  plane waves:   17700
 k-point  7 :   0.0000 0.5000 0.5000  plane waves:   17700
 k-point  8 :   0.5000 0.5000 0.5000  plane waves:   17700

 maximum and minimum number of plane-waves per node :     17736    17676

 maximum number of plane-waves:     17736
 maximum index in each direction: 
   IXMAX=   16   IYMAX=   16   IZMAX=   18
   IXMIN=  -16   IYMIN=  -16   IZMIN=  -18


 serial   3D FFT for wavefunctions
 parallel 3D FFT for charge:
    minimum data exchange during FFTs selected (reduces bandwidth)


 total amount of memory used by VASP MPI-rank0    94433. kBytes
=======================================================================

   base      :      30000. kBytes
   nonlr-proj:      13674. kBytes
   fftplans  :       1275. kBytes
   grid      :      22786. kBytes
   one-center:       2737. kBytes
   wavefun   :      23961. kBytes
 
     INWAV:  cpu time    0.0000: real time    0.0001
 Broyden mixing: mesh for mixing (old mesh)
   NGX = 33   NGY = 33   NGZ = 37
  (NGX  =100   NGY  =100   NGZ  =112)
  gives a total of  40293 points

 initial charge density was supplied:
 charge density of overlapping atoms calculated
 number of electron     672.0000000 magnetization      48.0000000
 keeping initial charge density in first step


--------------------------------------------------------------------------------------------------------


 Maximum index for non-local projection operator         1550
 Maximum index for augmentation-charges          540 (set IRDMAX)


--------------------------------------------------------------------------------------------------------


 First call to EWALD:  gamma=   0.179
 Maximum number of real-space cells 3x 3x 2
 Maximum number of reciprocal cells 3x 3x 3

    FEWALD:  cpu time    0.0030: real time    0.0030


--------------------------------------- Iteration      1(   1)  ---------------------------------------


    POTLOK:  cpu time    0.1878: real time    0.1891
    SETDIJ:  cpu time    4.6495: real time    4.6556
    EDDIAG:  cpu time    4.3700: real time    4.7820
  RMM-DIIS:  cpu time    9.0210: real time    9.0297
    ORTHCH:  cpu time    1.1905: real time    1.2742
       DOS:  cpu time    0.0020: real time    0.0022
    --------------------------------------------
      LOOP:  cpu time   19.4209: real time   19.9328

 eigenvalue-minimisations  :  7680
 total energy-change (2. order) : 0.1581550E+04  (-0.3498626E+05)
 number of electron     672.0000000 magnetization      48.0000000
 augmentation part      672.0000000 magnetization      48.0000000

 Free energy of the ion-electron system (eV)
  ---------------------------------------------------
  alpha Z        PSCENC =      2652.81237852
  Ewald energy   TEWEN  =    -41934.43425653
  -Hartree energ DENC   =    -25684.95481900
  -exchange      EXHF   =         0.00000000
  -V(xc)+E(xc)   XCENC  =      3605.72550898
  PAW double counting   =     55594.23204139   -59034.67079123
  entropy T*S    EENTRO =        -0.04537977
  eigenvalues    EBANDS =     -7479.31257833
  atomic energy  EATOM  =     73862.19814772
  Solvation  Ediel_sol  =         0.00000000
  ---------------------------------------------------
  free energy    TOTEN  =      1581.55025176 eV

  energy without entropy =     1581.59563152  energy(sigma->0) =     1581.57294164


--------------------------------------------------------------------------------------------------------




--------------------------------------- Iteration      1(   2)  ---------------------------------------


    EDDIAG:  cpu time    4.4096: real time    4.8113
  RMM-DIIS:  cpu time    9.0043: real time    9.0398
    ORTHCH:  cpu time    1.1589: real time    1.2463
       DOS:  cpu time    0.0021: real time    0.0021
    --------------------------------------------
      LOOP:  cpu time   14.5749: real time   15.0995

 eigenvalue-minimisations  :  7680
 total energy-change (2. order) :-0.2311898E+04  (-0.8033419E+04)
 number of electron     672.0000000 magnetization      48.0000000
 augmentation part      672.0000000 magnetization      48.0000000

 Free energy of the ion-electron system (eV)
  ---------------------------------------------------
  alpha Z        PSCENC =      2652.81237852
  Ewald energy   TEWEN  =    -41934.43425653
  -Hartree energ DENC   =    -25684.95481900
  -exchange      EXHF   =         0.00000000
  -V(xc)+E(xc)   XCENC  =      3605.72550898
  PAW double counting   =     55594.23204139   -59034.67079123
  entropy T*S    EENTRO =        -0.05346487
  eigenvalues    EBANDS =     -9791.20254360
  atomic energy  EATOM  =     73862.19814772
  Solvation  Ediel_sol  =         0.00000000
  ---------------------------------------------------
  free energy    TOTEN  =      -730.34779863 eV

  energy without entropy =     -730.29433375  energy(sigma->0) =     -730.32106619


--------------------------------------------------------------------------------------------------------




--------------------------------------- Iteration      1(   3)  ---------------------------------------


    EDDIAG:  cpu time    4.3746: real time    4.7885
  RMM-DIIS:  cpu time    9.0122: real time    9.0195
    ORTHCH:  cpu time    1.1918: real time    1.2761
       DOS:  cpu time    0.0021: real time    0.0021
    --------------------------------------------
      LOOP:  cpu time   14.5807: real time   15.0862

 eigenvalue-minimisations  :  7680
 total energy-change (2. order) : 0.8653770E+02  (-0.1419323E+04)
 number of electron     672.0000000 magnetization      48.0000000
 augmentation part      672.0000000 magnetization      48.0000000

 Free energy of the ion-electron system (eV)
  ---------------------------------------------------
  alpha Z        PSCENC =      2652.81237852
  Ewald energy   TEWEN  =    -41934.43425653
  -Hartree energ DENC   =    -25684.95481900
  -exchange      EXHF   =         0.00000000
  -V(xc)+E(xc)   XCENC  =      3605.72550898
  PAW double counting   =     55594.23204139   -59034.67079123
  entropy T*S    EENTRO =        -0.04304758
  eigenvalues    EBANDS =     -9704.67526567
  atomic energy  EATOM  =     73862.19814772
  Solvation  Ediel_sol  =         0.00000000
  ---------------------------------------------------
  free energy    TOTEN  =      -643.81010340 eV

  energy without entropy =     -643.76705582  energy(sigma->0) =     -643.78857961


--------------------------------------------------------------------------------------------------------




--------------------------------------- Iteration      1(   4)  ---------------------------------------


    EDDIAG:  cpu time    4.3736: real time    4.7909
  RMM-DIIS:  cpu time    8.9684: real time    9.0220
    ORTHCH:  cpu time    1.1593: real time    1.2442
       DOS:  cpu time    0.0013: real time    0.0013
    --------------------------------------------
      LOOP:  cpu time   14.5026: real time   15.0584

 eigenvalue-minimisations  :  7680
 total energy-change (2. order) :-0.4676483E+03  (-0.4298698E+03)
 number of electron     672.0000000 magnetization      48.0000000
 augmentation part      672.0000000 magnetization      48.0000000

 Free energy of the ion-electron system (eV)
  ---------------------------------------------------
  alpha Z        PSCENC =      2652.81237852
  Ewald energy   TEWEN  =    -41934.43425653
  -Hartree energ DENC   =    -25684.95481900
  -exchange      EXHF   =         0.00000000
  -V(xc)+E(xc)   XCENC  =      3605.72550898
  PAW double counting   =     55594.23204139   -59034.67079123
  entropy T*S    EENTRO =        -0.00000000
  eigenvalues    EBANDS =    -10172.36664481
  atomic energy  EATOM  =     73862.19814772
  Solvation  Ediel_sol  =         0.00000000
  ---------------------------------------------------
  free energy    TOTEN  =     -1111.45843496 eV

  energy without entropy =    -1111.45843496  energy(sigma->0) =    -1111.45843496


--------------------------------------------------------------------------------------------------------




--------------------------------------- Iteration      1(   5)  ---------------------------------------


    EDDIAG:  cpu time    4.4392: real time    4.8378
  RMM-DIIS:  cpu time    9.0192: real time    9.0291
    ORTHCH:  cpu time    1.2395: real time    1.3211
       DOS:  cpu time    0.0011: real time    0.0011
    --------------------------------------------
      LOOP:  cpu time   14.6990: real time   15.1892

 eigenvalue-minimisations  :  7680
 total energy-change (2. order) :-0.1043490E+03  (-0.1599516E+03)
 number of electron     672.0000000 magnetization      48.0000000
 augmentation part      672.0000000 magnetization      48.0000000

 Free energy of the ion-electron system (eV)
  ---------------------------------------------------
  alpha Z        PSCENC =      2652.81237852
  Ewald energy   TEWEN  =    -41934.43425653
  -Hartree energ DENC   =    -25684.95481900
  -exchange      EXHF   =         0.00000000
  -V(xc)+E(xc)   XCENC  =      3605.72550898
  PAW double counting   =     55594.23204139   -59034.67079123
  entropy T*S    EENTRO =        -0.00000000
  eigenvalues    EBANDS =    -10276.71563843
  atomic energy  EATOM  =     73862.19814772
  Solvation  Ediel_sol  =         0.00000000
  ---------------------------------------------------
  free energy    TOTEN  =     -1215.80742858 eV

  energy without entropy =    -1215.80742858  energy(sigma->0) =    -1215.80742858


--------------------------------------------------------------------------------------------------------




--------------------------------------- Iteration      1(   6)  ---------------------------------------


    EDDIAG:  cpu time    4.3739: real time    4.7845
  RMM-DIIS:  cpu time    8.9830: real time    9.0116
    ORTHCH:  cpu time    1.1524: real time    1.2368
       DOS:  cpu time    0.0013: real time    0.0013
    --------------------------------------------
      LOOP:  cpu time   14.5105: real time   15.0342

 eigenvalue-minimisations  :  7680
 total energy-change (2. order) :-0.9031137E+01  (-0.7931600E+02)
 number of electron     672.0000000 magnetization      48.0000000
 augmentation part      672.0000000 magnetization      48.0000000

 Free energy of the ion-electron system (eV)
  ---------------------------------------------------
  alpha Z        PSCENC =      2652.81237852
  Ewald energy   TEWEN  =    -41934.43425653
  -Hartree energ DENC   =    -25684.95481900
  -exchange      EXHF   =         0.00000000
  -V(xc)+E(xc)   XCENC  =      3605.72550898
  PAW double counting   =     55594.23204139   -59034.67079123
  entropy T*S    EENTRO =        -0.00000000
  eigenvalues    EBANDS =    -10285.74677551
  atomic energy  EATOM  =     73862.19814772
  Solvation  Ediel_sol  =         0.00000000
  ---------------------------------------------------
  free energy    TOTEN  =     -1224.83856566 eV

  energy without entropy =    -1224.83856566  energy(sigma->0) =    -1224.83856566


--------------------------------------------------------------------------------------------------------




--------------------------------------- Iteration      1(   7)  ---------------------------------------


    EDDIAG:  cpu time    4.4320: real time    4.8277
  RMM-DIIS:  cpu time    9.0099: real time    9.0176
    ORTHCH:  cpu time    1.1719: real time    1.2548
       DOS:  cpu time    0.0015: real time    0.0015
    --------------------------------------------
      LOOP:  cpu time   14.6153: real time   15.1017

 eigenvalue-minimisations  :  7680
 total energy-change (2. order) :-0.1864785E+01  (-0.4847946E+02)
 number of electron     672.0000000 magnetization      48.0000000
 augmentation part      672.0000000 magnetization      48.0000000

 Free energy of the ion-electron system (eV)
  ---------------------------------------------------
  alpha Z        PSCENC =      2652.81237852
  Ewald energy   TEWEN  =    -41934.43425653
  -Hartree energ DENC   =    -25684.95481900
  -exchange      EXHF   =         0.00000000
  -V(xc)+E(xc)   XCENC  =      3605.72550898
  PAW double counting   =     55594.23204139   -59034.67079123
  entropy T*S    EENTRO =        -0.00000000
  eigenvalues    EBANDS =    -10287.61156047
  atomic energy  EATOM  =     73862.19814772
  Solvation  Ediel_sol  =         0.00000000
  ---------------------------------------------------
  free energy    TOTEN  =     -1226.70335062 eV

  energy without entropy =    -1226.70335062  energy(sigma->0) =    -1226.70335062


--------------------------------------------------------------------------------------------------------




--------------------------------------- Iteration      1(   8)  ---------------------------------------


    EDDIAG:  cpu time    4.3945: real time    4.7900
  RMM-DIIS:  cpu time    8.9035: real time    9.0364
    ORTHCH:  cpu time    1.1575: real time    1.2408
       DOS:  cpu time    0.0014: real time    0.0014
    --------------------------------------------
      LOOP:  cpu time   14.4568: real time   15.0686

 eigenvalue-minimisations  :  7680
 total energy-change (2. order) : 0.4957530E+01  (-0.3020705E+02)
 number of electron     672.0000000 magnetization      48.0000000
 augmentation part      672.0000000 magnetization      48.0000000

 Free energy of the ion-electron system (eV)
  ---------------------------------------------------
  alpha Z        PSCENC =      2652.81237852
  Ewald energy   TEWEN  =    -41934.43425653
  -Hartree energ DENC   =    -25684.95481900
  -exchange      EXHF   =         0.00000000
  -V(xc)+E(xc)   XCENC  =      3605.72550898
  PAW double counting   =     55594.23204139   -59034.67079123
  entropy T*S    EENTRO =        -0.00000000
  eigenvalues    EBANDS =    -10282.65403086
  atomic energy  EATOM  =     73862.19814772
  Solvation  Ediel_sol  =         0.00000000
  ---------------------------------------------------
  free energy    TOTEN  =     -1221.74582102 eV

  energy without entropy =    -1221.74582102  energy(sigma->0) =    -1221.74582102


--------------------------------------------------------------------------------------------------------




--------------------------------------- Iteration      1(   9)  ---------------------------------------


    EDDIAG:  cpu time    4.4588: real time    4.8206
  RMM-DIIS:  cpu time   19.0115: real time   19.0255
    ORTHCH:  cpu time    1.1581: real time    1.2398
       DOS:  cpu time    0.0013: real time    0.0013
    --------------------------------------------
      LOOP:  cpu time   24.6297: real time   25.0873

 eigenvalue-minimisations  : 21761
 total energy-change (2. order) : 0.9413590E+01  (-0.1331303E+02)
 number of electron     672.0000000 magnetization      48.0000000
 augmentation part      672.0000000 magnetization      48.0000000

 Free energy of the ion-electron system (eV)
  ---------------------------------------------------
  alpha Z        PSCENC =      2652.81237852
  Ewald energy   TEWEN  =    -41934.43425653
  -Hartree energ DENC   =    -25684.95481900
  -exchange      EXHF   =         0.00000000
  -V(xc)+E(xc)   XCENC  =      3605.72550898
  PAW double counting   =     55594.23204139   -59034.67079123
  entropy T*S    EENTRO =        -0.00000001
  eigenvalues    EBANDS =    -10273.24044048
  atomic energy  EATOM  =     73862.19814772
  Solvation  Ediel_sol  =         0.00000000
  ---------------------------------------------------
  free energy    TOTEN  =     -1212.33223064 eV

  energy without entropy =    -1212.33223063  energy(sigma->0) =    -1212.33223063


--------------------------------------------------------------------------------------------------------




--------------------------------------- Iteration      1(  10)  ---------------------------------------


    EDDIAG:  cpu time    4.5143: real time    4.8897
  RMM-DIIS:  cpu time   17.6907: real time   17.7019
    ORTHCH:  cpu time    1.1556: real time    1.2437
       DOS:  cpu time    0.0014: real time    0.0014
    --------------------------------------------
      LOOP:  cpu time   23.3619: real time   23.8368

 eigenvalue-minimisations  : 19644
 total energy-change (2. order) :-0.1892795E+01  (-0.5284315E+00)
 number of electron     672.0000000 magnetization      48.0000000
 augmentation part      672.0000000 magnetization      48.0000000

 Free energy of the ion-electron system (eV)
  ---------------------------------------------------
  alpha Z        PSCENC =      2652.81237852
  Ewald energy   TEWEN  =    -41934.43425653
  -Hartree energ DENC   =    -25684.95481900
  -exchange      EXHF   =         0.00000000
  -V(xc)+E(xc)   XCENC  =      3605.72550898
  PAW double counting   =     55594.23204139   -59034.67079123
  entropy T*S    EENTRO =        -0.00000024
  eigenvalues    EBANDS =    -10275.13323486
  atomic energy  EATOM  =     73862.19814772
  Solvation  Ediel_sol  =         0.00000000
  ---------------------------------------------------
  free energy    TOTEN  =     -1214.22502525 eV

  energy without entropy =    -1214.22502501  energy(sigma->0) =    -1214.22502513


--------------------------------------------------------------------------------------------------------




--------------------------------------- Iteration      1(  11)  ---------------------------------------


    EDDIAG:  cpu time    4.4316: real time    4.7892
  RMM-DIIS:  cpu time   19.5384: real time   19.5941
    ORTHCH:  cpu time    1.2283: real time    1.3116
       DOS:  cpu time    0.0016: real time    0.0016
    --------------------------------------------
      LOOP:  cpu time   25.1999: real time   25.6965

 eigenvalue-minimisations  : 22583
 total energy-change (2. order) : 0.6880058E-01  (-0.4368851E-01)
 number of electron     672.0000000 magnetization      48.0000000
 augmentation part      672.0000000 magnetization      48.0000000

 Free energy of the ion-electron system (eV)
  ---------------------------------------------------
  alpha Z        PSCENC =      2652.81237852
  Ewald energy   TEWEN  =    -41934.43425653
  -Hartree energ DENC   =    -25684.95481900
  -exchange      EXHF   =         0.00000000
  -V(xc)+E(xc)   XCENC  =      3605.72550898
  PAW double counting   =     55594.23204139   -59034.67079123
  entropy T*S    EENTRO =        -0.00000028
  eigenvalues    EBANDS =    -10275.06443423
  atomic energy  EATOM  =     73862.19814772
  Solvation  Ediel_sol  =         0.00000000
  ---------------------------------------------------
  free energy    TOTEN  =     -1214.15622467 eV

  energy without entropy =    -1214.15622439  energy(sigma->0) =    -1214.15622453


--------------------------------------------------------------------------------------------------------




--------------------------------------- Iteration      1(  12)  ---------------------------------------


    EDDIAG:  cpu time    4.4533: real time    4.8150
  RMM-DIIS:  cpu time   21.5950: real time   21.6192
    ORTHCH:  cpu time    1.1617: real time    1.2443
       DOS:  cpu time    0.0018: real time    0.0018
    CHARGE:  cpu time    1.7820: real time    1.7827
    MIXING:  cpu time    0.0010: real time    0.0012
    --------------------------------------------
      LOOP:  cpu time   28.9948: real time   29.4642

 eigenvalue-minimisations  : 24439
 total energy-change (2. order) :-0.8017069E-03  (-0.4361936E-02)
 number of electron     671.9999962 magnetization      48.0000008
 augmentation part      239.0415682 magnetization      29.0340587

 Broyden mixing:
  rms(total) = 0.12512E+02    rms(broyden)= 0.12503E+02
  rms(prec ) = 0.14375E+02
  weight for this iteration     100.00

 Free energy of the ion-electron system (eV)
  ---------------------------------------------------
  alpha Z        PSCENC =      2652.81237852
  Ewald energy   TEWEN  =    -41934.43425653
  -Hartree energ DENC   =    -25684.95481900
  -exchange      EXHF   =         0.00000000
  -V(xc)+E(xc)   XCENC  =      3605.72550898
  PAW double counting   =     55594.23204139   -59034.67079123
  entropy T*S    EENTRO =        -0.00000028
  eigenvalues    EBANDS =    -10275.06523595
  atomic energy  EATOM  =     73862.19814772
  Solvation  Ediel_sol  =         0.00000000
  ---------------------------------------------------
  free energy    TOTEN  =     -1214.15702638 eV

  energy without entropy =    -1214.15702610  energy(sigma->0) =    -1214.15702624


--------------------------------------------------------------------------------------------------------




--------------------------------------- Iteration      1(  13)  ---------------------------------------


    POTLOK:  cpu time    0.1733: real time    0.1734
    SETDIJ:  cpu time    5.0110: real time    5.0119
    EDDIAG:  cpu time    4.4129: real time    4.7844
  RMM-DIIS:  cpu time   17.2615: real time   17.3255
    ORTHCH:  cpu time    1.1576: real time    1.2418
       DOS:  cpu time    0.0014: real time    0.0014
    CHARGE:  cpu time    1.7866: real time    1.7902
    MIXING:  cpu time    0.0009: real time    0.0010
    --------------------------------------------
      LOOP:  cpu time   29.8052: real time   30.3297

 eigenvalue-minimisations  : 18761
 total energy-change (2. order) : 0.2281482E+03  (-0.1223816E+03)
 number of electron     672.0000045 magnetization      48.0000009
 augmentation part      269.0662510 magnetization      26.4020069

 Broyden mixing:
  rms(total) = 0.13967E+02    rms(broyden)= 0.13963E+02
  rms(prec ) = 0.15743E+02
  weight for this iteration     100.00

 eigenvalues of (default mixing * dielectric matrix)
  average eigenvalue GAMMA=   0.3167
  0.3167

 Free energy of the ion-electron system (eV)
  ---------------------------------------------------
  alpha Z        PSCENC =      2652.81237852
  Ewald energy   TEWEN  =    -41934.43425653
  -Hartree energ DENC   =    -25013.91591018
  -exchange      EXHF   =         0.00000000
  -V(xc)+E(xc)   XCENC  =      3695.88877268
  PAW double counting   =     59862.87242762   -63287.91839987
  entropy T*S    EENTRO =        -0.05788838
  eigenvalues    EBANDS =    -10823.45412491
  atomic energy  EATOM  =     73862.19814772
  Solvation  Ediel_sol  =         0.00000000
  ---------------------------------------------------
  free energy    TOTEN  =      -986.00885333 eV

  energy without entropy =     -985.95096495  energy(sigma->0) =     -985.97990914


--------------------------------------------------------------------------------------------------------




--------------------------------------- Iteration      1(  14)  ---------------------------------------


    POTLOK:  cpu time    0.1749: real time    0.1755
    SETDIJ:  cpu time    4.9594: real time    4.9630
    EDDIAG:  cpu time    4.4242: real time    4.7991
  RMM-DIIS:  cpu time   17.5732: real time   17.6385
    ORTHCH:  cpu time    1.1598: real time    1.2402
       DOS:  cpu time    0.0024: real time    0.0024
    CHARGE:  cpu time    1.7922: real time    1.7939
    MIXING:  cpu time    0.0009: real time    0.0009
    --------------------------------------------
      LOOP:  cpu time   30.0869: real time   30.6137

 eigenvalue-minimisations  : 19378
 total energy-change (2. order) : 0.7100012E+02  (-0.1770801E+02)
 number of electron     672.0000002 magnetization      48.0000013
 augmentation part      246.5498883 magnetization      32.1798548

 Broyden mixing:
  rms(total) = 0.52535E+01    rms(broyden)= 0.52491E+01
  rms(prec ) = 0.56815E+01
  weight for this iteration     100.00

 eigenvalues of (default mixing * dielectric matrix)
  average eigenvalue GAMMA=   0.7280
  1.0992  0.3569

 Free energy of the ion-electron system (eV)
  ---------------------------------------------------
  alpha Z        PSCENC =      2652.81237852
  Ewald energy   TEWEN  =    -41934.43425653
  -Hartree energ DENC   =    -25625.14557903
  -exchange      EXHF   =         0.00000000
  -V(xc)+E(xc)   XCENC  =      3673.16813029
  PAW double counting   =     63236.00537238   -66718.19720448
  entropy T*S    EENTRO =        -0.00000000
  eigenvalues    EBANDS =    -10061.41571990
  atomic energy  EATOM  =     73862.19814772
  Solvation  Ediel_sol  =         0.00000000
  ---------------------------------------------------
  free energy    TOTEN  =      -915.00873104 eV

  energy without entropy =     -915.00873104  energy(sigma->0) =     -915.00873104


--------------------------------------------------------------------------------------------------------




--------------------------------------- Iteration      1(  15)  ---------------------------------------


    POTLOK:  cpu time    0.1715: real time    0.1716
    SETDIJ:  cpu time    5.0062: real time    5.0085
    EDDIAG:  cpu time    4.4509: real time    4.7858
  RMM-DIIS:  cpu time   17.9837: real time   18.0360
    ORTHCH:  cpu time    1.2220: real time    1.3070
       DOS:  cpu time    0.0011: real time    0.0011
    CHARGE:  cpu time    1.7926: real time    1.7933
    MIXING:  cpu time    0.0013: real time    0.0013
    --------------------------------------------
      LOOP:  cpu time   30.6293: real time   31.1045

 eigenvalue-minimisations  : 20227
 total energy-change (2. order) : 0.1412218E+02  (-0.1947072E+01)
 number of electron     672.0000013 magnetization      48.0000017
 augmentation part      249.6846901 magnetization      33.8384495

 Broyden mixing:
  rms(total) = 0.21265E+01    rms(broyden)= 0.21262E+01
  rms(prec ) = 0.22066E+01
  weight for this iteration     100.00

 eigenvalues of (default mixing * dielectric matrix)
  average eigenvalue GAMMA=   0.9615
  0.3809  0.7664  1.7371

 Free energy of the ion-electron system (eV)
  ---------------------------------------------------
  alpha Z        PSCENC =      2652.81237852
  Ewald energy   TEWEN  =    -41934.43425653
  -Hartree energ DENC   =    -25543.52297538
  -exchange      EXHF   =         0.00000000
  -V(xc)+E(xc)   XCENC  =      3706.27918023
  PAW double counting   =     67298.42705054   -70820.88730836
  entropy T*S    EENTRO =        -0.00000000
  eigenvalues    EBANDS =    -10121.75877149
  atomic energy  EATOM  =     73862.19814772
  Solvation  Ediel_sol  =         0.00000000
  ---------------------------------------------------
  free energy    TOTEN  =      -900.88655474 eV

  energy without entropy =     -900.88655474  energy(sigma->0) =     -900.88655474


--------------------------------------------------------------------------------------------------------




--------------------------------------- Iteration      1(  16)  ---------------------------------------


    POTLOK:  cpu time    0.1678: real time    0.1686
    SETDIJ:  cpu time    5.0628: real time    5.0650
    EDDIAG:  cpu time    4.5453: real time    4.8999
  RMM-DIIS:  cpu time   17.3708: real time   17.4026
    ORTHCH:  cpu time    1.1809: real time    1.2644
       DOS:  cpu time    0.0021: real time    0.0021
    CHARGE:  cpu time    1.7951: real time    1.7969
    MIXING:  cpu time    0.0009: real time    0.0009
    --------------------------------------------
      LOOP:  cpu time   30.1257: real time   30.6005

 eigenvalue-minimisations  : 19071
 total energy-change (2. order) :-0.1602005E+01  (-0.6534508E+00)
 number of electron     672.0000016 magnetization      48.0000019
 augmentation part      251.2069596 magnetization      33.9192136

 Broyden mixing:
  rms(total) = 0.13734E+01    rms(broyden)= 0.13728E+01
  rms(prec ) = 0.14701E+01
  weight for this iteration     100.00

 eigenvalues of (default mixing * dielectric matrix)
  average eigenvalue GAMMA=   0.9817
  2.0815  0.9136  0.3874  0.5444

 Free energy of the ion-electron system (eV)
  ---------------------------------------------------
  alpha Z        PSCENC =      2652.81237852
  Ewald energy   TEWEN  =    -41934.43425653
  -Hartree energ DENC   =    -25491.85943947
  -exchange      EXHF   =         0.00000000
  -V(xc)+E(xc)   XCENC  =      3707.44874845
  PAW double counting   =     70282.32303336   -73835.23755924
  entropy T*S    EENTRO =        -0.00000000
  eigenvalues    EBANDS =    -10145.73961224
  atomic energy  EATOM  =     73862.19814772
  Solvation  Ediel_sol  =         0.00000000
  ---------------------------------------------------
  free energy    TOTEN  =      -902.48855943 eV

  energy without entropy =     -902.48855943  energy(sigma->0) =     -902.48855943


--------------------------------------------------------------------------------------------------------




--------------------------------------- Iteration      1(  17)  ---------------------------------------


    POTLOK:  cpu time    0.1730: real time    0.1731
    SETDIJ:  cpu time    5.0655: real time    5.0679
    EDDIAG:  cpu time    4.4999: real time    4.8616
  RMM-DIIS:  cpu time   18.0733: real time   18.0912
    ORTHCH:  cpu time    1.1538: real time    1.2410
       DOS:  cpu time    0.0015: real time    0.0015
    CHARGE:  cpu time    1.7843: real time    1.7880
    MIXING:  cpu time    0.0019: real time    0.0019
    --------------------------------------------
      LOOP:  cpu time   30.7532: real time   31.2261

 eigenvalue-minimisations  : 20366
 total energy-change (2. order) : 0.2181825E+00  (-0.5795223E-01)
 number of electron     672.0000017 magnetization      48.0000020
 augmentation part      251.0628779 magnetization      33.9142180

 Broyden mixing:
  rms(total) = 0.74104E+00    rms(broyden)= 0.74096E+00
  rms(prec ) = 0.83525E+00
  weight for this iteration     100.00

 eigenvalues of (default mixing * dielectric matrix)
  average eigenvalue GAMMA=   1.0119
  2.2455  1.1477  0.3795  0.7124  0.5744

 Free energy of the ion-electron system (eV)
  ---------------------------------------------------
  alpha Z        PSCENC =      2652.81237852
  Ewald energy   TEWEN  =    -41934.43425653
  -Hartree energ DENC   =    -25484.79589280
  -exchange      EXHF   =         0.00000000
  -V(xc)+E(xc)   XCENC  =      3704.41227571
  PAW double counting   =     71108.64570780   -74669.61305267
  entropy T*S    EENTRO =        -0.00000000
  eigenvalues    EBANDS =    -10141.49568468
  atomic energy  EATOM  =     73862.19814772
  Solvation  Ediel_sol  =         0.00000000
  ---------------------------------------------------
  free energy    TOTEN  =      -902.27037693 eV

  energy without entropy =     -902.27037693  energy(sigma->0) =     -902.27037693


--------------------------------------------------------------------------------------------------------




--------------------------------------- Iteration      1(  18)  ---------------------------------------


    POTLOK:  cpu time    0.1709: real time    0.1717
    SETDIJ:  cpu time    5.5851: real time    5.5903
    EDDIAG:  cpu time    4.4872: real time    4.8824
  RMM-DIIS:  cpu time   17.7253: real time   17.7396
    ORTHCH:  cpu time    1.1572: real time    1.2388
       DOS:  cpu time    0.0011: real time    0.0011
    CHARGE:  cpu time    1.7923: real time    1.7930
    MIXING:  cpu time    0.0011: real time    0.0011
    --------------------------------------------
      LOOP:  cpu time   30.9203: real time   31.4181

 eigenvalue-minimisations  : 19225
 total energy-change (2. order) : 0.3883850E+00  (-0.6865067E-01)
 number of electron     672.0000014 magnetization      48.0000020
 augmentation part      250.5670694 magnetization      33.8766489

 Broyden mixing:
  rms(total) = 0.27497E+00    rms(broyden)= 0.27468E+00
  rms(prec ) = 0.29223E+00
  weight for this iteration     100.00

 eigenvalues of (default mixing * dielectric matrix)
  average eigenvalue GAMMA=   1.0172
  2.4588  1.3445  0.8542  0.3806  0.5944  0.4705

 Free energy of the ion-electron system (eV)
  ---------------------------------------------------
[...]
   4      -0.786    -0.712     1.498     0.122     0.328    -0.270
   5      -0.560    -0.653     1.214     0.021    -0.025    -0.070
   6      -0.883    -0.612     1.495    -0.139     0.385     0.223
   7      -0.775    -0.750     1.525    -0.100    -0.391    -0.294
   8      -0.980    -0.850     1.830     0.007     0.011    -0.069
   9      -0.657    -0.845     1.503     0.078     0.113    -0.502
  10      -0.841    -0.784     1.625    -0.112     0.431     0.261
  11      -0.809    -0.577     1.386     0.168    -0.344     0.215
  12      -0.642    -0.889     1.531    -0.024     0.039     0.528
  13      -0.783    -0.644     1.426    -0.073    -0.176    -0.174
  14      -0.998    -0.845     1.843    -0.036    -0.044     0.041
  15      -0.649    -0.680     1.329     0.004    -0.093    -0.053
  16      -0.825    -0.657     1.482     0.097    -0.369     0.182
  17       1.547     1.212    -2.758     0.014    -0.054    -0.003
  18       1.434     1.429    -2.864     0.298    -0.078     0.007
  19       1.268     1.470    -2.738    -0.094    -0.005    -0.149
  20       1.467     1.385    -2.852     0.085     0.026     0.082
  21       1.367     1.564    -2.931    -0.169    -0.052    -0.013
  22       1.426     1.557    -2.983    -0.031    -0.044    -0.148
  23       1.396     1.568    -2.964     0.076     0.076     0.188
  24       1.561     1.352    -2.913    -0.043    -0.041    -0.160
  25      -2.606     1.505     1.101     0.713    -1.145    -0.473
  26       0.299    -0.081    -0.217    -0.330     0.767    -0.528
  27       1.315    -2.490     1.175     0.244    -1.025    -0.262
  28      -1.219    -0.292     1.511    -0.694     0.363    -0.318
  29       0.622     0.916    -1.539     0.661     0.677    -0.923
  30      -0.337    -0.680     1.017    -0.144     0.279     1.727
  31       0.680    -1.149     0.469    -0.792    -0.077    -0.089
  32       3.282    -1.234    -2.048     0.311    -2.268     0.978
  33       0.603    -0.019    -0.583    -0.108     0.439     0.971
  34      -0.981     0.929     0.052    -1.352    -0.262     1.366
  35       0.055     0.138    -0.193     0.238    -0.738    -0.887
  36      -0.897    -0.288     1.185     0.843    -0.224     0.350
  37      -1.128    -1.427     2.555    -0.452    -0.956     0.317
  38      -1.504     1.531    -0.026    -0.686    -1.993     0.172
  39      -0.726     0.145     0.581    -0.231    -0.300    -0.104
  40      -1.117    -0.400     1.518     0.390     0.378    -0.449
  41      -3.319     1.987     1.333    -5.908     1.990    -4.026
  42      -2.753     2.625     0.128     6.212     2.309     3.493
  43       4.728    -5.425     0.697    -0.806    -4.192    -0.588
  44      -2.724     2.412     0.312     5.602    -3.919    -4.181
  45      -2.249     2.787    -0.539    -6.930    -0.687     4.437
  46       6.805    -5.107    -1.697     0.268     4.046     0.285
  47      -3.754     2.727     1.027    -4.677     4.320    -4.533
  48       5.779    -5.443    -0.336     0.236    -3.376     0.516
  49      -2.740     3.916    -1.176     5.356     2.891     2.149
  50       6.292    -6.224    -0.069     0.983     4.638     0.256
  51      -2.347     1.774     0.573    -4.890    -2.787     3.433
  52      -4.148     4.181    -0.033     2.754    -1.863    -4.006
  53      -2.395     1.276     1.119    -5.903     3.942    -2.571
  54      -4.245     1.469     2.776     4.482     2.193     5.360
  55       3.008    -6.596     3.588    -0.039    -5.739    -1.231
  56      -3.281     2.873     0.408     5.041    -3.463    -4.068
  57      -4.118     1.946     2.173    -4.765    -3.880     4.981
  58       7.968    -7.723    -0.245    -0.075     4.504     1.171
  59      -0.608     1.100    -0.492    -5.372     2.213    -3.497
  60       5.235    -4.944    -0.291     1.430    -4.144     1.571
  61      -2.085     3.020    -0.935     5.164     1.598     4.059
  62       3.534    -4.955     1.421    -0.261     4.161    -0.559
  63      -3.513     2.858     0.655    -5.005    -0.648     4.813
  64      -1.972     2.909    -0.938     5.839    -2.459    -2.031
  65      -4.232     4.125     0.107    -6.176     2.001    -3.687
  66      -4.800     1.906     2.894     4.267     3.526     5.013
  67       1.858    -6.691     4.833    -0.999    -5.079    -0.971
  68      -4.246     1.506     2.740     3.264    -0.410    -4.070
  69      -3.767     4.098    -0.331    -3.374    -1.371     2.927
  70       4.973    -5.650     0.678     0.552     4.016     0.552
  71      -1.978     2.984    -1.007    -3.850     1.764    -3.065
  72       5.030    -4.505    -0.526     0.662    -4.172    -0.292
  73      -0.883     1.686    -0.804     4.565     0.617     3.830
  74       3.309    -5.729     2.420     0.590     4.769     0.322
  75      -4.233     1.392     2.842    -4.486    -3.049     3.969
  76      -3.160     1.000     2.160     5.505    -4.904    -3.910
  77      -4.488     1.207     3.281    -4.996     2.291    -6.026
  78      -4.874     5.632    -0.757     5.762     1.572     4.953
  79       7.064    -7.425     0.361     2.475    -4.850     0.816
  80      -2.456     0.878     1.579     5.160    -3.841    -4.534
  81      -2.583     0.723     1.860    -4.316    -1.376     4.980
  82       4.129    -6.176     2.047     1.562     4.174    -0.817
  83      -3.053     2.278     0.775    -4.324     0.449    -4.194
  84       5.609    -5.153    -0.456     0.741    -3.908    -1.323
  85      -3.918     2.788     1.130     3.362     0.801     5.248
  86       6.023    -5.895    -0.129     1.420     4.158     0.440
  87      -3.042     6.090    -3.048    -2.815    -3.220     1.759
  88      -3.268     0.981     2.287     5.229    -3.031    -4.612
 ---------------------------------------------------------------------


 Total hyperfine coupling parameters after diagonalization (MHz)
 (convention: |A_zz| > |A_xx| > |A_yy|)
 ----------------------------------------------------------------------
  ion      A_xx      A_yy      A_zz     asymmetry (A_yy - A_xx)/ A_zz 
 ----------------------------------------------------------------------
   1       0.510     0.375     3.154      -0.043
   2       1.985     1.687     4.334      -0.069
   3       2.288     1.949     4.835      -0.070
   4       2.516     2.188     4.710      -0.070
   5       1.346     1.243     3.119      -0.033
   6       2.772     2.307     4.900      -0.095
   7       2.589     2.292     4.872      -0.061
   8       0.465     0.335     3.148      -0.041
   9       1.590     1.241     3.829      -0.091
  10       2.321     1.995     4.739      -0.069
  11       1.861     1.384     3.807      -0.125
  12       1.802     1.440     4.084      -0.089
  13       0.215    -0.007     2.285      -0.097
  14       0.995     0.826     3.678      -0.046
  15       0.610     0.582     2.598      -0.011
  16       1.921     1.595     4.086      -0.080
  17      13.471     9.501    13.807      -0.288
  18      12.870     8.870    13.466      -0.297
  19      13.057     9.082    13.337      -0.298
  20      14.625    10.440    14.815      -0.282
  21      14.173     9.972    14.564      -0.289
  22      15.115    10.706    15.262      -0.289
  23      15.075    10.736    15.314      -0.283
  24      14.080     9.811    14.300      -0.299
  25      95.447    91.594    96.744      -0.040
  26      93.266    92.670    94.664      -0.006
  27     100.603    97.869   102.684      -0.027
  28      94.365    92.815    96.065      -0.016
  29      93.433    90.688    94.291      -0.029
  30      97.253    95.746    99.654      -0.015
  31      98.329    96.406    98.835      -0.019
  32      97.630    95.000   102.490      -0.026
  33      99.105    97.179    99.452      -0.019
  34      95.300    94.101    98.300      -0.012
  35      92.520    91.554    93.922      -0.010
  36      99.195    97.374   100.181      -0.018
  37      96.733    96.001   100.611      -0.007
  38     100.732    96.863   101.814      -0.038
  39      96.758    95.704    97.209      -0.011
  40      92.758    91.635    94.669      -0.012
  41       6.857     1.062    16.811      -0.345
  42       4.694    -0.232    15.342      -0.321
  43       5.474     1.516    14.557      -0.272
  44       6.583     2.940    18.999      -0.192
  45       8.543     2.384    19.456      -0.317
  46       6.105     4.273    17.836      -0.103
  47       3.825    -0.280    16.073      -0.255
  48       3.710    -0.074    12.733      -0.297
  49       4.894     0.500    14.815      -0.297
  50       4.356     0.551    15.655      -0.243
  51       3.718     0.181    13.547      -0.261
  52       5.111     2.452    15.096      -0.176
  53       5.707    -0.214    15.302      -0.387
  54       6.821     2.429    18.346      -0.239
  55       4.466    -0.080    15.832      -0.287
  56       4.000     0.254    15.548      -0.241
  57       3.799    -0.285    16.365      -0.250
  58       7.216     1.293    19.203      -0.308
  59       3.338     0.474    13.504      -0.212
  60       8.291     3.499    17.108      -0.280
  61       3.889     1.136    14.878      -0.185
  62       5.315     2.100    13.902      -0.231
  63       4.893    -0.335    14.801      -0.353
  64       7.580     3.339    17.256      -0.246
  65       6.463     0.757    17.582      -0.325
  66       4.969     0.468    17.025      -0.264
  67       6.298     0.805    16.512      -0.333
  68       6.348     1.232    14.000      -0.365
  69       3.026    -0.243    11.595      -0.282
  70       3.836    -0.147    12.979      -0.307
  71       3.844     2.386    13.172      -0.111
  72       4.342     2.550    14.409      -0.124
  73       6.695     2.819    14.896      -0.260
  74      -1.998     1.851    11.455       0.336
  75       4.423    -0.809    14.332      -0.365
  76       6.755     1.551    18.716      -0.278
  77       4.841    -0.140    17.500      -0.285
  78       7.398     2.976    20.999      -0.211
  79       7.198     0.614    18.610      -0.354
  80       7.074     3.799    19.282      -0.170
  81       4.040    -0.271    13.632      -0.316
  82       4.531    -1.409    12.705      -0.468
  83       7.002     2.188    15.306      -0.315
  84       4.198     0.825    13.979      -0.241
  85       5.808     2.477    16.257      -0.205
  86       6.355     2.502    16.835      -0.229
  87       7.586     2.503    16.369      -0.311
  88       3.486    -1.068    14.743      -0.309
 ---------------------------------------------------------------------



--------------------------------------------------------------------------------------------------------


 stress matrix after NEB project (eV)
    -44.97120     -0.77025     -0.36310
     -0.78012    -46.46839     -1.43484
     -0.34335     -1.41925    -61.47068
  FORCES: max atom, RMS     2.204890    1.064740
  FORCE total and by dimension    9.988150    1.880636
  Stress total and by dimension   89.251830   61.470680
     LOOP+:  cpu time  865.1887: real time  882.0949
    4ORBIT:  cpu time    0.0000: real time    0.0000
 


 total charge     
 
# of ion       s       p       d       tot
------------------------------------------
    1        0.050   5.992   0.000   6.042
    2        0.052   5.994   0.000   6.047
    3        0.055   5.997   0.000   6.052
    4        0.053   5.996   0.000   6.049
    5        0.053   5.997   0.000   6.049
    6        0.049   5.991   0.000   6.040
    7        0.054   5.996   0.000   6.050
    8        0.054   5.999   0.000   6.053
    9        0.051   5.995   0.000   6.046
   10        0.052   5.994   0.000   6.046
   11        0.047   5.989   0.000   6.036
   12        0.053   5.994   0.000   6.047
   13        0.047   5.990   0.000   6.037
   14        0.052   5.997   0.000   6.049
   15        0.046   5.989   0.000   6.036
   16        0.046   5.988   0.000   6.033
   17        0.141   6.114   0.072   6.326
   18        0.147   6.124   0.081   6.352
   19        0.148   6.124   0.080   6.352
   20        0.146   6.121   0.078   6.345
   21        0.153   6.134   0.089   6.376
   22        0.154   6.137   0.091   6.382
   23        0.156   6.136   0.089   6.381
   24        0.150   6.129   0.085   6.364
   25        0.379   6.464   4.839  11.682
   26        0.379   6.464   4.833  11.676
   27        0.381   6.466   4.844  11.692
   28        0.382   6.472   4.838  11.692
   29        0.374   6.449   4.825  11.648
   30        0.370   6.444   4.821  11.635
   31        0.361   6.426   4.793  11.579
   32        0.375   6.447   4.846  11.667
   33        0.377   6.457   4.839  11.673
   34        0.372   6.448   4.821  11.640
   35        0.377   6.455   4.837  11.669
   36        0.371   6.447   4.818  11.636
   37        0.373   6.446   4.825  11.644
   38        0.371   6.445   4.825  11.641
   39        0.382   6.471   4.844  11.697
   40        0.379   6.462   4.824  11.665
   41        1.598   3.510   0.000   5.108
   42        1.597   3.491   0.000   5.088
   43        1.597   3.512   0.000   5.109
   44        1.603   3.506   0.000   5.109
   45        1.600   3.483   0.000   5.083
   46        1.600   3.497   0.000   5.098
   47        1.605   3.540   0.000   5.145
   48        1.598   3.497   0.000   5.094
   49        1.599   3.489   0.000   5.088
   50        1.599   3.504   0.000   5.103
   51        1.594   3.473   0.000   5.068
   52        1.597   3.522   0.000   5.119
   53        1.598   3.499   0.000   5.097
   54        1.601   3.516   0.000   5.117
   55        1.597   3.486   0.000   5.083
   56        1.599   3.489   0.000   5.088
   57        1.599   3.486   0.000   5.085
   58        1.603   3.510   0.000   5.113
   59        1.600   3.523   0.000   5.122
   60        1.597   3.518   0.000   5.114
   61        1.600   3.522   0.000   5.122
   62        1.596   3.519   0.000   5.115
   63        1.600   3.502   0.000   5.102
   64        1.599   3.517   0.000   5.117
   65        1.600   3.497   0.000   5.098
   66        1.600   3.483   0.000   5.083
   67        1.599   3.491   0.000   5.090
   68        1.596   3.528   0.000   5.124
   69        1.596   3.496   0.000   5.092
   70        1.598   3.503   0.000   5.100
   71        1.595   3.495   0.000   5.090
   72        1.600   3.513   0.000   5.112
   73        1.599   3.530   0.000   5.130
   74        1.598   3.501   0.000   5.099
   75        1.599   3.528   0.000   5.127
   76        1.602   3.534   0.000   5.136
   77        1.603   3.491   0.000   5.094
   78        1.602   3.459   0.000   5.061
   79        1.602   3.483   0.000   5.085
   80        1.599   3.503   0.000   5.102
   81        1.597   3.505   0.000   5.102
   82        1.597   3.518   0.000   5.115
   83        1.598   3.517   0.000   5.115
   84        1.598   3.507   0.000   5.105
   85        1.600   3.552   0.000   5.153
   86        1.601   3.512   0.000   5.114
   87        1.599   3.479   0.000   5.078
   88        1.598   3.471   0.000   5.069
--------------------------------------------------
tot         84.767 416.385  77.934 579.086
 


 magnetization (x)
 
# of ion       s       p       d       tot
------------------------------------------
    1        0.001   0.000   0.000   0.002
    2        0.002   0.000   0.000   0.002
    3        0.002   0.000   0.000   0.002
    4        0.002   0.000   0.000   0.003
    5        0.001   0.001   0.000   0.002
    6        0.002   0.001   0.000   0.003
    7        0.002   0.000   0.000   0.003
    8        0.001   0.000   0.000   0.001
    9        0.002  -0.000   0.000   0.001
   10        0.002   0.000   0.000   0.002
   11        0.002   0.001   0.000   0.002
   12        0.002   0.000   0.000   0.002
   13        0.001   0.000   0.000   0.001
   14        0.001   0.001   0.000   0.002
   15        0.001   0.000   0.000   0.001
   16        0.002   0.000   0.000   0.002
   17        0.007   0.002   0.001   0.010
   18        0.007   0.001   0.001   0.009
   19        0.007   0.002   0.001   0.009
   20        0.007   0.002   0.001   0.011
   21        0.007   0.003   0.001   0.011
   22        0.007   0.003   0.001   0.012
   23        0.008   0.003   0.001   0.012
   24        0.007   0.002   0.001   0.011
   25        0.014   0.030   2.752   2.796
   26        0.014   0.030   2.744   2.788
   27        0.017   0.032   2.739   2.788
   28        0.015   0.030   2.751   2.795
   29        0.014   0.029   2.740   2.783
   30        0.015   0.030   2.768   2.813
   31        0.015   0.029   2.794   2.838
   32        0.016   0.030   2.733   2.778
   33        0.016   0.031   2.749   2.796
   34        0.015   0.029   2.756   2.800
   35        0.014   0.030   2.749   2.793
   36        0.016   0.030   2.770   2.817
   37        0.015   0.029   2.759   2.803
   38        0.016   0.030   2.761   2.808
   39        0.016   0.031   2.744   2.791
   40        0.014   0.030   2.751   2.795
   41        0.002   0.041   0.000   0.043
   42        0.002   0.028   0.000   0.030
   43        0.002   0.035   0.000   0.037
   44        0.002   0.045   0.000   0.047
   45        0.003   0.050   0.000   0.052
   46        0.002   0.044   0.000   0.046
   47        0.002   0.033   0.000   0.035
   48        0.002   0.014   0.000   0.016
   49        0.002   0.026   0.000   0.028
   50        0.002   0.030   0.000   0.032
   51        0.002   0.015   0.000   0.017
   52        0.002   0.034   0.000   0.036
   53        0.002   0.035   0.000   0.037
   54        0.002   0.049   0.000   0.051
   55        0.002   0.026   0.000   0.028
   56        0.002   0.022   0.000   0.024
   57        0.002   0.033   0.000   0.034
   58        0.002   0.048   0.000   0.050
   59        0.002   0.016   0.000   0.018
   60        0.002   0.046   0.000   0.049
   61        0.002   0.026   0.000   0.027
   62        0.002   0.034   0.000   0.035
   63        0.002   0.026   0.000   0.028
   64        0.002   0.044   0.000   0.046
   65        0.002   0.042   0.000   0.044
   66        0.002   0.033   0.000   0.035
   67        0.002   0.036   0.000   0.038
   68        0.002   0.039   0.000   0.041
   69        0.001   0.009   0.000   0.010
   70        0.002   0.016   0.000   0.018
   71        0.002   0.022   0.000   0.024
   72        0.002   0.027   0.000   0.029
   73        0.002   0.033   0.000   0.035
   74        0.001   0.010   0.000   0.011
   75        0.002   0.034   0.000   0.036
   76        0.002   0.054   0.000   0.056
   77        0.002   0.035   0.000   0.037
   78        0.003   0.053   0.000   0.055
   79        0.002   0.039   0.000   0.042
   80        0.003   0.056   0.000   0.059
   81        0.002   0.027   0.000   0.029
   82        0.001   0.022   0.000   0.023
   83        0.002   0.036   0.000   0.038
   84        0.002   0.021   0.000   0.022
   85        0.002   0.046   0.000   0.048
   86        0.002   0.043   0.000   0.045
   87        0.002   0.031   0.000   0.033
   88        0.002   0.018   0.000   0.020
--------------------------------------------------
tot          0.421   2.084  44.070  46.574
 

 total amount of memory used by VASP MPI-rank0    94433. kBytes
=======================================================================

   base      :      30000. kBytes
   nonlr-proj:      13674. kBytes
   fftplans  :       1275. kBytes
   grid      :      22786. kBytes
   one-center:       2737. kBytes
   wavefun   :      23961. kBytes
 
  
  
 General timing and accounting informations for this job:
 ========================================================
  
                  Total CPU time used (sec):      885.817
                            User time (sec):      877.036
                          System time (sec):        8.781
                         Elapsed time (sec):      905.264
  
                   Maximum memory used (kb):      193704.
                   Average memory used (kb):           0.
  
                          Minor page faults:       351693
                          Major page faults:            0
                 Voluntary context switches:       289703
