 vasp.5.4.4.18Apr17-6-g9f103f2a35 (build Dec 02 2020 12:53:39) complex          
  
 executed on             LinuxIFC date 2021.08.04  08:07:42
 running on  112 total cores
 distrk:  each k-point on  112 cores,    1 groups
 distr:  one band on NCORES_PER_BAND=   1 cores,  112 groups


--------------------------------------------------------------------------------------------------------


 INCAR:
 POTCAR:    PAW_PBE Na_pv 19Sep2006               
 POTCAR:    PAW_PBE Mg_pv 13Apr2007               
 POTCAR:    PAW_PBE Mn_pv 02Aug2007               
 POTCAR:    PAW_PBE O 08Apr2002                   

 ----------------------------------------------------------------------------- 
|                                                                             |
|           W    W    AA    RRRRR   N    N  II  N    N   GGGG   !!!           |
|           W    W   A  A   R    R  NN   N  II  NN   N  G    G  !!!           |
|           W    W  A    A  R    R  N N  N  II  N N  N  G       !!!           |
|           W WW W  AAAAAA  RRRRR   N  N N  II  N  N N  G  GGG   !            |
|           WW  WW  A    A  R   R   N   NN  II  N   NN  G    G                |
|           W    W  A    A  R    R  N    N  II  N    N   GGGG   !!!           |
|                                                                             |
|      For optimal performance we recommend to set                            |
|        NCORE= 4 - approx SQRT( number of cores)                             |
|      NCORE specifies how many cores store one orbital (NPAR=cpu/NCORE).     |
|      This setting can  greatly improve the performance of VASP for DFT.     |
|      The default,   NCORE=1            might be grossly inefficient         |
|      on modern multi-core architectures or massively parallel machines.     |
|      Do your own testing !!!!                                               |
|      Unfortunately you need to use the default for GW and RPA calculations. |
|      (for HF NCORE is supported but not extensively tested yet)             |
|                                                                             |
 ----------------------------------------------------------------------------- 

 POTCAR:    PAW_PBE Na_pv 19Sep2006               
   VRHFIN =Na: p6s1                                                             
   LEXCH  = PE                                                                  
   EATOM  =   766.0439 eV,   56.3026 Ry                                         
                                                                                
   TITEL  = PAW_PBE Na_pv 19Sep2006                                             
   LULTRA =        F    use ultrasoft PP ?                                      
   IUNSCR =        1    unscreen: 0-lin 1-nonlin 2-no                           
   RPACOR =    1.800    partial core radius                                     
   POMASS =   22.990; ZVAL   =    7.000    mass and valenz                      
   RCORE  =    2.200    outmost cutoff radius                                   
   RWIGS  =    2.200; RWIGS  =    1.164    wigner-seitz radius (au A)           
   ENMAX  =  259.561; ENMIN  =  194.671 eV                                      
   ICORE  =        2    local potential                                         
   LCOR   =        T    correct aug charges                                     
   LPAW   =        T    paw PP                                                  
   EAUG   =  368.056                                                            
   DEXC   =    0.000                                                            
   RMAX   =    2.245    core radius for proj-oper                               
   RAUG   =    1.300    factor for augmentation sphere                          
   RDEP   =    2.259    radius for radial grids                                 
   RDEPT  =    1.738    core radius for aug-charge                              
                                                                                
   Atomic configuration                                                         
    5 entries                                                                   
     n  l   j            E        occ.                                          
     1  0  0.50     -1033.6933   2.0000                                         
     2  0  0.50       -56.7526   2.0000                                         
     2  1  1.50       -28.6721   6.0000                                         
     3  0  0.50        -2.7440   1.0000                                         
     3  2  1.50        -1.3606   0.0000                                         
   Description                                                                  
     l       E           TYP  RCUT    TYP  RCUT                                 
     1    -28.6720912     23  2.000                                             
     1      6.8029130     23  2.000                                             
     0     -2.7439560     23  2.200                                             
     0     34.0145650     23  2.200                                             
     2     -1.3605826     23  2.200                                             
  local pseudopotential read in
  partial core-charges read in
  partial kinetic energy density read in
  atomic valenz-charges read in
  non local Contribution for L=           1  read in
    real space projection operators read in
  non local Contribution for L=           1  read in
    real space projection operators read in
  non local Contribution for L=           0  read in
    real space projection operators read in
  non local Contribution for L=           0  read in
    real space projection operators read in
    PAW grid and wavefunctions read in
 
   number of l-projection  operators is LMAX  =           4
   number of lm-projection operators is LMMAX =           8
 
 POTCAR:    PAW_PBE Mg_pv 13Apr2007               
   VRHFIN =Mg: p6s2                                                             
   LEXCH  = PE                                                                  
   EATOM  =  1056.7344 eV,   77.6678 Ry                                         
                                                                                
   TITEL  = PAW_PBE Mg_pv 13Apr2007                                             
   LULTRA =        F    use ultrasoft PP ?                                      
   IUNSCR =        1    unscreen: 0-lin 1-nonlin 2-no                           
   RPACOR =    1.500    partial core radius                                     
   POMASS =   24.305; ZVAL   =    8.000    mass and valenz                      
   RCORE  =    2.000    outmost cutoff radius                                   
   RWIGS  =    2.000; RWIGS  =    1.058    wigner-seitz radius (au A)           
   ENMAX  =  403.929; ENMIN  =  302.947 eV                                      
   RCLOC  =    1.506    cutoff for local pot                                    
   LCOR   =        T    correct aug charges                                     
   LPAW   =        T    paw PP                                                  
   EAUG   =  758.780                                                            
   DEXC   =    0.000                                                            
   RMAX   =    2.045    core radius for proj-oper                               
   RAUG   =    1.300    factor for augmentation sphere                          
   RDEP   =    2.025    radius for radial grids                                 
   RDEPT  =    1.557    core radius for aug-charge                              
                                                                                
   Atomic configuration                                                         
    5 entries                                                                   
     n  l   j            E        occ.                                          
     1  0  0.50     -1259.6230   2.0000                                         
     2  0  0.50       -79.8442   2.0000                                         
     2  1  1.50       -46.6121   6.0000                                         
     3  0  0.50        -4.7055   2.0000                                         
     3  2  1.50        -1.3606   0.0000                                         
   Description                                                                  
     l       E           TYP  RCUT    TYP  RCUT                                 
     1    -46.6121073     23  1.600                                             
     1      2.7211652     23  1.600                                             
     0     -4.7054661     23  2.000                                             
     0     61.2262170     23  2.000                                             
     2     -1.3605826     23  2.000                                             
  local pseudopotential read in
  partial core-charges read in
  partial kinetic energy density read in
  atomic valenz-charges read in
  non local Contribution for L=           1  read in
    real space projection operators read in
  non local Contribution for L=           1  read in
    real space projection operators read in
  non local Contribution for L=           0  read in
    real space projection operators read in
  non local Contribution for L=           0  read in
    real space projection operators read in
  non local Contribution for L=           2  read in
    real space projection operators read in
    PAW grid and wavefunctions read in
 
   number of l-projection  operators is LMAX  =           5
   number of lm-projection operators is LMMAX =          13
 
 POTCAR:    PAW_PBE Mn_pv 02Aug2007               
   VRHFIN =Mn: 3p4s3d                                                           
   LEXCH  = PE                                                                  
   EATOM  =  2025.2664 eV,  148.8529 Ry                                         
                                                                                
   TITEL  = PAW_PBE Mn_pv 02Aug2007                                             
   LULTRA =        F    use ultrasoft PP ?                                      
   IUNSCR =        1    unscreen: 0-lin 1-nonlin 2-no                           
   RPACOR =    2.080    partial core radius                                     
   POMASS =   54.938; ZVAL   =   13.000    mass and valenz                      
   RCORE  =    2.300    outmost cutoff radius                                   
   RWIGS  =    2.500; RWIGS  =    1.323    wigner-seitz radius (au A)           
   ENMAX  =  269.864; ENMIN  =  202.398 eV                                      
   ICORE  =        3    local potential                                         
   LCOR   =        T    correct aug charges                                     
   LPAW   =        T    paw PP                                                  
   EAUG   =  569.085                                                            
   DEXC   =    0.000                                                            
   RMAX   =    2.343    core radius for proj-oper                               
   RAUG   =    1.300    factor for augmentation sphere                          
   RDEP   =    2.338    radius for radial grids                                 
   RDEPT  =    1.798    core radius for aug-charge                              
                                                                                
   Atomic configuration                                                         
    8 entries                                                                   
     n  l   j            E        occ.                                          
     1  0  0.50     -6424.8287   2.0000                                         
     2  0  0.50      -739.1154   2.0000                                         
     2  1  1.50      -625.3949   6.0000                                         
     3  0  0.50       -81.6100   2.0000                                         
     3  1  1.50       -50.4667   6.0000                                         
     3  2  2.50        -3.3745   6.0000                                         
     4  0  0.50        -4.1331   1.0000                                         
     4  3  2.50        -1.3606   0.0000                                         
   Description                                                                  
     l       E           TYP  RCUT    TYP  RCUT                                 
     1    -50.4666628     23  2.000                                             
     1     -1.3605826     23  2.000                                             
     2     -3.3744729     23  2.300                                             
     2     -4.7350555     23  2.300                                             
     0     -4.1331431     23  2.300                                             
     0      7.6656591     23  2.300                                             
     3      9.5240782     23  2.300                                             
  local pseudopotential read in
  partial core-charges read in
  partial kinetic energy density read in
  atomic valenz-charges read in
  non local Contribution for L=           1  read in
    real space projection operators read in
  non local Contribution for L=           1  read in
    real space projection operators read in
  non local Contribution for L=           2  read in
    real space projection operators read in
  non local Contribution for L=           2  read in
    real space projection operators read in
  non local Contribution for L=           0  read in
    real space projection operators read in
  non local Contribution for L=           0  read in
    real space projection operators read in
    PAW grid and wavefunctions read in
 
   number of l-projection  operators is LMAX  =           6
   number of lm-projection operators is LMMAX =          18
 
 POTCAR:    PAW_PBE O 08Apr2002                   
   VRHFIN =O: s2p4                                                              
   LEXCH  = PE                                                                  
   EATOM  =   432.3788 eV,   31.7789 Ry                                         
                                                                                
   TITEL  = PAW_PBE O 08Apr2002                                                 
   LULTRA =        F    use ultrasoft PP ?                                      
   IUNSCR =        1    unscreen: 0-lin 1-nonlin 2-no                           
   RPACOR =    1.200    partial core radius                                     
   POMASS =   16.000; ZVAL   =    6.000    mass and valenz                      
   RCORE  =    1.520    outmost cutoff radius                                   
   RWIGS  =    1.550; RWIGS  =    0.820    wigner-seitz radius (au A)           
   ENMAX  =  400.000; ENMIN  =  300.000 eV                                      
   ICORE  =        2    local potential                                         
   LCOR   =        T    correct aug charges                                     
   LPAW   =        T    paw PP                                                  
   EAUG   =  605.392                                                            
   DEXC   =    0.000                                                            
   RMAX   =    1.553    core radius for proj-oper                               
   RAUG   =    1.300    factor for augmentation sphere                          
   RDEP   =    1.550    radius for radial grids                                 
   RDEPT  =    1.329    core radius for aug-charge                              
                                                                                
   Atomic configuration                                                         
    4 entries                                                                   
     n  l   j            E        occ.                                          
     1  0  0.50      -514.6923   2.0000                                         
     2  0  0.50       -23.9615   2.0000                                         
     2  1  0.50        -9.0305   4.0000                                         
     3  2  1.50        -9.5241   0.0000                                         
   Description                                                                  
     l       E           TYP  RCUT    TYP  RCUT                                 
     0    -23.9615318     23  1.200                                             
     0     -9.5240782     23  1.200                                             
     1     -9.0304911     23  1.520                                             
     1      8.1634956     23  1.520                                             
     2     -9.5240782      7  1.500                                             
  local pseudopotential read in
  partial core-charges read in
  partial kinetic energy density read in
  kinetic energy density of atom read in
  atomic valenz-charges read in
  non local Contribution for L=           0  read in
    real space projection operators read in
  non local Contribution for L=           0  read in
    real space projection operators read in
  non local Contribution for L=           1  read in
    real space projection operators read in
  non local Contribution for L=           1  read in
    real space projection operators read in
    PAW grid and wavefunctions read in
 
   number of l-projection  operators is LMAX  =           4
   number of lm-projection operators is LMMAX =           8
 
 Optimization of the real space projectors (new method)

 maximal supplied QI-value         = 17.01
 optimisation between [QCUT,QGAM] = [ 10.20, 20.41] = [ 29.16,116.64] Ry 
 Optimized for a Real-space Cutoff    1.30 Angstroem

   l    n(q)    QCUT    max X(q) W(low)/X(q) W(high)/X(q)  e(spline) 
   1      7    10.205     4.940    0.23E-03    0.84E-03    0.11E-06
   1      7    10.205     6.253    0.40E-03    0.13E-02    0.18E-06
   0      8    10.205    37.438    0.23E-03    0.37E-03    0.42E-07
   0      8    10.205     9.606    0.16E-03    0.26E-03    0.31E-07
 Optimization of the real space projectors (new method)

 maximal supplied QI-value         = 18.90
 optimisation between [QCUT,QGAM] = [ 10.20, 20.41] = [ 29.16,116.64] Ry 
 Optimized for a Real-space Cutoff    1.26 Angstroem

   l    n(q)    QCUT    max X(q) W(low)/X(q) W(high)/X(q)  e(spline) 
   1      7    10.205     2.974    0.63E-04    0.14E-03    0.13E-06
   1      7    10.205     4.279    0.11E-03    0.45E-03    0.24E-06
   0      8    10.205    16.381    0.44E-03    0.15E-03    0.55E-07
   0      8    10.205     5.611    0.31E-03    0.11E-03    0.40E-07
   2      7    10.205     4.652    0.50E-03    0.47E-03    0.57E-07
 Optimization of the real space projectors (new method)

 maximal supplied QI-value         = 16.25
 optimisation between [QCUT,QGAM] = [ 10.24, 20.48] = [ 29.35,117.42] Ry 
 Optimized for a Real-space Cutoff    1.34 Angstroem

   l    n(q)    QCUT    max X(q) W(low)/X(q) W(high)/X(q)  e(spline) 
   1      8    10.239     3.658    0.23E-03    0.30E-03    0.98E-07
   1      8    10.239     5.612    0.32E-03    0.65E-03    0.21E-06
   2      7    10.239    55.373    0.42E-03    0.45E-03    0.65E-07
   2      7    10.239    50.863    0.43E-03    0.48E-03    0.67E-07
   0      8    10.239    79.536    0.11E-03    0.21E-03    0.56E-07
   0      8    10.239    38.668    0.96E-04    0.19E-03    0.52E-07
 Optimization of the real space projectors (new method)

 maximal supplied QI-value         = 24.76
 optimisation between [QCUT,QGAM] = [ 10.15, 20.30] = [ 28.85,115.39] Ry 
 Optimized for a Real-space Cutoff    1.38 Angstroem

   l    n(q)    QCUT    max X(q) W(low)/X(q) W(high)/X(q)  e(spline) 
   0      8    10.150    20.381    0.22E-03    0.32E-03    0.29E-06
   0      8    10.150    15.268    0.23E-03    0.35E-03    0.30E-06
   1      8    10.150     5.964    0.46E-03    0.53E-03    0.21E-06
   1      8    10.150     5.382    0.38E-03    0.45E-03    0.19E-06
  PAW_PBE Na_pv 19Sep2006               :
 energy of atom  1       EATOM= -766.0439
 kinetic energy error for atom=    0.0103 (will be added to EATOM!!)
  PAW_PBE Mg_pv 13Apr2007               :
 energy of atom  2       EATOM=-1056.7344
 kinetic energy error for atom=    0.0820 (will be added to EATOM!!)
  PAW_PBE Mn_pv 02Aug2007               :
 energy of atom  3       EATOM=-2025.2664
 kinetic energy error for atom=    0.0284 (will be added to EATOM!!)
  PAW_PBE O 08Apr2002                   :
 energy of atom  4       EATOM= -432.3788
 kinetic energy error for atom=    0.1156 (will be added to EATOM!!)
 
 
 POSCAR: Na Mg Mn  O                             
  positions in cartesian coordinates
  No initial velocities read in

 METAGGA = SCAN     LMAXTAU =  6    LMIXTAU =  F

 exchange correlation table for  LEXCH =        8
   RHO(1)=    0.500       N(1)  =     2000
   RHO(2)=  100.500       N(2)  =     4000

 VTST: version 3.2, (02/03/18)

 CHAIN: initializing optimizer
 
 OPT: Using VASP Dynamics algorithm
 CHAIN: Read ICHAIN            0
 
 POSCAR: Na Mg Mn  O                             
  positions in cartesian coordinates
  No initial velocities read in
 


--------------------------------------------------------------------------------------------------------


 ion  position               nearest neighbor table
   1  0.490  0.883  0.249-
   2  0.327  0.342  0.749-  45 2.08  58 2.23  32 2.89
   3  0.471  0.074  0.760-  49 2.23  47 2.23
   4  0.984  0.058  0.756-  61 2.34  72 2.36
   5  0.661  0.589  0.253-  74 2.18  65 2.33  35 2.84  33 2.90
   6  0.580  0.229  0.253-  43 2.27  42 2.28  51 2.29  52 2.31  26 2.92
   7  0.777  0.669  0.747-  68 2.25  71 2.28  82 2.29  85 2.34
   8  0.140  0.858  0.747-  70 2.28  73 2.33
   9  0.813  0.017  0.257-  88 2.25  63 2.28
  10  0.959  0.366  0.250-  53 2.30  62 2.36  75 2.36
  11  0.310  0.508  0.253-  64 2.14  87 2.26  55 2.37
  12  0.563  0.800  0.746-  82 2.22  85 2.29  84 2.30  38 2.95
  13  0.824  0.267  0.746-  46 2.30  57 2.35  60 2.36  49 2.38
  14  0.172  0.561  0.750-  83 2.26  80 2.26  37 2.82  39 2.92
  15  0.100  0.733  0.254-  76 2.25  67 2.27  75 2.36
  16  0.144  0.062  0.255-  50 2.28  54 2.31  63 2.37  27 2.85  25 2.91
  17  0.828  0.381  0.999-  60 1.95  66 1.97  71 2.06  53 2.08  43 2.08  49 2.11  30 2.78  37 2.79
                            34 2.86
  18  0.473  0.224  0.493-  51 1.96  50 2.05  52 2.08  45 2.09  46 2.14  44 2.15  35 2.76  32 2.78

  19  0.315  0.369  0.013-  41 2.00  78 2.03  61 2.04  55 2.10  48 2.11  83 2.23  25 2.78
  20  0.985  0.224  0.505-  57 1.95  63 2.07  58 2.09  56 2.09  64 2.12  62 2.16  32 2.82
  21  0.315  0.887  0.992-  84 1.93  73 2.02  67 2.06  47 2.08  42 2.15  77 2.24  26 2.85
  22  0.974  0.721  0.495-  76 1.96  68 1.98  69 2.04  74 2.04  70 2.10  75 2.11  27 2.83
  23  0.812  0.872  0.996-  72 1.98  65 2.01  79 2.02  59 2.06  85 2.08  54 2.19  33 2.83
  24  0.478  0.721  0.500-  88 2.01  86 2.02  80 2.02  82 2.06  81 2.11  87 2.12  40 2.81
  25  0.144  0.050  0.996-  61 1.82  72 1.90  54 1.90  47 1.91  67 1.98  41 2.08  19 2.78  30 2.85
                            16 2.91  34 2.95  26 3.00
  26  0.490  0.215  0.004-  48 1.87  43 1.88  42 1.88  41 1.90  49 1.95  47 1.98  21 2.85  33 2.88
                            29 2.89   6 2.92  25 3.00
  27  0.140  0.047  0.509-  44 1.83  69 1.90  50 1.92  58 1.93  76 1.95  63 1.98  36 2.79  22 2.83
                            16 2.85  32 2.90  40 2.93
  28  0.817  0.391  0.501-  57 1.89  62 1.90  75 1.90  68 1.91  46 1.91  52 1.98  35 2.81  39 2.86
                            31 2.89
  29  0.654  0.046  0.004-  79 1.83  59 1.90  53 1.93  42 1.95  49 1.99  84 2.03  30 2.83  26 2.89
                            38 2.92
  30  0.980  0.214  0.004-  53 1.87  61 1.90  55 1.92  54 1.93  60 1.94  59 2.05  17 2.78  29 2.83
                            25 2.85  37 2.86
  31  0.646  0.058  0.500-  62 1.89  81 1.91  56 1.93  88 1.95  46 1.95  51 1.96  40 2.87  28 2.89
                            36 2.94
  32  0.309  0.381  0.495-  50 1.84  87 1.89  45 1.95  58 1.96  64 1.99  80 2.01  18 2.78  20 2.82
                             2 2.89  27 2.90  35 2.91  39 2.95
  33  0.646  0.546  0.996-  65 1.87  48 1.90  85 1.92  43 1.95  78 1.95  71 2.00  23 2.83  26 2.88
                            34 2.89  38 2.90   5 2.90
  34  0.979  0.710  0.999-  71 1.86  65 1.88  67 1.88  66 1.91  73 1.93  72 2.07  17 2.86  33 2.89
                            37 2.92  25 2.95
  35  0.644  0.542  0.503-  52 1.80  68 1.88  45 1.98  82 2.02  87 2.04  74 2.07  18 2.76  28 2.81
                             5 2.84  32 2.91  40 2.96
  36  0.308  0.895  0.499-  44 1.84  76 1.87  81 1.96  51 1.97  70 2.00  86 2.09  27 2.79  39 2.93
                            31 2.94
  37  0.149  0.543  0.001-  83 1.84  55 1.86  60 1.89  77 1.90  66 1.94  73 2.00  17 2.79  14 2.82
                            38 2.84  30 2.86  34 2.92
  38  0.477  0.710  0.997-  77 1.85  83 1.91  78 1.91  84 1.97  79 1.97  85 1.97  37 2.84  33 2.90
                            29 2.92  12 2.95
  39  0.146  0.558  0.491-  86 1.86  64 1.88  57 1.91  70 1.94  80 1.97  75 1.98  28 2.86  14 2.92
                            36 2.93  32 2.95
  40  0.802  0.882  0.500-  88 1.83  74 1.91  82 1.94  63 1.94  69 1.95  56 2.00  24 2.81  31 2.87
                            27 2.93  35 2.96
  41  0.329  0.203  0.101-  26 1.90  19 2.00  25 2.08
  42  0.498  0.063  0.096-  26 1.88  29 1.95  21 2.15   6 2.28
  43  0.646  0.381  0.089-  26 1.88  33 1.95  17 2.08   6 2.27
  44  0.292  0.038  0.592-  27 1.83  36 1.84  18 2.15
  45  0.469  0.392  0.601-  32 1.95  35 1.98   2 2.08  18 2.09
  46  0.657  0.228  0.592-  28 1.91  31 1.95  18 2.14  13 2.30
  47  0.314  0.069  0.904-  25 1.91  26 1.98  21 2.08   3 2.23
  48  0.493  0.372  0.912-  26 1.87  33 1.90  19 2.11
  49  0.642  0.204  0.903-  26 1.95  29 1.99  17 2.11   3 2.23  13 2.38
  50  0.286  0.214  0.410-  32 1.84  27 1.92  18 2.05  16 2.28
  51  0.480  0.057  0.407-  31 1.96  18 1.96  36 1.97   6 2.29
  52  0.658  0.406  0.406-  35 1.80  28 1.98  18 2.08   6 2.31
  53  0.820  0.202  0.098-  30 1.87  29 1.93  17 2.08  10 2.30
  54  0.997  0.061  0.096-  25 1.90  30 1.93  23 2.19  16 2.31
  55  0.134  0.384  0.095-  37 1.86  30 1.92  19 2.10  11 2.37
  56  0.799  0.048  0.598-  31 1.93  40 2.00  20 2.09
  57  0.985  0.398  0.584-  28 1.89  39 1.91  20 1.95  13 2.35
  58  0.161  0.220  0.601-  27 1.93  32 1.96  20 2.09   2 2.23
  59  0.807  0.047  0.903-  29 1.90  30 2.05  23 2.06
  60  0.994  0.382  0.909-  37 1.89  30 1.94  17 1.95  13 2.36
  61  0.137  0.204  0.916-  25 1.82  30 1.90  19 2.04   4 2.34
  62  0.797  0.222  0.409-  31 1.89  28 1.90  20 2.16  10 2.36
  63  0.973  0.041  0.410-  40 1.94  27 1.98  20 2.07   9 2.28  16 2.37
  64  0.155  0.405  0.399-  39 1.88  32 1.99  20 2.12  11 2.14
  65  0.812  0.697  0.084-  33 1.87  34 1.88  23 2.01   5 2.33
  66  0.989  0.555  0.090-  34 1.91  37 1.94  17 1.97
  67  0.133  0.875  0.087-  34 1.88  25 1.98  21 2.06  15 2.27
  68  0.810  0.551  0.588-  35 1.88  28 1.91  22 1.98   7 2.25
  69  0.969  0.890  0.594-  27 1.90  40 1.95  22 2.04
  70  0.150  0.716  0.593-  39 1.94  36 2.00  22 2.10   8 2.28
  71  0.824  0.557  0.907-  34 1.86  33 2.00  17 2.06   7 2.28
  72  0.988  0.891  0.902-  25 1.90  23 1.98  34 2.07   4 2.36
  73  0.139  0.708  0.906-  34 1.93  37 2.00  21 2.02   8 2.33
  74  0.802  0.726  0.402-  40 1.91  22 2.04  35 2.07   5 2.18
  75  0.970  0.539  0.398-  28 1.90  39 1.98  22 2.11  15 2.36  10 2.36
  76  0.147  0.890  0.411-  36 1.87  27 1.95  22 1.96  15 2.25
  77  0.317  0.694  0.092-  38 1.85  37 1.90  21 2.24
  78  0.489  0.558  0.091-  38 1.91  33 1.95  19 2.03
  79  0.643  0.883  0.086-  29 1.83  38 1.97  23 2.02
  80  0.303  0.548  0.590-  39 1.97  32 2.01  24 2.02  14 2.26
  81  0.479  0.905  0.591-  31 1.91  36 1.96  24 2.11
  82  0.650  0.716  0.598-  40 1.94  35 2.02  24 2.06  12 2.22   7 2.29
  83  0.306  0.555  0.910-  37 1.84  38 1.91  19 2.23  14 2.26
  84  0.479  0.880  0.907-  21 1.93  38 1.97  29 2.03  12 2.30
  85  0.632  0.696  0.899-  33 1.92  38 1.97  23 2.08  12 2.29   7 2.34
  86  0.305  0.715  0.404-  39 1.86  24 2.02  36 2.09
  87  0.471  0.535  0.404-  32 1.89  35 2.04  24 2.12  11 2.26
  88  0.655  0.895  0.412-  40 1.83  31 1.95  24 2.01   9 2.25
 
  LATTYP: Found a hexagonal cell.
 ALAT       =    10.0190000534
 C/A-ratio  =     1.1196726572
  
  Lattice vectors:
  
 A1 = (  10.0190000534,   0.0000000000,   0.0000000000)
 A2 = (  -5.0095000267,   8.6767085668,   0.0000000000)
 A3 = (   0.0000000000,   0.0000000000,  11.2180004120)


Analysis of symmetry for initial positions (statically):
=====================================================================
 Subroutine PRICEL returns:
 Original cell was already a primitive cell.
 

 Routine SETGRP: Setting up the symmetry group for a 
 hexagonal supercell.


 Subroutine GETGRP returns: Found  1 space group operations
 (whereof  1 operations were pure point group operations)
 out of a pool of 24 trial point group operations.


The static configuration has the point symmetry C_1 .


Analysis of symmetry for dynamics (positions and initial velocities):
=====================================================================
 Subroutine PRICEL returns:
 Original cell was already a primitive cell.
 

 Routine SETGRP: Setting up the symmetry group for a 
 hexagonal supercell.


 Subroutine GETGRP returns: Found  1 space group operations
 (whereof  1 operations were pure point group operations)
 out of a pool of 24 trial point group operations.


The dynamic configuration has the point symmetry C_1 .


Analysis of structural, dynamic, and magnetic symmetry:
=====================================================================
 Subroutine PRICEL returns:
 Original cell was already a primitive cell.
 

 Routine SETGRP: Setting up the symmetry group for a 
 hexagonal supercell.


 Subroutine GETGRP returns: Found  1 space group operations
 (whereof  1 operations were pure point group operations)
 out of a pool of 24 trial point group operations.


The magnetic configuration has the point symmetry C_1 .


 Subroutine INISYM returns: Found  1 space group operations
 (whereof  1 operations are pure point group operations),
 and found     1 'primitive' translations

 
 

Automatic generation of k-mesh.
 generate k-points for:    2    2    2
Space group operators:
 irot       det(A)        alpha          n_x          n_y          n_z        tau_x        tau_y        tau_z
    1     1.000000     0.000000     1.000000     0.000000     0.000000     0.000000     0.000000     0.000000
 
 Subroutine IBZKPT returns following result:
 ===========================================
 
 Found      8 irreducible k-points:
 
 Following reciprocal coordinates:
            Coordinates               Weight
  0.000000  0.000000  0.000000      1.000000
  0.500000 -0.000000 -0.000000      1.000000
  0.000000  0.500000  0.000000      1.000000
  0.500000  0.500000 -0.000000      1.000000
  0.000000  0.000000  0.500000      1.000000
  0.500000 -0.000000  0.500000      1.000000
  0.000000  0.500000  0.500000      1.000000
  0.500000  0.500000  0.500000      1.000000
 
 Following cartesian coordinates:
            Coordinates               Weight
  0.000000  0.000000  0.000000      1.000000
  0.049905  0.028813 -0.000000      1.000000
  0.000000  0.057626  0.000000      1.000000
  0.049905  0.086438 -0.000000      1.000000
  0.000000  0.000000  0.044571      1.000000
  0.049905  0.028813  0.044571      1.000000
  0.000000  0.057626  0.044571      1.000000
  0.049905  0.086438  0.044571      1.000000
 


--------------------------------------------------------------------------------------------------------




 Dimension of arrays:
   k-points           NKPTS =      8   k-points in BZ     NKDIM =      8   number of bands    NBANDS=    448
   number of dos      NEDOS =    301   number of ions     NIONS =     88
   non local maximal  LDIM  =      6   non local SUM 2l+1 LMDIM =     18
   total plane-waves  NPLWV = 140000
   max r-space proj   IRMAX =   1632   max aug-charges    IRDMAX=   4555
   dimension x,y,z NGX =    50 NGY =   50 NGZ =   56
   dimension x,y,z NGXF=   100 NGYF=  100 NGZF=  112
   support grid    NGXF=   100 NGYF=  100 NGZF=  112
   ions per type =              16   8  16  48
   NGX,Y,Z   is equivalent  to a cutoff of   8.30,  8.30,  8.30 a.u.
   NGXF,Y,Z  is equivalent  to a cutoff of  16.59, 16.59, 16.60 a.u.

 SYSTEM =  unknown system                          
 POSCAR =  Na Mg Mn  O                             

 Startparameter for this run:
   NWRITE =      2    write-flag & timer
   PREC   = normal    normal or accurate (medium, high low for compatibility)
   ISTART =      0    job   : 0-new  1-cont  2-samecut
   ICHARG =      1    charge: 1-file 2-atom 10-const
   ISPIN  =      2    spin polarized calculation?
   LNONCOLLINEAR =      F non collinear calculations
   LSORBIT =      F    spin-orbit coupling
   INIWAV =      1    electr: 0-lowe 1-rand  2-diag
   LASPH  =      T    aspherical Exc in radial PAW
   METAGGA=      F    non-selfconsistent MetaGGA calc.

 Electronic Relaxation 1
   ENCUT  =  400.0 eV  29.40 Ry    5.42 a.u.  16.34 16.34 18.29*2*pi/ulx,y,z
   ENINI  =  400.0     initial cutoff
   ENAUG  =  758.8 eV  augmentation charge cutoff
   NELM   =    200;   NELMIN=  6; NELMDL=-12     # of ELM steps 
   EDIFF  = 0.1E-04   stopping-criterion for ELM
   LREAL  =      T    real-space projection
   NLSPLINE    = F    spline interpolate recip. space projectors
   LCOMPAT=      F    compatible to vasp.4.4
   GGA_COMPAT  = T    GGA compatible to vasp.4.4-vasp.4.6
   LMAXPAW     = -100 max onsite density
   LMAXMIX     =    4 max onsite mixed and CHGCAR
   VOSKOWN=      0    Vosko Wilk Nusair interpolation
   ROPT   =   -0.00050  -0.00050  -0.00050  -0.00050
 Ionic relaxation
   EDIFFG = 0.1E-03   stopping-criterion for IOM
   NSW    =      1    number of steps for IOM
   NBLOCK =      1;   KBLOCK =      1    inner block; outer block 
   IBRION =     -1    ionic relax: 0-MD 1-quasi-New 2-CG
   NFREE  =      0    steps in history (QN), initial steepest desc. (CG)
   ISIF   =      2    stress and relaxation
   IWAVPR =     10    prediction:  0-non 1-charg 2-wave 3-comb
   ISYM   =      2    0-nonsym 1-usesym 2-fastsym
   LCORR  =      T    Harris-Foulkes like correction to forces

   POTIM  = 0.5000    time-step for ionic-motion
   TEIN   =    0.0    initial temperature
   TEBEG  =    0.0;   TEEND  =   0.0 temperature during run
   SMASS  =  -3.00    Nose mass-parameter (am)
   estimated Nose-frequenzy (Omega)   =  0.10E-29 period in steps =****** mass=  -0.229E-26a.u.
   SCALEE = 1.0000    scale energy and forces
   NPACO  =    256;   APACO  = 16.0  distance and # of slots for P.C.
   PSTRESS=    0.0 pullay stress

  Mass of Ions in am
   POMASS =  22.99 24.30 54.94 16.00
  Ionic Valenz
   ZVAL   =   7.00  8.00 13.00  6.00
  Atomic Wigner-Seitz radii
   RWIGS  =  -1.00 -1.00 -1.00 -1.00
  virtual crystal weights 
   VCA    =   1.00  1.00  1.00  1.00
   NELECT =     672.0000    total number of electrons
   NUPDOWN=      48.0000    fix difference up-down

 DOS related values:
   EMIN   =  10.00;   EMAX   =-10.00  energy-range for DOS
   EFERMI =   0.00
   ISMEAR =     0;   SIGMA  =   0.05  broadening in eV -4-tet -1-fermi 0-gaus

 Electronic relaxation 2 (details)
   IALGO  =     48    algorithm
   LDIAG  =      T    sub-space diagonalisation (order eigenvalues)
   LSUBROT=      F    optimize rotation matrix (better conditioning)
   TURBO    =      0    0=normal 1=particle mesh
   IRESTART =      0    0=no restart 2=restart with 2 vectors
   NREBOOT  =      0    no. of reboots
   NMIN     =      0    reboot dimension
   EREF     =   0.00    reference energy to select bands
   IMIX   =      4    mixing-type and parameters
     AMIX     =   0.40;   BMIX     =  1.00
     AMIX_MAG =   1.60;   BMIX_MAG =  1.00
     AMIN     =   0.10
     WC   =   100.;   INIMIX=   1;  MIXPRE=   1;  MAXMIX= -45

 Intra band minimization:
   WEIMIN = 0.0000     energy-eigenvalue tresh-hold
   EBREAK =  0.56E-08  absolut break condition
   DEPER  =   0.30     relativ break condition  

   TIME   =   0.40     timestep for ELM

  volume/ion in A,a.u.               =      11.08        74.78
  Fermi-wavevector in a.u.,A,eV,Ry     =   1.445993  2.732531 28.448379  2.090897
  Thomas-Fermi vector in A             =   2.564112
 
 Write flags
   LWAVE        =      F    write WAVECAR
   LDOWNSAMPLE  =      F    k-point downsampling of WAVECAR
   LCHARG       =      F    write CHGCAR
   LVTOT        =      F    write LOCPOT, total local potential
   LVHAR        =      F    write LOCPOT, Hartree potential only
   LELF         =      F    write electronic localiz. function (ELF)
   LORBIT       =     11    0 simple, 1 ext, 2 COOP (PROOUT), +10 PAW based schemes


 Dipole corrections
   LMONO  =      F    monopole corrections only (constant potential shift)
   LDIPOL =      F    correct potential (dipole corrections)
   IDIPOL =      0    1-x, 2-y, 3-z, 4-all directions 
   EPSILON=  1.0000000 bulk dielectric constant

 Exchange correlation treatment:
   GGA     =    --    GGA type
   LEXCH   =     8    internal setting for exchange type
   VOSKOWN=      0    Vosko Wilk Nusair interpolation
   LHFCALC =     F    Hartree Fock is set to
   LHFONE  =     F    Hartree Fock one center treatment
   AEXX    =    0.0000 exact exchange contribution

 Linear response parameters
   LEPSILON=     F    determine dielectric tensor
   LRPA    =     F    only Hartree local field effects (RPA)
   LNABLA  =     F    use nabla operator in PAW spheres
   LVEL    =     F    velocity operator in full k-point grid
   LINTERFAST=   F  fast interpolation
   KINTER  =     0    interpolate to denser k-point grid
   CSHIFT  =0.1000    complex shift for real part using Kramers Kronig
   OMEGAMAX=  -1.0    maximum frequency
   DEG_THRESHOLD= 0.2000000E-02 threshold for treating states as degnerate
   RTIME   =   -0.100 relaxation time in fs
  (WPLASMAI=    0.000 imaginary part of plasma frequency in eV, 0.658/RTIME)
   DFIELD  = 0.0000000 0.0000000 0.0000000 field for delta impulse in time
 
 Orbital magnetization related:
   ORBITALMAG=     F  switch on orbital magnetization
   LCHIMAG   =     F  perturbation theory with respect to B field
   DQ        =  0.001000  dq finite difference perturbation B field
   LLRAUG    =     F  two centre corrections for induced B field



--------------------------------------------------------------------------------------------------------


 Static calculation
 charge density and potential will be updated during run
 spin polarized calculation
 RMM-DIIS sequential band-by-band
 perform sub-space diagonalisation
    before iterative eigenvector-optimisation
 modified Broyden-mixing scheme, WC =      100.0
 initial mixing is a Kerker type mixing with AMIX =  0.4000 and BMIX =      1.0000
 Hartree-type preconditioning will be used
 using additional bands          112
 real space projection scheme for non local part
 use partial core corrections
 calculate Harris-corrections to forces 
   (improved forces if not selfconsistent)
 use gradient corrections 
 use of overlap-Matrix (Vanderbilt PP)
 Gauss-broadening in eV      SIGMA  =   0.05


--------------------------------------------------------------------------------------------------------


  energy-cutoff  :      400.00
  volume of cell :      975.20
      direct lattice vectors                 reciprocal lattice vectors
    10.019000053  0.000000000  0.000000000     0.099810360  0.057625538 -0.000000000
    -5.009500027  8.676708567  0.000000000     0.000000000  0.115251076  0.000000000
     0.000000000  0.000000000 11.218000412     0.000000000  0.000000000  0.089142446

  length of vectors
    10.019000053 10.019000053 11.218000412     0.115251076  0.115251076  0.089142446


 
 k-points in units of 2pi/SCALE and weight: read from INCAR                         
   0.00000000  0.00000000  0.00000000       0.125
   0.04990518  0.02881277 -0.00000000       0.125
   0.00000000  0.05762554  0.00000000       0.125
   0.04990518  0.08643831 -0.00000000       0.125
   0.00000000  0.00000000  0.04457122       0.125
   0.04990518  0.02881277  0.04457122       0.125
   0.00000000  0.05762554  0.04457122       0.125
   0.04990518  0.08643831  0.04457122       0.125
 
 k-points in reciprocal lattice and weights: read from INCAR                         
   0.00000000  0.00000000  0.00000000       0.125
   0.50000000 -0.00000000 -0.00000000       0.125
   0.00000000  0.50000000  0.00000000       0.125
   0.50000000  0.50000000 -0.00000000       0.125
   0.00000000  0.00000000  0.50000000       0.125
   0.50000000 -0.00000000  0.50000000       0.125
   0.00000000  0.50000000  0.50000000       0.125
   0.50000000  0.50000000  0.50000000       0.125
 
 position of ions in fractional coordinates (direct lattice) 
   0.49045552  0.88251799  0.24876180
   0.32671323  0.34211788  0.74920304
   0.47067723  0.07426192  0.76043944
   0.98400738  0.05798183  0.75581384
   0.66089403  0.58891851  0.25283115
   0.58043093  0.22850535  0.25327598
   0.77692839  0.66889222  0.74686662
   0.14029846  0.85845900  0.74734085
   0.81261275  0.01668177  0.25705651
   0.95923729  0.36612402  0.24999910
   0.31030322  0.50823996  0.25337314
   0.56268459  0.79975784  0.74594043
   0.82441778  0.26746021  0.74600104
   0.17171328  0.56053398  0.75007574
   0.10024828  0.73274527  0.25397574
   0.14401928  0.06188225  0.25546086
   0.82753681  0.38118602  0.99893668
   0.47303308  0.22442727  0.49257352
   0.31461896  0.36901435  0.01287213
   0.98470704  0.22420599  0.50504099
   0.31521077  0.88662077  0.99177221
   0.97421956  0.72147635  0.49507843
   0.81156838  0.87165657  0.99555761
   0.47838591  0.72094389  0.49965054
   0.14433241  0.04987853  0.99587607
   0.49000886  0.21478767  0.00421296
   0.13963289  0.04737638  0.50891066
   0.81678080  0.39077491  0.50062844
   0.65408193  0.04635530  0.00360405
   0.98015549  0.21401894  0.00401137
   0.64641542  0.05762773  0.50034229
   0.30920233  0.38115144  0.49526117
   0.64633651  0.54594781  0.99622706
   0.97922932  0.70999273  0.99911190
   0.64413436  0.54162935  0.50334995
   0.30822964  0.89510786  0.49889640
   0.14888395  0.54327744  0.00095091
   0.47650204  0.71029123  0.99733154
   0.14608313  0.55751210  0.49089676
   0.80173608  0.88189317  0.50008645
   0.32919360  0.20325795  0.10137101
   0.49836392  0.06252682  0.09608843
   0.64587233  0.38131049  0.08899099
   0.29206801  0.03759046  0.59164198
   0.46890138  0.39219941  0.60121945
   0.65741220  0.22812913  0.59176767
   0.31415598  0.06928411  0.90427880
   0.49318915  0.37182994  0.91183808
   0.64248070  0.20407508  0.90284361
   0.28553325  0.21384722  0.41041628
   0.48036433  0.05718660  0.40747725
   0.65788939  0.40611713  0.40601799
   0.82001481  0.20232326  0.09765912
   0.99714910  0.06063417  0.09598769
   0.13447993  0.38369388  0.09494562
   0.79943981  0.04775675  0.59778033
   0.98520605  0.39830311  0.58350595
   0.16125672  0.22001200  0.60118736
   0.80701563  0.04680899  0.90315561
   0.99418367  0.38178187  0.90878941
   0.13696692  0.20402668  0.91550184
   0.79735181  0.22249681  0.40929843
   0.97294124  0.04112751  0.40977713
   0.15486749  0.40487242  0.39915491
   0.81167221  0.69711227  0.08376074
   0.98944980  0.55460777  0.09022731
   0.13347309  0.87505878  0.08706578
   0.81037306  0.55088286  0.58816988
   0.96917048  0.88975329  0.59387411
   0.15038387  0.71561352  0.59305846
   0.82410832  0.55693008  0.90650737
   0.98836573  0.89075482  0.90241573
   0.13941986  0.70766696  0.90574965
   0.80161329  0.72627079  0.40185950
   0.96980673  0.53901661  0.39809323
   0.14742969  0.89028806  0.41071758
   0.31708806  0.69399127  0.09180424
   0.48949155  0.55807683  0.09125601
   0.64323643  0.88284975  0.08559172
   0.30271437  0.54758783  0.59030485
   0.47858474  0.90541361  0.59130859
   0.64964732  0.71629235  0.59812531
   0.30637890  0.55456398  0.90953821
   0.47884166  0.87950286  0.90702439
   0.63195156  0.69625365  0.89907289
   0.30502163  0.71470419  0.40364413
   0.47099598  0.53508309  0.40400605
   0.65540936  0.89492691  0.41215456
 
 position of ions in cartesian coordinates  (Angst):
   0.49289995  7.65735140  2.79061000
   1.55950035  2.96845717  8.40456000
   4.34370016  0.64434900  8.53061000
   9.56831003  0.50309143  8.47872000
   3.67130997  5.10987430  2.83626000
   4.67063997  1.98267430  2.84125000
   4.43323000  5.80378287  8.37835000
  -2.89480013  7.44859857  8.38367000
   8.05799992  0.14474283  2.88366000
   7.77650021  3.17675140  2.80449000
   0.56289989  4.40985000  2.84234000
   1.63115005  6.93926573  8.36796000
   6.91999981  2.32067430  8.36864000
  -1.08759963  4.86359000  8.41435000
  -2.66629995  6.35781713  2.84910000
   1.13293005  0.53693427  2.86576000
   6.38154000  3.30744000 11.20607211
   3.61505000  1.94729000  5.52569000
   1.30359000  3.20183000  0.14439959
   8.74262000  1.94537000  5.66555000
  -1.28343000  7.69295000 11.12570111
   6.14647000  6.26004000  5.55379000
   3.76454000  7.56311000 11.16816571
   1.18138000  6.25542000  5.60508000
   1.19619997  0.43278143 11.17173821
   3.83342000  1.86365000  0.04726100
   1.16165000  0.41107100  5.70896000
   6.22574000  3.39064000  5.61605000
   6.32103003  0.40221143  0.04043020
   8.74805000  1.85698000  0.04499959
   6.18775000  0.50001900  5.61284000
   1.18852000  3.30714000  5.55584000
   3.74072000  4.73703000 11.17567561
   6.25419000  6.16040000 11.20803772
   3.74029000  4.69956000  5.64658000
  -1.39589000  7.76659000  5.59662000
  -1.22988000  4.71386000  0.01066730
   1.21587000  6.16299000 11.18806561
  -1.32925000  4.83737000  5.50688000
   3.61475000  7.65193000  5.60997000
   2.27997000  1.76361000  1.13718000
   4.67988000  0.54252700  1.07792000
   4.56082000  3.30852000  0.99830100
   2.73792003  0.32616143  6.63704000
   2.73320000  3.40300000  6.74448000
   5.44380000  1.97941000  6.63845000
   2.80045000  0.60115800 10.14420000
   3.07858000  3.22626000 10.22900000
   5.41470000  1.77070000 10.12810000
   1.78949000  1.85549000  4.60405000
   4.52629403  0.49619143  4.57108000
   4.55695000  3.52376000  4.55471000
   7.20219000  1.75550000  1.09554000
   9.68669000  0.52610500  1.07679000
  -0.57476005  3.32920000  1.06510000
   7.77035003  0.41437143  6.70590000
   7.87548000  3.45596000  6.54577000
   0.51348100  1.90898000  6.74412000
   7.85100000  0.40614800 10.13160000
   8.04819000  3.31261000 10.19480000
   0.35019995  1.77028000 10.27010000
   6.87407000  1.93054000  4.59151000
   9.54187003  0.35685143  4.59688000
  -0.47659100  3.51296000  4.47772000
   4.63996000  6.04864000  0.93962800
   7.13499000  4.81217000  1.01217000
  -3.04634005  7.59263000  0.97670400
   5.35948000  4.77985000  6.59809000
   5.25290000  7.72013000  6.66208000
  -2.07817000  6.20917000  6.65293000
   5.46680000  4.83232000 10.16920000
   5.44020000  7.72882000 10.12330000
  -2.14821005  6.14022000 10.16070000
   4.39311000  6.30164000  4.50806000
   7.01629000  4.67689000  4.46581000
  -2.98280000  7.72477000  4.60743000
  -0.29964400  6.02156000  1.02986000
   2.10853000  4.84227000  1.02371000
   2.02195000  7.66023000  0.96016800
   0.28975400  4.75126000  6.62204000
   0.25927100  7.85601000  6.63330000
   2.92055000  6.21506000  6.70977000
   0.29152200  4.81179000 10.20320000
   0.39164500  7.63119000 10.17500000
   2.84364000  6.04119000 10.08580000
  -0.52429900  6.20128000  4.52808000
   2.03841000  4.64276000  4.53214000
   2.08341000  7.76502000  4.62355000
 


--------------------------------------------------------------------------------------------------------


 k-point  1 :   0.0000 0.0000 0.0000  plane waves:   17725
 k-point  2 :   0.5000-0.0000-0.0000  plane waves:   17736
 k-point  3 :   0.0000 0.5000 0.0000  plane waves:   17736
 k-point  4 :   0.5000 0.5000-0.0000  plane waves:   17736
 k-point  5 :   0.0000 0.0000 0.5000  plane waves:   17676
 k-point  6 :   0.5000-0.0000 0.5000  plane waves:   17700
 k-point  7 :   0.0000 0.5000 0.5000  plane waves:   17700
 k-point  8 :   0.5000 0.5000 0.5000  plane waves:   17700

 maximum and minimum number of plane-waves per node :     17736    17676

 maximum number of plane-waves:     17736
 maximum index in each direction: 
   IXMAX=   16   IYMAX=   16   IZMAX=   18
   IXMIN=  -16   IYMIN=  -16   IZMIN=  -18


 serial   3D FFT for wavefunctions
 parallel 3D FFT for charge:
    minimum data exchange during FFTs selected (reduces bandwidth)


 total amount of memory used by VASP MPI-rank0    88180. kBytes
=======================================================================

   base      :      30000. kBytes
   nonlr-proj:      13671. kBytes
   fftplans  :        992. kBytes
   grid      :      21513. kBytes
   one-center:       2737. kBytes
   wavefun   :      19267. kBytes
 
     INWAV:  cpu time    0.0000: real time    0.0001
 Broyden mixing: mesh for mixing (old mesh)
   NGX = 33   NGY = 33   NGZ = 37
  (NGX  =100   NGY  =100   NGZ  =112)
  gives a total of  40293 points

 initial charge density was supplied:
 charge density of overlapping atoms calculated
 number of electron     672.0000000 magnetization      48.0000000
 keeping initial charge density in first step


--------------------------------------------------------------------------------------------------------


 Maximum index for non-local projection operator         1547
 Maximum index for augmentation-charges          281 (set IRDMAX)


--------------------------------------------------------------------------------------------------------


 First call to EWALD:  gamma=   0.179
 Maximum number of real-space cells 3x 3x 2
 Maximum number of reciprocal cells 3x 3x 3

    FEWALD:  cpu time    0.0024: real time    0.0029


--------------------------------------- Iteration      1(   1)  ---------------------------------------


    POTLOK:  cpu time    0.2034: real time    0.2045
    SETDIJ:  cpu time    3.0993: real time    3.1009
    EDDIAG:  cpu time    3.7058: real time    3.7122
  RMM-DIIS:  cpu time    6.5354: real time    6.6426
    ORTHCH:  cpu time    1.2204: real time    1.2230
       DOS:  cpu time    0.0022: real time    0.0024
    --------------------------------------------
      LOOP:  cpu time   14.7665: real time   14.8856

 eigenvalue-minimisations  :  7168
 total energy-change (2. order) : 0.1876237E+04  (-0.3594769E+05)
 number of electron     672.0000000 magnetization      48.0000000
 augmentation part      672.0000000 magnetization      48.0000000

 Free energy of the ion-electron system (eV)
  ---------------------------------------------------
  alpha Z        PSCENC =      2652.81237852
  Ewald energy   TEWEN  =    -41957.31373172
  -Hartree energ DENC   =    -25660.44400733
  -exchange      EXHF   =         0.00000000
  -V(xc)+E(xc)   XCENC  =      3605.78858680
  PAW double counting   =     55594.23204139   -59034.67079123
  entropy T*S    EENTRO =        -0.04907831
  eigenvalues    EBANDS =     -7186.31645022
  atomic energy  EATOM  =     73862.19814772
  Solvation  Ediel_sol  =         0.00000000
  ---------------------------------------------------
  free energy    TOTEN  =      1876.23709562 eV

  energy without entropy =     1876.28617394  energy(sigma->0) =     1876.26163478


--------------------------------------------------------------------------------------------------------




--------------------------------------- Iteration      1(   2)  ---------------------------------------


    EDDIAG:  cpu time    3.6929: real time    3.6976
  RMM-DIIS:  cpu time    6.6233: real time    6.6411
    ORTHCH:  cpu time    1.1396: real time    1.1418
       DOS:  cpu time    0.0014: real time    0.0014
    --------------------------------------------
      LOOP:  cpu time   11.4573: real time   11.4818

 eigenvalue-minimisations  :  7168
 total energy-change (2. order) :-0.2730955E+04  (-0.8707905E+04)
 number of electron     672.0000000 magnetization      48.0000000
 augmentation part      672.0000000 magnetization      48.0000000

 Free energy of the ion-electron system (eV)
  ---------------------------------------------------
  alpha Z        PSCENC =      2652.81237852
  Ewald energy   TEWEN  =    -41957.31373172
  -Hartree energ DENC   =    -25660.44400733
  -exchange      EXHF   =         0.00000000
  -V(xc)+E(xc)   XCENC  =      3605.78858680
  PAW double counting   =     55594.23204139   -59034.67079123
  entropy T*S    EENTRO =        -0.05864384
  eigenvalues    EBANDS =     -9917.26217637
  atomic energy  EATOM  =     73862.19814772
  Solvation  Ediel_sol  =         0.00000000
  ---------------------------------------------------
  free energy    TOTEN  =      -854.71819605 eV

  energy without entropy =     -854.65955221  energy(sigma->0) =     -854.68887413


--------------------------------------------------------------------------------------------------------




--------------------------------------- Iteration      1(   3)  ---------------------------------------


    EDDIAG:  cpu time    3.7234: real time    3.7272
  RMM-DIIS:  cpu time    6.6222: real time    6.6267
    ORTHCH:  cpu time    1.1425: real time    1.1461
       DOS:  cpu time    0.0016: real time    0.0016
    --------------------------------------------
      LOOP:  cpu time   11.4897: real time   11.5016

 eigenvalue-minimisations  :  7168
 total energy-change (2. order) : 0.3194994E+03  (-0.1564634E+04)
 number of electron     672.0000000 magnetization      48.0000000
 augmentation part      672.0000000 magnetization      48.0000000

 Free energy of the ion-electron system (eV)
  ---------------------------------------------------
  alpha Z        PSCENC =      2652.81237852
  Ewald energy   TEWEN  =    -41957.31373172
  -Hartree energ DENC   =    -25660.44400733
  -exchange      EXHF   =         0.00000000
  -V(xc)+E(xc)   XCENC  =      3605.78858680
  PAW double counting   =     55594.23204139   -59034.67079123
  entropy T*S    EENTRO =        -0.03736875
  eigenvalues    EBANDS =     -9597.78401072
  atomic energy  EATOM  =     73862.19814772
  Solvation  Ediel_sol  =         0.00000000
  ---------------------------------------------------
  free energy    TOTEN  =      -535.21875532 eV

  energy without entropy =     -535.18138657  energy(sigma->0) =     -535.20007094


--------------------------------------------------------------------------------------------------------




--------------------------------------- Iteration      1(   4)  ---------------------------------------


    EDDIAG:  cpu time    3.7254: real time    3.7396
  RMM-DIIS:  cpu time    6.6095: real time    6.6143
    ORTHCH:  cpu time    1.1449: real time    1.1471
       DOS:  cpu time    0.0013: real time    0.0013
    --------------------------------------------
      LOOP:  cpu time   11.4810: real time   11.5023

 eigenvalue-minimisations  :  7168
 total energy-change (2. order) :-0.5223594E+03  (-0.5057232E+03)
 number of electron     672.0000000 magnetization      48.0000000
 augmentation part      672.0000000 magnetization      48.0000000

 Free energy of the ion-electron system (eV)
  ---------------------------------------------------
  alpha Z        PSCENC =      2652.81237852
  Ewald energy   TEWEN  =    -41957.31373172
  -Hartree energ DENC   =    -25660.44400733
  -exchange      EXHF   =         0.00000000
  -V(xc)+E(xc)   XCENC  =      3605.78858680
  PAW double counting   =     55594.23204139   -59034.67079123
  entropy T*S    EENTRO =        -0.00123355
  eigenvalues    EBANDS =    -10120.17955289
  atomic energy  EATOM  =     73862.19814772
  Solvation  Ediel_sol  =         0.00000000
  ---------------------------------------------------
  free energy    TOTEN  =     -1057.57816228 eV

  energy without entropy =    -1057.57692873  energy(sigma->0) =    -1057.57754551


--------------------------------------------------------------------------------------------------------




--------------------------------------- Iteration      1(   5)  ---------------------------------------


    EDDIAG:  cpu time    3.7372: real time    3.7409
  RMM-DIIS:  cpu time    6.6340: real time    6.6384
    ORTHCH:  cpu time    1.1418: real time    1.1446
       DOS:  cpu time    0.0012: real time    0.0012
    --------------------------------------------
      LOOP:  cpu time   11.5141: real time   11.5252

 eigenvalue-minimisations  :  7168
 total energy-change (2. order) :-0.1478241E+03  (-0.2121634E+03)
 number of electron     672.0000000 magnetization      48.0000000
 augmentation part      672.0000000 magnetization      48.0000000

 Free energy of the ion-electron system (eV)
  ---------------------------------------------------
  alpha Z        PSCENC =      2652.81237852
  Ewald energy   TEWEN  =    -41957.31373172
  -Hartree energ DENC   =    -25660.44400733
  -exchange      EXHF   =         0.00000000
  -V(xc)+E(xc)   XCENC  =      3605.78858680
  PAW double counting   =     55594.23204139   -59034.67079123
  entropy T*S    EENTRO =        -0.00000000
  eigenvalues    EBANDS =    -10268.00486695
  atomic energy  EATOM  =     73862.19814772
  Solvation  Ediel_sol  =         0.00000000
  ---------------------------------------------------
  free energy    TOTEN  =     -1205.40224279 eV

  energy without entropy =    -1205.40224279  energy(sigma->0) =    -1205.40224279


--------------------------------------------------------------------------------------------------------




--------------------------------------- Iteration      1(   6)  ---------------------------------------


    EDDIAG:  cpu time    3.7034: real time    3.7062
  RMM-DIIS:  cpu time    6.6134: real time    6.6634
    ORTHCH:  cpu time    1.1996: real time    1.2020
       DOS:  cpu time    0.0012: real time    0.0012
    --------------------------------------------
      LOOP:  cpu time   11.5175: real time   11.5729

 eigenvalue-minimisations  :  7168
 total energy-change (2. order) :-0.2146222E+02  (-0.1146673E+03)
 number of electron     672.0000000 magnetization      48.0000000
 augmentation part      672.0000000 magnetization      48.0000000

 Free energy of the ion-electron system (eV)
  ---------------------------------------------------
  alpha Z        PSCENC =      2652.81237852
  Ewald energy   TEWEN  =    -41957.31373172
  -Hartree energ DENC   =    -25660.44400733
  -exchange      EXHF   =         0.00000000
  -V(xc)+E(xc)   XCENC  =      3605.78858680
  PAW double counting   =     55594.23204139   -59034.67079123
  entropy T*S    EENTRO =        -0.00000000
  eigenvalues    EBANDS =    -10289.46709183
  atomic energy  EATOM  =     73862.19814772
  Solvation  Ediel_sol  =         0.00000000
  ---------------------------------------------------
  free energy    TOTEN  =     -1226.86446767 eV

  energy without entropy =    -1226.86446767  energy(sigma->0) =    -1226.86446767


--------------------------------------------------------------------------------------------------------




--------------------------------------- Iteration      1(   7)  ---------------------------------------


    EDDIAG:  cpu time    3.7451: real time    3.7491
  RMM-DIIS:  cpu time    6.6293: real time    6.6355
    ORTHCH:  cpu time    1.1501: real time    1.1526
       DOS:  cpu time    0.0011: real time    0.0011
    --------------------------------------------
      LOOP:  cpu time   11.5255: real time   11.5383

 eigenvalue-minimisations  :  7168
 total energy-change (2. order) :-0.6641591E+01  (-0.7556040E+02)
 number of electron     672.0000000 magnetization      48.0000000
 augmentation part      672.0000000 magnetization      48.0000000

 Free energy of the ion-electron system (eV)
  ---------------------------------------------------
  alpha Z        PSCENC =      2652.81237852
  Ewald energy   TEWEN  =    -41957.31373172
  -Hartree energ DENC   =    -25660.44400733
  -exchange      EXHF   =         0.00000000
  -V(xc)+E(xc)   XCENC  =      3605.78858680
  PAW double counting   =     55594.23204139   -59034.67079123
  entropy T*S    EENTRO =        -0.00000000
  eigenvalues    EBANDS =    -10296.10868259
  atomic energy  EATOM  =     73862.19814772
  Solvation  Ediel_sol  =         0.00000000
  ---------------------------------------------------
  free energy    TOTEN  =     -1233.50605843 eV

  energy without entropy =    -1233.50605843  energy(sigma->0) =    -1233.50605843


--------------------------------------------------------------------------------------------------------




--------------------------------------- Iteration      1(   8)  ---------------------------------------


    EDDIAG:  cpu time    3.7142: real time    3.7181
  RMM-DIIS:  cpu time    6.6121: real time    6.6164
    ORTHCH:  cpu time    1.1495: real time    1.1519
       DOS:  cpu time    0.0010: real time    0.0010
    --------------------------------------------
      LOOP:  cpu time   11.4768: real time   11.4874

 eigenvalue-minimisations  :  7168
 total energy-change (2. order) : 0.4660468E+01  (-0.5221336E+02)
 number of electron     672.0000000 magnetization      48.0000000
 augmentation part      672.0000000 magnetization      48.0000000

 Free energy of the ion-electron system (eV)
  ---------------------------------------------------
  alpha Z        PSCENC =      2652.81237852
  Ewald energy   TEWEN  =    -41957.31373172
  -Hartree energ DENC   =    -25660.44400733
  -exchange      EXHF   =         0.00000000
  -V(xc)+E(xc)   XCENC  =      3605.78858680
  PAW double counting   =     55594.23204139   -59034.67079123
  entropy T*S    EENTRO =        -0.00000000
  eigenvalues    EBANDS =    -10291.44821437
  atomic energy  EATOM  =     73862.19814772
  Solvation  Ediel_sol  =         0.00000000
  ---------------------------------------------------
  free energy    TOTEN  =     -1228.84559021 eV

  energy without entropy =    -1228.84559021  energy(sigma->0) =    -1228.84559021


--------------------------------------------------------------------------------------------------------




--------------------------------------- Iteration      1(   9)  ---------------------------------------


    EDDIAG:  cpu time    3.7011: real time    3.7063
  RMM-DIIS:  cpu time   13.9215: real time   13.9735
    ORTHCH:  cpu time    1.1463: real time    1.1487
       DOS:  cpu time    0.0010: real time    0.0010
    --------------------------------------------
      LOOP:  cpu time   18.7699: real time   18.8295

 eigenvalue-minimisations  : 20241
 total energy-change (2. order) : 0.1782271E+02  (-0.2338594E+02)
 number of electron     672.0000000 magnetization      48.0000000
 augmentation part      672.0000000 magnetization      48.0000000

 Free energy of the ion-electron system (eV)
  ---------------------------------------------------
  alpha Z        PSCENC =      2652.81237852
  Ewald energy   TEWEN  =    -41957.31373172
  -Hartree energ DENC   =    -25660.44400733
  -exchange      EXHF   =         0.00000000
  -V(xc)+E(xc)   XCENC  =      3605.78858680
  PAW double counting   =     55594.23204139   -59034.67079123
  entropy T*S    EENTRO =        -0.00000000
  eigenvalues    EBANDS =    -10273.62550361
  atomic energy  EATOM  =     73862.19814772
  Solvation  Ediel_sol  =         0.00000000
  ---------------------------------------------------
  free energy    TOTEN  =     -1211.02287945 eV

  energy without entropy =    -1211.02287945  energy(sigma->0) =    -1211.02287945


--------------------------------------------------------------------------------------------------------




--------------------------------------- Iteration      1(  10)  ---------------------------------------


    EDDIAG:  cpu time    3.7034: real time    3.7069
  RMM-DIIS:  cpu time   15.6298: real time   15.6597
    ORTHCH:  cpu time    1.2112: real time    1.2136
       DOS:  cpu time    0.0010: real time    0.0010
    --------------------------------------------
      LOOP:  cpu time   20.5454: real time   20.5814

 eigenvalue-minimisations  : 20254
 total energy-change (2. order) :-0.3258063E+01  (-0.1300319E+01)
 number of electron     672.0000000 magnetization      48.0000000
 augmentation part      672.0000000 magnetization      48.0000000

 Free energy of the ion-electron system (eV)
  ---------------------------------------------------
  alpha Z        PSCENC =      2652.81237852
  Ewald energy   TEWEN  =    -41957.31373172
  -Hartree energ DENC   =    -25660.44400733
  -exchange      EXHF   =         0.00000000
  -V(xc)+E(xc)   XCENC  =      3605.78858680
  PAW double counting   =     55594.23204139   -59034.67079123
  entropy T*S    EENTRO =        -0.00000001
  eigenvalues    EBANDS =    -10276.88356697
  atomic energy  EATOM  =     73862.19814772
  Solvation  Ediel_sol  =         0.00000000
  ---------------------------------------------------
  free energy    TOTEN  =     -1214.28094282 eV

  energy without entropy =    -1214.28094281  energy(sigma->0) =    -1214.28094282


--------------------------------------------------------------------------------------------------------




--------------------------------------- Iteration      1(  11)  ---------------------------------------


    EDDIAG:  cpu time    3.7313: real time    3.7356
  RMM-DIIS:  cpu time   15.1772: real time   15.1883
    ORTHCH:  cpu time    1.1393: real time    1.1418
       DOS:  cpu time    0.0013: real time    0.0013
    --------------------------------------------
      LOOP:  cpu time   20.0491: real time   20.0671

 eigenvalue-minimisations  : 21690
 total energy-change (2. order) : 0.2504599E+00  (-0.1337288E+00)
 number of electron     672.0000000 magnetization      48.0000000
 augmentation part      672.0000000 magnetization      48.0000000

 Free energy of the ion-electron system (eV)
  ---------------------------------------------------
  alpha Z        PSCENC =      2652.81237852
  Ewald energy   TEWEN  =    -41957.31373172
  -Hartree energ DENC   =    -25660.44400733
  -exchange      EXHF   =         0.00000000
  -V(xc)+E(xc)   XCENC  =      3605.78858680
  PAW double counting   =     55594.23204139   -59034.67079123
  entropy T*S    EENTRO =        -0.00000002
  eigenvalues    EBANDS =    -10276.63310711
  atomic energy  EATOM  =     73862.19814772
  Solvation  Ediel_sol  =         0.00000000
  ---------------------------------------------------
  free energy    TOTEN  =     -1214.03048297 eV

  energy without entropy =    -1214.03048295  energy(sigma->0) =    -1214.03048296


--------------------------------------------------------------------------------------------------------




--------------------------------------- Iteration      1(  12)  ---------------------------------------


    EDDIAG:  cpu time    3.7028: real time    3.7069
  RMM-DIIS:  cpu time   16.0313: real time   16.0683
    ORTHCH:  cpu time    1.1411: real time    1.1433
       DOS:  cpu time    0.0014: real time    0.0014
    CHARGE:  cpu time    1.3455: real time    1.3477
    MIXING:  cpu time    0.0012: real time    0.0014
    --------------------------------------------
      LOOP:  cpu time   22.2234: real time   22.2691

 eigenvalue-minimisations  : 22727
 total energy-change (2. order) : 0.2087019E-02  ( 0.1718160E-01)
 number of electron     671.9999624 magnetization      47.9999998
 augmentation part      239.0617968 magnetization      29.0480224

 Broyden mixing:
  rms(total) = 0.12545E+02    rms(broyden)= 0.12536E+02
  rms(prec ) = 0.14402E+02
  weight for this iteration     100.00

 Free energy of the ion-electron system (eV)
  ---------------------------------------------------
  alpha Z        PSCENC =      2652.81237852
  Ewald energy   TEWEN  =    -41957.31373172
  -Hartree energ DENC   =    -25660.44400733
  -exchange      EXHF   =         0.00000000
  -V(xc)+E(xc)   XCENC  =      3605.78858680
  PAW double counting   =     55594.23204139   -59034.67079123
  entropy T*S    EENTRO =        -0.00000002
  eigenvalues    EBANDS =    -10276.63102009
  atomic energy  EATOM  =     73862.19814772
  Solvation  Ediel_sol  =         0.00000000
  ---------------------------------------------------
  free energy    TOTEN  =     -1214.02839595 eV

  energy without entropy =    -1214.02839593  energy(sigma->0) =    -1214.02839594


--------------------------------------------------------------------------------------------------------




--------------------------------------- Iteration      1(  13)  ---------------------------------------


    POTLOK:  cpu time    0.1979: real time    0.1981
    SETDIJ:  cpu time    3.2884: real time    3.2897
    EDDIAG:  cpu time    3.7122: real time    3.7147
  RMM-DIIS:  cpu time   12.9881: real time   13.0722
    ORTHCH:  cpu time    1.1549: real time    1.1573
       DOS:  cpu time    0.0020: real time    0.0020
    CHARGE:  cpu time    1.3491: real time    1.3495
    MIXING:  cpu time    0.0007: real time    0.0008
    --------------------------------------------
      LOOP:  cpu time   22.6933: real time   22.7843

 eigenvalue-minimisations  : 17284
 total energy-change (2. order) : 0.2243704E+03  (-0.1387445E+03)
 number of electron     671.9999565 magnetization      47.9999998
 augmentation part      269.0866625 magnetization      26.4719266

 Broyden mixing:
  rms(total) = 0.13976E+02    rms(broyden)= 0.13973E+02
  rms(prec ) = 0.15724E+02
  weight for this iteration     100.00

 eigenvalues of (default mixing * dielectric matrix)
  average eigenvalue GAMMA=   0.3172
  0.3172

 Free energy of the ion-electron system (eV)
  ---------------------------------------------------
  alpha Z        PSCENC =      2652.81237852
  Ewald energy   TEWEN  =    -41957.31373172
  -Hartree energ DENC   =    -24987.82638522
  -exchange      EXHF   =         0.00000000
  -V(xc)+E(xc)   XCENC  =      3696.08480477
  PAW double counting   =     59883.62973347   -63308.84950034
  entropy T*S    EENTRO =        -0.07227533
  eigenvalues    EBANDS =    -10830.32116860
  atomic energy  EATOM  =     73862.19814772
  Solvation  Ediel_sol  =         0.00000000
  ---------------------------------------------------
  free energy    TOTEN  =      -989.65799671 eV

  energy without entropy =     -989.58572138  energy(sigma->0) =     -989.62185905


--------------------------------------------------------------------------------------------------------




--------------------------------------- Iteration      1(  14)  ---------------------------------------


    POTLOK:  cpu time    0.2095: real time    0.2097
    SETDIJ:  cpu time    3.2835: real time    3.2853
    EDDIAG:  cpu time    3.7030: real time    3.7065
  RMM-DIIS:  cpu time   13.6164: real time   13.6262
    ORTHCH:  cpu time    1.1621: real time    1.1894
       DOS:  cpu time    0.0013: real time    0.0013
    CHARGE:  cpu time    1.3409: real time    1.3414
    MIXING:  cpu time    0.0007: real time    0.0007
    --------------------------------------------
      LOOP:  cpu time   23.3174: real time   23.3603

 eigenvalue-minimisations  : 17773
 total energy-change (2. order) : 0.7491926E+02  (-0.1883870E+02)
 number of electron     671.9999605 magnetization      47.9999997
 augmentation part      246.6275757 magnetization      32.2101348

 Broyden mixing:
  rms(total) = 0.52370E+01    rms(broyden)= 0.52325E+01
  rms(prec ) = 0.56573E+01
  weight for this iteration     100.00

 eigenvalues of (default mixing * dielectric matrix)
  average eigenvalue GAMMA=   0.7295
  1.1001  0.3588

 Free energy of the ion-electron system (eV)
  ---------------------------------------------------
  alpha Z        PSCENC =      2652.81237852
  Ewald energy   TEWEN  =    -41957.31373172
  -Hartree energ DENC   =    -25599.06171197
  -exchange      EXHF   =         0.00000000
  -V(xc)+E(xc)   XCENC  =      3673.72468867
  PAW double counting   =     63299.50177766   -66781.78751440
  entropy T*S    EENTRO =        -0.00000000
  eigenvalues    EBANDS =    -10064.81277274
  atomic energy  EATOM  =     73862.19814772
  Solvation  Ediel_sol  =         0.00000000
  ---------------------------------------------------
  free energy    TOTEN  =      -914.73873826 eV

  energy without entropy =     -914.73873826  energy(sigma->0) =     -914.73873826


--------------------------------------------------------------------------------------------------------




--------------------------------------- Iteration      1(  15)  ---------------------------------------


    POTLOK:  cpu time    0.2015: real time    0.2032
    SETDIJ:  cpu time    3.2863: real time    3.2869
    EDDIAG:  cpu time    3.7334: real time    3.7372
  RMM-DIIS:  cpu time   13.6194: real time   13.6296
    ORTHCH:  cpu time    1.1631: real time    1.1653
       DOS:  cpu time    0.0010: real time    0.0010
    CHARGE:  cpu time    1.3397: real time    1.3400
    MIXING:  cpu time    0.0006: real time    0.0006
    --------------------------------------------
      LOOP:  cpu time   23.3450: real time   23.3638

 eigenvalue-minimisations  : 18363
 total energy-change (2. order) : 0.1360770E+02  (-0.2103994E+01)
 number of electron     671.9999597 magnetization      47.9999994
 augmentation part      249.6902214 magnetization      33.8282765

 Broyden mixing:
  rms(total) = 0.21342E+01    rms(broyden)= 0.21339E+01
  rms(prec ) = 0.22168E+01
  weight for this iteration     100.00

 eigenvalues of (default mixing * dielectric matrix)
  average eigenvalue GAMMA=   0.9518
  0.3837  0.7582  1.7136

 Free energy of the ion-electron system (eV)
  ---------------------------------------------------
  alpha Z        PSCENC =      2652.81237852
  Ewald energy   TEWEN  =    -41957.31373172
  -Hartree energ DENC   =    -25516.50256353
  -exchange      EXHF   =         0.00000000
  -V(xc)+E(xc)   XCENC  =      3706.37917362
  PAW double counting   =     67393.77011264   -70916.55573095
  entropy T*S    EENTRO =        -0.00000000
  eigenvalues    EBANDS =    -10125.91882604
  atomic energy  EATOM  =     73862.19814772
  Solvation  Ediel_sol  =         0.00000000
  ---------------------------------------------------
  free energy    TOTEN  =      -901.13103974 eV

  energy without entropy =     -901.13103974  energy(sigma->0) =     -901.13103974


--------------------------------------------------------------------------------------------------------




--------------------------------------- Iteration      1(  16)  ---------------------------------------


    POTLOK:  cpu time    0.2088: real time    0.2096
    SETDIJ:  cpu time    3.3180: real time    3.3195
    EDDIAG:  cpu time    3.7908: real time    3.8096
  RMM-DIIS:  cpu time   13.1565: real time   13.1664
    ORTHCH:  cpu time    1.1520: real time    1.1544
       DOS:  cpu time    0.0010: real time    0.0010
    CHARGE:  cpu time    1.3435: real time    1.3439
    MIXING:  cpu time    0.0010: real time    0.0009
    --------------------------------------------
      LOOP:  cpu time   22.9715: real time   23.0054

 eigenvalue-minimisations  : 17455
 total energy-change (2. order) :-0.1479220E+01  (-0.6642539E+00)
 number of electron     671.9999595 magnetization      47.9999993
 augmentation part      251.1768288 magnetization      33.9183334

 Broyden mixing:
  rms(total) = 0.14038E+01    rms(broyden)= 0.14032E+01
  rms(prec ) = 0.14958E+01
  weight for this iteration     100.00

 eigenvalues of (default mixing * dielectric matrix)
  average eigenvalue GAMMA=   0.9732
  2.0672  0.9046  0.3903  0.5306

 Free energy of the ion-electron system (eV)
  ---------------------------------------------------
  alpha Z        PSCENC =      2652.81237852
  Ewald energy   TEWEN  =    -41957.31373172
  -Hartree energ DENC   =    -25465.02208369
  -exchange      EXHF   =         0.00000000
  -V(xc)+E(xc)   XCENC  =      3707.46741337
  PAW double counting   =     70325.38291005   -73877.99919022
  entropy T*S    EENTRO =        -0.00000000
  eigenvalues    EBANDS =    -10150.13610361
  atomic energy  EATOM  =     73862.19814772
  Solvation  Ediel_sol  =         0.00000000
  ---------------------------------------------------
  free energy    TOTEN  =      -902.61025956 eV

  energy without entropy =     -902.61025956  energy(sigma->0) =     -902.61025956


--------------------------------------------------------------------------------------------------------




--------------------------------------- Iteration      1(  17)  ---------------------------------------


    POTLOK:  cpu time    0.2109: real time    0.2110
    SETDIJ:  cpu time    3.3232: real time    3.3247
    EDDIAG:  cpu time    3.7313: real time    3.7342
  RMM-DIIS:  cpu time   13.7550: real time   13.7888
    ORTHCH:  cpu time    1.1466: real time    1.1493
       DOS:  cpu time    0.0010: real time    0.0010
    CHARGE:  cpu time    1.3426: real time    1.3432
    MIXING:  cpu time    0.0016: real time    0.0016
    --------------------------------------------
      LOOP:  cpu time   23.5122: real time   23.5537

 eigenvalue-minimisations  : 18577
 total energy-change (2. order) : 0.1787030E+00  (-0.7360553E-01)
 number of electron     671.9999595 magnetization      47.9999992
 augmentation part      251.0809353 magnetization      33.9184270

 Broyden mixing:
  rms(total) = 0.75966E+00    rms(broyden)= 0.75954E+00
  rms(prec ) = 0.85592E+00
  weight for this iteration     100.00

 eigenvalues of (default mixing * dielectric matrix)
  average eigenvalue GAMMA=   0.9991
  2.2300  1.1247  0.3810  0.6965  0.5632

 Free energy of the ion-electron system (eV)
  ---------------------------------------------------
  alpha Z        PSCENC =      2652.81237852
  Ewald energy   TEWEN  =    -41957.31373172
  -Hartree energ DENC   =    -25457.05150241
  -exchange      EXHF   =         0.00000000
  -V(xc)+E(xc)   XCENC  =      3704.62174618
  PAW double counting   =     71162.59841603   -74723.35573023
  entropy T*S    EENTRO =        -0.00000000
  eigenvalues    EBANDS =    -10146.94128069
  atomic energy  EATOM  =     73862.19814772
  Solvation  Ediel_sol  =         0.00000000
  ---------------------------------------------------
  free energy    TOTEN  =      -902.43155658 eV

  energy without entropy =     -902.43155658  energy(sigma->0) =     -902.43155658


--------------------------------------------------------------------------------------------------------




--------------------------------------- Iteration      1(  18)  ---------------------------------------


    POTLOK:  cpu time    0.2010: real time    0.2013
    SETDIJ:  cpu time    3.2979: real time    3.2984
    EDDIAG:  cpu time    3.7256: real time    3.7292
  RMM-DIIS:  cpu time   13.1614: real time   13.2146
    ORTHCH:  cpu time    1.1890: real time    1.1912
       DOS:  cpu time    0.0012: real time    0.0012
    CHARGE:  cpu time    1.3467: real time    1.3474
    MIXING:  cpu time    0.0010: real time    0.0010
    --------------------------------------------
      LOOP:  cpu time   22.9237: real time   22.9844

 eigenvalue-minimisations  : 17608
 total energy-change (2. order) : 0.3946420E+00  (-0.7235462E-01)
 number of electron     671.9999596 magnetization      47.9999991
 augmentation part      250.6006176 magnetization      33.8854752

 Broyden mixing:
  rms(total) = 0.28536E+00    rms(broyden)= 0.28509E+00
  rms(prec ) = 0.30157E+00
  weight for this iteration     100.00

 eigenvalues of (default mixing * dielectric matrix)
  average eigenvalue GAMMA=   1.0183
  2.4654  1.3502  0.8533  0.5893  0.3826  0.4693

 Free energy of the ion-electron system (eV)
  ---------------------------------------------------
[...]
   4      -0.700    -0.939     1.638    -0.021     0.019     0.531
   5      -0.977    -0.893     1.869    -0.050    -0.027    -0.015
   6      -0.720    -0.696     1.415    -0.191     0.290     0.177
   7      -0.920    -0.759     1.679     0.031     0.314    -0.158
   8      -0.842    -0.660     1.502    -0.082    -0.402    -0.351
   9      -0.707    -0.875     1.583    -0.042    -0.016    -0.490
  10      -0.830    -0.711     1.541     0.109    -0.475     0.333
  11      -0.693    -0.985     1.678    -0.075    -0.065    -0.511
  12      -0.799    -0.542     1.341    -0.084    -0.270    -0.251
  13      -0.857    -0.609     1.466     0.094     0.435    -0.182
  14      -0.910    -0.922     1.832     0.035     0.118    -0.001
  15      -0.752    -0.621     1.373    -0.137     0.390     0.224
  16      -0.915    -0.918     1.833    -0.083     0.099     0.004
  17       1.584     1.425    -3.009     0.005     0.013    -0.059
  18       1.433     1.512    -2.945     0.066    -0.051    -0.009
  19       1.562     1.365    -2.928     0.073    -0.039     0.075
  20       1.380     1.485    -2.865    -0.163     0.019    -0.078
  21       1.595     1.256    -2.851     0.065    -0.005     0.029
  22       1.247     1.711    -2.958     0.267    -0.163    -0.076
  23       1.488     1.415    -2.903    -0.137    -0.056    -0.000
  24       1.386     1.462    -2.849     0.180     0.093     0.050
  25      -0.876     0.393     0.483     0.538     0.411     0.654
  26       0.323     0.319    -0.641    -0.326    -0.177     0.960
  27       0.321    -1.004     0.683    -0.296    -0.991    -0.999
  28      -0.365    -0.546     0.911     0.017     0.208    -0.086
  29      -0.406     0.015     0.391     1.062     0.180     0.341
  30       0.066     0.077    -0.143     0.415     1.054     0.392
  31      -0.247    -1.144     1.391     0.033    -0.442     1.032
  32       3.436    -2.276    -1.160     0.239    -0.668     0.218
  33      -0.836    -0.879     1.715    -0.566    -0.965    -0.367
  34      -1.374    -0.601     1.975    -0.898    -0.594    -0.485
  35      -1.094     2.011    -0.917    -0.434     1.961    -1.943
  36      -1.769     0.444     1.325     0.150    -0.006    -0.597
  37      -0.148     0.282    -0.134    -1.293     0.346     0.613
  38      -1.274     0.726     0.547    -0.561     0.077     0.727
  39       0.158    -0.377     0.219    -0.972     1.012     0.257
  40      -0.524     0.606    -0.083     0.495    -1.241     0.259
  41      -3.575     4.203    -0.629    -4.370     1.723    -3.357
  42      -4.302     2.708     1.594     4.831     3.017     3.751
  43       4.969    -6.855     1.886    -0.031    -5.612    -0.535
  44      -4.600     3.372     1.229     5.768    -1.012    -6.300
  45      -3.492     5.013    -1.521    -6.222    -2.017     2.835
  46       4.571    -6.552     1.980    -0.514     5.925    -1.480
  47      -4.526     4.512     0.014    -3.954     1.422    -2.403
  48       5.974    -7.453     1.479     0.806    -6.190     0.076
  49      -2.307     3.526    -1.219     5.108     1.349     3.655
  50       7.874    -6.959    -0.915     1.081     4.068     0.373
  51      -3.828     2.443     1.385    -3.938    -1.376     4.440
  52      -2.041     3.595    -1.554     5.249     0.146    -6.077
  53      -2.206     1.557     0.649    -4.943     3.133    -3.553
  54      -1.991     2.759    -0.768     6.641     2.818     4.119
  55       5.663    -6.039     0.375    -0.864    -4.451     0.430
  56      -2.711     1.672     1.038     3.827    -4.361    -3.535
  57      -4.221     2.179     2.041    -3.440    -2.970     3.698
  58       6.344    -5.789    -0.555     1.438     4.223    -0.677
  59      -2.411     2.705    -0.294    -4.266     2.747    -3.073
  60       5.247    -5.706     0.459    -0.369    -4.046     0.573
  61      -3.155     1.205     1.950     5.956     2.768     4.770
  62       6.495    -6.060    -0.434    -0.254     3.929     0.119
  63      -1.529     1.348     0.181    -5.054    -2.763     3.495
  64      -2.088     0.528     1.559     5.621    -1.372    -4.056
  65      -5.257     3.605     1.652    -4.530     1.646    -5.457
  66      -2.706     1.166     1.540     5.016     0.618     4.600
  67       4.156    -5.532     1.375    -0.701    -3.897     0.307
  68      -6.851     3.211     3.640     3.018    -3.563    -5.630
  69      -2.928     1.394     1.534    -5.659    -1.785     3.611
  70       5.714    -5.633    -0.082    -0.494     4.399     0.970
  71      -4.197     3.565     0.632    -5.069     2.595    -5.839
  72       4.092    -5.243     1.151    -0.984    -3.921    -1.731
  73      -2.903     2.199     0.704     3.114     2.761     2.877
  74       5.493    -5.560     0.066     2.963     5.099    -0.280
  75      -2.773     2.591     0.181    -4.395    -1.194     4.398
  76      -4.442     3.448     0.994     2.839    -2.720    -4.339
  77      -3.588     3.630    -0.041    -5.809     3.555    -3.121
  78      -2.518     2.546    -0.028     4.739     1.837     4.278
  79       3.873    -6.450     2.578     0.681    -3.906     1.082
  80      -2.755     3.599    -0.844     4.183    -2.928    -2.370
  81      -4.811     3.043     1.768    -4.389    -2.252     4.895
  82       4.435    -5.135     0.700     0.347     3.828     2.929
  83      -2.220     3.056    -0.836    -6.456     3.046    -4.541
  84       2.865    -4.769     1.904    -0.798    -4.670     0.278
  85      -2.571     2.098     0.473     4.873     1.402     4.019
  86       3.143    -5.430     2.288    -1.106     4.804     1.097
  87      -1.848     0.477     1.372    -4.459    -1.628     4.959
  88      -3.182     1.942     1.240     4.889    -2.788    -3.034
 ---------------------------------------------------------------------


 Total hyperfine coupling parameters after diagonalization (MHz)
 (convention: |A_zz| > |A_xx| > |A_yy|)
 ----------------------------------------------------------------------
  ion      A_xx      A_yy      A_zz     asymmetry (A_yy - A_xx)/ A_zz 
 ----------------------------------------------------------------------
   1       1.740     1.420     3.903      -0.082
   2       1.458     1.085     3.324      -0.112
   3       2.090     1.679     4.310      -0.095
   4       1.973     1.626     4.415      -0.079
   5       0.462     0.332     3.202      -0.041
   6       1.737     1.309     3.720      -0.115
   7       1.539     1.325     4.021      -0.053
   8       2.133     1.793     4.390      -0.077
   9       2.437     2.161     4.814      -0.057
  10       2.753     2.373     5.073      -0.075
  11       3.060     2.638     5.510      -0.076
  12       1.133     0.787     3.067      -0.113
  13       1.721     1.319     3.855      -0.104
  14       0.125     0.054     2.846      -0.025
  15       1.444     1.053     3.440      -0.114
  16       0.257     0.091     2.929      -0.057
  17      14.562    10.126    14.720      -0.301
  18      14.184     9.843    14.339      -0.303
  19      15.485    11.213    15.728      -0.272
  20      13.331     9.203    13.675      -0.302
  21      13.057     8.961    13.419      -0.305
  22      13.976     9.882    14.684      -0.279
  23      14.256    10.042    14.539      -0.290
  24      13.729     9.637    14.099      -0.290
  25      94.489    93.600    95.993      -0.009
  26      91.186    89.807    92.132      -0.015
  27      99.093    97.299   100.677      -0.018
  28      98.151    97.986    99.491      -0.002
  29      94.539    93.067    95.440      -0.015
  30     100.441    99.534   101.921      -0.009
  31      98.086    96.849   100.223      -0.012
  32      95.338    94.195   100.073      -0.011
  33      99.432    98.100   101.839      -0.013
  34      93.162    91.066    95.295      -0.022
  35      98.661    95.633   102.213      -0.030
  36      99.603    97.671   101.079      -0.019
  37      98.254    96.564    99.540      -0.017
  38      99.021    97.530   100.409      -0.015
  39      93.402    91.698    94.611      -0.018
  40      93.332    90.952    93.654      -0.025
  41       2.580    -0.671    12.718      -0.256
  42       6.279     0.901    16.255      -0.331
  43       3.720    -0.836    15.322      -0.297
  44       7.980     2.002    20.683      -0.289
  45       6.095     1.838    18.050      -0.236
  46       4.014    -0.197    16.086      -0.262
  47       4.801    -0.238    12.889      -0.391
  48       6.593     1.860    19.727      -0.240
  49       4.058     1.292    14.797      -0.187
  50       7.597     3.067    19.651      -0.231
  51       4.820     0.887    14.409      -0.273
  52       8.683     2.714    19.701      -0.303
  53       6.438     3.050    16.727      -0.203
  54       5.202     1.657    18.122      -0.196
  55       4.870     0.923    15.289      -0.258
  56       4.849     1.068    14.983      -0.252
  57       5.247     0.836    14.378      -0.307
  58       4.380     0.269    14.954      -0.275
  59       6.893     4.037    16.386      -0.174
  60       6.138     2.202    15.543      -0.253
  61       7.009     1.729    18.496      -0.285
  62       5.962     2.083    16.428      -0.236
  63       3.056     0.136    13.261      -0.220
  64       5.797    -0.201    14.349      -0.418
  65       6.887     2.025    18.821      -0.258
  66       4.793    -1.186    13.199      -0.453
  67       5.665     1.448    13.979      -0.302
  68       8.401     2.467    20.920      -0.284
  69       7.208     1.291    15.988      -0.370
  70       3.445    -0.409    13.644      -0.283
  71       4.152     1.009    18.016      -0.174
  72       5.375    -0.034    12.889      -0.420
  73       4.079     0.785    11.882      -0.277
  74       3.639    -0.927    14.793      -0.309
  75       5.920     2.499    15.748      -0.217
  76       6.593     3.101    16.790      -0.208
  77       6.514     1.082    17.410      -0.312
  78       4.452     1.545    15.052      -0.193
  79       7.159     0.905    14.812      -0.422
  80       2.679    -1.167    11.520      -0.334
  81       4.615     0.079    15.866      -0.286
  82       5.427    -0.439    13.173      -0.445
  83       5.438     2.447    19.124      -0.156
  84       2.327    -0.266    11.726      -0.221
  85       6.303     2.242    15.677      -0.259
  86       5.559     1.007    14.591      -0.312
  87       4.753     0.724    14.464      -0.279
  88       5.917     0.936    14.704      -0.339
 ---------------------------------------------------------------------



--------------------------------------------------------------------------------------------------------


 stress matrix after NEB project (eV)
    -43.60495      0.12219     -8.33010
      0.11895    -46.97854      1.92484
     -8.28228      1.93218    -60.84434
  FORCES: max atom, RMS     3.027577    1.237132
  FORCE total and by dimension   11.605328    2.824684
  Stress total and by dimension   89.195643   60.844335
     LOOP+:  cpu time  668.5805: real time  669.9548
    4ORBIT:  cpu time    0.0000: real time    0.0000
 


 total charge     
 
# of ion       s       p       d       tot
------------------------------------------
    1        0.044   5.985   0.000   6.030
    2        0.053   5.998   0.000   6.050
    3        0.050   5.992   0.000   6.042
    4        0.049   5.992   0.000   6.041
    5        0.051   5.996   0.000   6.047
    6        0.053   5.996   0.000   6.049
    7        0.053   5.996   0.000   6.048
    8        0.050   5.992   0.000   6.042
    9        0.050   5.991   0.000   6.041
   10        0.051   5.993   0.000   6.044
   11        0.055   5.999   0.000   6.055
   12        0.052   5.995   0.000   6.048
   13        0.047   5.989   0.000   6.036
   14        0.052   5.996   0.000   6.048
   15        0.049   5.992   0.000   6.041
   16        0.050   5.994   0.000   6.044
   17        0.153   6.136   0.091   6.381
   18        0.148   6.125   0.081   6.354
   19        0.147   6.123   0.080   6.350
   20        0.147   6.124   0.080   6.351
   21        0.149   6.126   0.082   6.358
   22        0.155   6.138   0.092   6.384
   23        0.150   6.131   0.086   6.367
   24        0.149   6.128   0.084   6.362
   25        0.379   6.457   4.840  11.676
   26        0.387   6.478   4.851  11.715
   27        0.380   6.464   4.847  11.691
   28        0.379   6.464   4.837  11.680
   29        0.371   6.447   4.821  11.640
   30        0.372   6.449   4.829  11.649
   31        0.372   6.449   4.817  11.638
   32        0.373   6.445   4.831  11.649
   33        0.371   6.448   4.821  11.640
   34        0.380   6.467   4.840  11.688
   35        0.366   6.425   4.825  11.616
   36        0.366   6.430   4.812  11.608
   37        0.390   6.485   4.866  11.741
   38        0.372   6.447   4.821  11.639
   39        0.379   6.462   4.832  11.672
   40        0.377   6.456   4.827  11.660
   41        1.599   3.473   0.000   5.072
   42        1.598   3.510   0.000   5.108
   43        1.600   3.503   0.000   5.103
   44        1.605   3.524   0.000   5.129
   45        1.605   3.466   0.000   5.071
   46        1.600   3.488   0.000   5.088
   47        1.596   3.505   0.000   5.100
   48        1.603   3.498   0.000   5.101
   49        1.597   3.491   0.000   5.088
   50        1.604   3.514   0.000   5.118
   51        1.596   3.510   0.000   5.107
   52        1.602   3.518   0.000   5.120
   53        1.599   3.516   0.000   5.115
   54        1.599   3.496   0.000   5.095
   55        1.601   3.514   0.000   5.115
   56        1.597   3.474   0.000   5.071
   57        1.599   3.533   0.000   5.133
   58        1.598   3.500   0.000   5.098
   59        1.599   3.474   0.000   5.073
   60        1.600   3.527   0.000   5.126
   61        1.602   3.539   0.000   5.141
   62        1.598   3.511   0.000   5.109
   63        1.597   3.499   0.000   5.096
   64        1.599   3.508   0.000   5.107
   65        1.602   3.527   0.000   5.130
   66        1.599   3.517   0.000   5.116
   67        1.596   3.512   0.000   5.108
   68        1.604   3.514   0.000   5.118
   69        1.596   3.514   0.000   5.110
   70        1.598   3.483   0.000   5.081
   71        1.603   3.487   0.000   5.090
   72        1.596   3.507   0.000   5.103
   73        1.596   3.506   0.000   5.102
   74        1.603   3.468   0.000   5.071
   75        1.599   3.496   0.000   5.095
   76        1.600   3.534   0.000   5.134
   77        1.600   3.498   0.000   5.098
   78        1.598   3.506   0.000   5.104
   79        1.598   3.531   0.000   5.129
   80        1.598   3.480   0.000   5.078
   81        1.598   3.491   0.000   5.090
   82        1.596   3.501   0.000   5.097
   83        1.603   3.502   0.000   5.104
   84        1.597   3.499   0.000   5.097
   85        1.596   3.506   0.000   5.101
   86        1.596   3.496   0.000   5.092
   87        1.598   3.491   0.000   5.089
   88        1.599   3.546   0.000   5.145
--------------------------------------------------
tot         84.782 416.403  77.992 579.177
 


 magnetization (x)
 
# of ion       s       p       d       tot
------------------------------------------
    1        0.002   0.000   0.000   0.002
    2        0.001   0.001   0.000   0.002
    3        0.002   0.000   0.000   0.002
    4        0.002   0.000   0.000   0.002
    5        0.001   0.001   0.000   0.001
    6        0.002   0.000   0.000   0.002
    7        0.002   0.000   0.000   0.002
    8        0.002   0.000   0.000   0.002
    9        0.002   0.000   0.000   0.003
   10        0.003   0.000   0.000   0.003
   11        0.003   0.001   0.000   0.003
   12        0.001   0.000   0.000   0.001
   13        0.002   0.000   0.000   0.002
   14        0.001   0.000   0.000   0.001
   15        0.001   0.000   0.000   0.002
   16        0.001   0.000   0.000   0.001
   17        0.007   0.002   0.001   0.011
   18        0.007   0.002   0.001   0.010
   19        0.008   0.003   0.001   0.012
   20        0.007   0.002   0.001   0.010
   21        0.006   0.002   0.001   0.009
   22        0.007   0.002   0.001   0.011
   23        0.007   0.002   0.001   0.010
   24        0.007   0.002   0.001   0.010
   25        0.015   0.030   2.746   2.790
   26        0.014   0.030   2.724   2.768
   27        0.016   0.031   2.739   2.786
   28        0.016   0.030   2.740   2.786
   29        0.015   0.029   2.772   2.816
   30        0.017   0.030   2.770   2.817
   31        0.016   0.030   2.774   2.820
   32        0.015   0.030   2.747   2.791
   33        0.016   0.031   2.767   2.814
   34        0.015   0.029   2.740   2.784
   35        0.015   0.028   2.764   2.807
   36        0.016   0.028   2.792   2.836
   37        0.016   0.032   2.720   2.768
   38        0.016   0.030   2.765   2.811
   39        0.014   0.029   2.751   2.795
   40        0.014   0.029   2.756   2.799
   41        0.002   0.005   0.000   0.007
   42        0.002   0.046   0.000   0.048
   43        0.002   0.028   0.000   0.029
   44        0.002   0.060   0.000   0.062
   45        0.003   0.019   0.000   0.021
   46        0.002   0.028   0.000   0.030
   47        0.001   0.030   0.000   0.031
   48        0.002   0.051   0.000   0.054
   49        0.002   0.026   0.000   0.028
   50        0.003   0.049   0.000   0.052
   51        0.002   0.019   0.000   0.021
   52        0.002   0.056   0.000   0.058
   53        0.002   0.045   0.000   0.047
   54        0.002   0.040   0.000   0.042
   55        0.002   0.027   0.000   0.029
   56        0.002   0.025   0.000   0.027
   57        0.002   0.035   0.000   0.036
   58        0.002   0.027   0.000   0.028
   59        0.002   0.031   0.000   0.034
   60        0.002   0.040   0.000   0.042
   61        0.002   0.054   0.000   0.056
   62        0.002   0.042   0.000   0.044
   63        0.002   0.019   0.000   0.021
   64        0.002   0.030   0.000   0.032
   65        0.002   0.054   0.000   0.057
   66        0.002   0.023   0.000   0.025
   67        0.002   0.039   0.000   0.041
   68        0.003   0.057   0.000   0.059
   69        0.002   0.043   0.000   0.045
   70        0.002   0.015   0.000   0.016
   71        0.002   0.026   0.000   0.028
   72        0.002   0.017   0.000   0.019
   73        0.001   0.022   0.000   0.024
   74        0.002   0.003   0.000   0.005
   75        0.002   0.034   0.000   0.037
   76        0.002   0.044   0.000   0.047
   77        0.002   0.048   0.000   0.050
   78        0.002   0.024   0.000   0.026
   79        0.002   0.043   0.000   0.045
   80        0.001  -0.000   0.000   0.001
   81        0.002   0.034   0.000   0.035
   82        0.002   0.023   0.000   0.025
   83        0.002   0.044   0.000   0.047
   84        0.001   0.004   0.000   0.006
   85        0.002   0.041   0.000   0.043
   86        0.002   0.034   0.000   0.036
   87        0.002   0.029   0.000   0.030
   88        0.002   0.045   0.000   0.047
--------------------------------------------------
tot          0.424   2.078  44.077  46.579
 

 total amount of memory used by VASP MPI-rank0    88180. kBytes
=======================================================================

   base      :      30000. kBytes
   nonlr-proj:      13671. kBytes
   fftplans  :        992. kBytes
   grid      :      21513. kBytes
   one-center:       2737. kBytes
   wavefun   :      19267. kBytes
 
  
  
 General timing and accounting informations for this job:
 ========================================================
  
                  Total CPU time used (sec):      687.245
                            User time (sec):      681.544
                          System time (sec):        5.701
                         Elapsed time (sec):      691.389
  
                   Maximum memory used (kb):      183840.
                   Average memory used (kb):           0.
  
                          Minor page faults:       315109
                          Major page faults:            0
                 Voluntary context switches:         3333
