 vasp.5.4.4.18Apr17-6-g9f103f2a35 (build Dec 02 2020 12:53:39) complex          
  
 executed on             LinuxIFC date 2021.08.03  19:20:53
 running on  112 total cores
 distrk:  each k-point on  112 cores,    1 groups
 distr:  one band on NCORES_PER_BAND=   1 cores,  112 groups


--------------------------------------------------------------------------------------------------------


 INCAR:
 POTCAR:    PAW_PBE Na_pv 19Sep2006               
 POTCAR:    PAW_PBE Mg_pv 13Apr2007               
 POTCAR:    PAW_PBE Mn_pv 02Aug2007               
 POTCAR:    PAW_PBE O 08Apr2002                   

 ----------------------------------------------------------------------------- 
|                                                                             |
|           W    W    AA    RRRRR   N    N  II  N    N   GGGG   !!!           |
|           W    W   A  A   R    R  NN   N  II  NN   N  G    G  !!!           |
|           W    W  A    A  R    R  N N  N  II  N N  N  G       !!!           |
|           W WW W  AAAAAA  RRRRR   N  N N  II  N  N N  G  GGG   !            |
|           WW  WW  A    A  R   R   N   NN  II  N   NN  G    G                |
|           W    W  A    A  R    R  N    N  II  N    N   GGGG   !!!           |
|                                                                             |
|      For optimal performance we recommend to set                            |
|        NCORE= 4 - approx SQRT( number of cores)                             |
|      NCORE specifies how many cores store one orbital (NPAR=cpu/NCORE).     |
|      This setting can  greatly improve the performance of VASP for DFT.     |
|      The default,   NCORE=1            might be grossly inefficient         |
|      on modern multi-core architectures or massively parallel machines.     |
|      Do your own testing !!!!                                               |
|      Unfortunately you need to use the default for GW and RPA calculations. |
|      (for HF NCORE is supported but not extensively tested yet)             |
|                                                                             |
 ----------------------------------------------------------------------------- 

 POTCAR:    PAW_PBE Na_pv 19Sep2006               
   VRHFIN =Na: p6s1                                                             
   LEXCH  = PE                                                                  
   EATOM  =   766.0439 eV,   56.3026 Ry                                         
                                                                                
   TITEL  = PAW_PBE Na_pv 19Sep2006                                             
   LULTRA =        F    use ultrasoft PP ?                                      
   IUNSCR =        1    unscreen: 0-lin 1-nonlin 2-no                           
   RPACOR =    1.800    partial core radius                                     
   POMASS =   22.990; ZVAL   =    7.000    mass and valenz                      
   RCORE  =    2.200    outmost cutoff radius                                   
   RWIGS  =    2.200; RWIGS  =    1.164    wigner-seitz radius (au A)           
   ENMAX  =  259.561; ENMIN  =  194.671 eV                                      
   ICORE  =        2    local potential                                         
   LCOR   =        T    correct aug charges                                     
   LPAW   =        T    paw PP                                                  
   EAUG   =  368.056                                                            
   DEXC   =    0.000                                                            
   RMAX   =    2.245    core radius for proj-oper                               
   RAUG   =    1.300    factor for augmentation sphere                          
   RDEP   =    2.259    radius for radial grids                                 
   RDEPT  =    1.738    core radius for aug-charge                              
                                                                                
   Atomic configuration                                                         
    5 entries                                                                   
     n  l   j            E        occ.                                          
     1  0  0.50     -1033.6933   2.0000                                         
     2  0  0.50       -56.7526   2.0000                                         
     2  1  1.50       -28.6721   6.0000                                         
     3  0  0.50        -2.7440   1.0000                                         
     3  2  1.50        -1.3606   0.0000                                         
   Description                                                                  
     l       E           TYP  RCUT    TYP  RCUT                                 
     1    -28.6720912     23  2.000                                             
     1      6.8029130     23  2.000                                             
     0     -2.7439560     23  2.200                                             
     0     34.0145650     23  2.200                                             
     2     -1.3605826     23  2.200                                             
  local pseudopotential read in
  partial core-charges read in
  partial kinetic energy density read in
  atomic valenz-charges read in
  non local Contribution for L=           1  read in
    real space projection operators read in
  non local Contribution for L=           1  read in
    real space projection operators read in
  non local Contribution for L=           0  read in
    real space projection operators read in
  non local Contribution for L=           0  read in
    real space projection operators read in
    PAW grid and wavefunctions read in
 
   number of l-projection  operators is LMAX  =           4
   number of lm-projection operators is LMMAX =           8
 
 POTCAR:    PAW_PBE Mg_pv 13Apr2007               
   VRHFIN =Mg: p6s2                                                             
   LEXCH  = PE                                                                  
   EATOM  =  1056.7344 eV,   77.6678 Ry                                         
                                                                                
   TITEL  = PAW_PBE Mg_pv 13Apr2007                                             
   LULTRA =        F    use ultrasoft PP ?                                      
   IUNSCR =        1    unscreen: 0-lin 1-nonlin 2-no                           
   RPACOR =    1.500    partial core radius                                     
   POMASS =   24.305; ZVAL   =    8.000    mass and valenz                      
   RCORE  =    2.000    outmost cutoff radius                                   
   RWIGS  =    2.000; RWIGS  =    1.058    wigner-seitz radius (au A)           
   ENMAX  =  403.929; ENMIN  =  302.947 eV                                      
   RCLOC  =    1.506    cutoff for local pot                                    
   LCOR   =        T    correct aug charges                                     
   LPAW   =        T    paw PP                                                  
   EAUG   =  758.780                                                            
   DEXC   =    0.000                                                            
   RMAX   =    2.045    core radius for proj-oper                               
   RAUG   =    1.300    factor for augmentation sphere                          
   RDEP   =    2.025    radius for radial grids                                 
   RDEPT  =    1.557    core radius for aug-charge                              
                                                                                
   Atomic configuration                                                         
    5 entries                                                                   
     n  l   j            E        occ.                                          
     1  0  0.50     -1259.6230   2.0000                                         
     2  0  0.50       -79.8442   2.0000                                         
     2  1  1.50       -46.6121   6.0000                                         
     3  0  0.50        -4.7055   2.0000                                         
     3  2  1.50        -1.3606   0.0000                                         
   Description                                                                  
     l       E           TYP  RCUT    TYP  RCUT                                 
     1    -46.6121073     23  1.600                                             
     1      2.7211652     23  1.600                                             
     0     -4.7054661     23  2.000                                             
     0     61.2262170     23  2.000                                             
     2     -1.3605826     23  2.000                                             
  local pseudopotential read in
  partial core-charges read in
  partial kinetic energy density read in
  atomic valenz-charges read in
  non local Contribution for L=           1  read in
    real space projection operators read in
  non local Contribution for L=           1  read in
    real space projection operators read in
  non local Contribution for L=           0  read in
    real space projection operators read in
  non local Contribution for L=           0  read in
    real space projection operators read in
  non local Contribution for L=           2  read in
    real space projection operators read in
    PAW grid and wavefunctions read in
 
   number of l-projection  operators is LMAX  =           5
   number of lm-projection operators is LMMAX =          13
 
 POTCAR:    PAW_PBE Mn_pv 02Aug2007               
   VRHFIN =Mn: 3p4s3d                                                           
   LEXCH  = PE                                                                  
   EATOM  =  2025.2664 eV,  148.8529 Ry                                         
                                                                                
   TITEL  = PAW_PBE Mn_pv 02Aug2007                                             
   LULTRA =        F    use ultrasoft PP ?                                      
   IUNSCR =        1    unscreen: 0-lin 1-nonlin 2-no                           
   RPACOR =    2.080    partial core radius                                     
   POMASS =   54.938; ZVAL   =   13.000    mass and valenz                      
   RCORE  =    2.300    outmost cutoff radius                                   
   RWIGS  =    2.500; RWIGS  =    1.323    wigner-seitz radius (au A)           
   ENMAX  =  269.864; ENMIN  =  202.398 eV                                      
   ICORE  =        3    local potential                                         
   LCOR   =        T    correct aug charges                                     
   LPAW   =        T    paw PP                                                  
   EAUG   =  569.085                                                            
   DEXC   =    0.000                                                            
   RMAX   =    2.343    core radius for proj-oper                               
   RAUG   =    1.300    factor for augmentation sphere                          
   RDEP   =    2.338    radius for radial grids                                 
   RDEPT  =    1.798    core radius for aug-charge                              
                                                                                
   Atomic configuration                                                         
    8 entries                                                                   
     n  l   j            E        occ.                                          
     1  0  0.50     -6424.8287   2.0000                                         
     2  0  0.50      -739.1154   2.0000                                         
     2  1  1.50      -625.3949   6.0000                                         
     3  0  0.50       -81.6100   2.0000                                         
     3  1  1.50       -50.4667   6.0000                                         
     3  2  2.50        -3.3745   6.0000                                         
     4  0  0.50        -4.1331   1.0000                                         
     4  3  2.50        -1.3606   0.0000                                         
   Description                                                                  
     l       E           TYP  RCUT    TYP  RCUT                                 
     1    -50.4666628     23  2.000                                             
     1     -1.3605826     23  2.000                                             
     2     -3.3744729     23  2.300                                             
     2     -4.7350555     23  2.300                                             
     0     -4.1331431     23  2.300                                             
     0      7.6656591     23  2.300                                             
     3      9.5240782     23  2.300                                             
  local pseudopotential read in
  partial core-charges read in
  partial kinetic energy density read in
  atomic valenz-charges read in
  non local Contribution for L=           1  read in
    real space projection operators read in
  non local Contribution for L=           1  read in
    real space projection operators read in
  non local Contribution for L=           2  read in
    real space projection operators read in
  non local Contribution for L=           2  read in
    real space projection operators read in
  non local Contribution for L=           0  read in
    real space projection operators read in
  non local Contribution for L=           0  read in
    real space projection operators read in
    PAW grid and wavefunctions read in
 
   number of l-projection  operators is LMAX  =           6
   number of lm-projection operators is LMMAX =          18
 
 POTCAR:    PAW_PBE O 08Apr2002                   
   VRHFIN =O: s2p4                                                              
   LEXCH  = PE                                                                  
   EATOM  =   432.3788 eV,   31.7789 Ry                                         
                                                                                
   TITEL  = PAW_PBE O 08Apr2002                                                 
   LULTRA =        F    use ultrasoft PP ?                                      
   IUNSCR =        1    unscreen: 0-lin 1-nonlin 2-no                           
   RPACOR =    1.200    partial core radius                                     
   POMASS =   16.000; ZVAL   =    6.000    mass and valenz                      
   RCORE  =    1.520    outmost cutoff radius                                   
   RWIGS  =    1.550; RWIGS  =    0.820    wigner-seitz radius (au A)           
   ENMAX  =  400.000; ENMIN  =  300.000 eV                                      
   ICORE  =        2    local potential                                         
   LCOR   =        T    correct aug charges                                     
   LPAW   =        T    paw PP                                                  
   EAUG   =  605.392                                                            
   DEXC   =    0.000                                                            
   RMAX   =    1.553    core radius for proj-oper                               
   RAUG   =    1.300    factor for augmentation sphere                          
   RDEP   =    1.550    radius for radial grids                                 
   RDEPT  =    1.329    core radius for aug-charge                              
                                                                                
   Atomic configuration                                                         
    4 entries                                                                   
     n  l   j            E        occ.                                          
     1  0  0.50      -514.6923   2.0000                                         
     2  0  0.50       -23.9615   2.0000                                         
     2  1  0.50        -9.0305   4.0000                                         
     3  2  1.50        -9.5241   0.0000                                         
   Description                                                                  
     l       E           TYP  RCUT    TYP  RCUT                                 
     0    -23.9615318     23  1.200                                             
     0     -9.5240782     23  1.200                                             
     1     -9.0304911     23  1.520                                             
     1      8.1634956     23  1.520                                             
     2     -9.5240782      7  1.500                                             
  local pseudopotential read in
  partial core-charges read in
  partial kinetic energy density read in
  kinetic energy density of atom read in
  atomic valenz-charges read in
  non local Contribution for L=           0  read in
    real space projection operators read in
  non local Contribution for L=           0  read in
    real space projection operators read in
  non local Contribution for L=           1  read in
    real space projection operators read in
  non local Contribution for L=           1  read in
    real space projection operators read in
    PAW grid and wavefunctions read in
 
   number of l-projection  operators is LMAX  =           4
   number of lm-projection operators is LMMAX =           8
 
 Optimization of the real space projectors (new method)

 maximal supplied QI-value         = 17.01
 optimisation between [QCUT,QGAM] = [ 10.20, 20.41] = [ 29.16,116.64] Ry 
 Optimized for a Real-space Cutoff    1.30 Angstroem

   l    n(q)    QCUT    max X(q) W(low)/X(q) W(high)/X(q)  e(spline) 
   1      7    10.205     4.940    0.23E-03    0.84E-03    0.11E-06
   1      7    10.205     6.253    0.40E-03    0.13E-02    0.18E-06
   0      8    10.205    37.438    0.23E-03    0.37E-03    0.42E-07
   0      8    10.205     9.606    0.16E-03    0.26E-03    0.31E-07
 Optimization of the real space projectors (new method)

 maximal supplied QI-value         = 18.90
 optimisation between [QCUT,QGAM] = [ 10.20, 20.41] = [ 29.16,116.64] Ry 
 Optimized for a Real-space Cutoff    1.26 Angstroem

   l    n(q)    QCUT    max X(q) W(low)/X(q) W(high)/X(q)  e(spline) 
   1      7    10.205     2.974    0.63E-04    0.14E-03    0.13E-06
   1      7    10.205     4.279    0.11E-03    0.45E-03    0.24E-06
   0      8    10.205    16.381    0.44E-03    0.15E-03    0.55E-07
   0      8    10.205     5.611    0.31E-03    0.11E-03    0.40E-07
   2      7    10.205     4.652    0.50E-03    0.47E-03    0.57E-07
 Optimization of the real space projectors (new method)

 maximal supplied QI-value         = 16.25
 optimisation between [QCUT,QGAM] = [ 10.24, 20.48] = [ 29.35,117.42] Ry 
 Optimized for a Real-space Cutoff    1.34 Angstroem

   l    n(q)    QCUT    max X(q) W(low)/X(q) W(high)/X(q)  e(spline) 
   1      8    10.239     3.658    0.23E-03    0.30E-03    0.98E-07
   1      8    10.239     5.612    0.32E-03    0.65E-03    0.21E-06
   2      7    10.239    55.373    0.42E-03    0.45E-03    0.65E-07
   2      7    10.239    50.863    0.43E-03    0.48E-03    0.67E-07
   0      8    10.239    79.536    0.11E-03    0.21E-03    0.56E-07
   0      8    10.239    38.668    0.96E-04    0.19E-03    0.52E-07
 Optimization of the real space projectors (new method)

 maximal supplied QI-value         = 24.76
 optimisation between [QCUT,QGAM] = [ 10.15, 20.30] = [ 28.85,115.39] Ry 
 Optimized for a Real-space Cutoff    1.38 Angstroem

   l    n(q)    QCUT    max X(q) W(low)/X(q) W(high)/X(q)  e(spline) 
   0      8    10.150    20.381    0.22E-03    0.32E-03    0.29E-06
   0      8    10.150    15.268    0.23E-03    0.35E-03    0.30E-06
   1      8    10.150     5.964    0.46E-03    0.53E-03    0.21E-06
   1      8    10.150     5.382    0.38E-03    0.45E-03    0.19E-06
  PAW_PBE Na_pv 19Sep2006               :
 energy of atom  1       EATOM= -766.0439
 kinetic energy error for atom=    0.0103 (will be added to EATOM!!)
  PAW_PBE Mg_pv 13Apr2007               :
 energy of atom  2       EATOM=-1056.7344
 kinetic energy error for atom=    0.0820 (will be added to EATOM!!)
  PAW_PBE Mn_pv 02Aug2007               :
 energy of atom  3       EATOM=-2025.2664
 kinetic energy error for atom=    0.0284 (will be added to EATOM!!)
  PAW_PBE O 08Apr2002                   :
 energy of atom  4       EATOM= -432.3788
 kinetic energy error for atom=    0.1156 (will be added to EATOM!!)
 
 
 POSCAR: Na Mg Mn  O                             
  positions in cartesian coordinates
  No initial velocities read in

 METAGGA = SCAN     LMAXTAU =  6    LMIXTAU =  F

 exchange correlation table for  LEXCH =        8
   RHO(1)=    0.500       N(1)  =     2000
   RHO(2)=  100.500       N(2)  =     4000

 VTST: version 3.2, (02/03/18)

 CHAIN: initializing optimizer
 
 OPT: Using VASP Dynamics algorithm
 CHAIN: Read ICHAIN            0
 
 POSCAR: Na Mg Mn  O                             
  positions in cartesian coordinates
  No initial velocities read in
 


--------------------------------------------------------------------------------------------------------


 ion  position               nearest neighbor table
   1  0.725  0.078  0.246-  54 2.22  63 2.27  53 2.29
   2  0.506  0.577  0.754-  85 2.21  82 2.26  33 2.83  35 2.86
   3  0.011  0.860  0.763-  73 2.19  70 2.28
   4  0.241  0.727  0.737-  81 2.19  80 2.24
   5  0.907  0.450  0.245-  66 2.23  55 2.25  64 2.25  75 2.30  37 2.90
   6  0.326  0.866  0.256-  86 2.29
   7  0.803  0.033  0.742-  69 2.15  56 2.28  59 2.35
   8  0.214  0.221  0.761-  48 2.20  47 2.25  44 2.37  26 2.97
   9  0.512  0.703  0.249-  74 2.26  78 2.27  87 2.33  65 2.34
  10  0.499  0.247  0.250-  43 2.24  52 2.33
  11  0.158  0.053  0.250-  76 2.32  41 2.32
  12  0.013  0.380  0.749-  58 2.32
  13  0.766  0.471  0.741-  57 2.16  68 2.29  60 2.30  28 2.91
  14  0.487  0.080  0.743-  49 2.16  46 2.24  81 2.35  31 2.87
  15  0.848  0.726  0.244-  67 2.26  34 2.79
  16  0.189  0.392  0.236-  78 2.25  32 2.98
  17  0.655  0.375  0.001-  43 1.91  49 1.92  66 2.04  71 2.07  53 2.12  60 2.20  26 2.68  33 2.78

  18  0.353  0.236  0.509-  46 1.92  45 2.06  52 2.07  51 2.12  44 2.12  50 2.16  35 2.75  28 2.85

  19  0.176  0.379  0.998-  83 1.99  41 2.00  61 2.04  55 2.08  48 2.11  78 2.11  37 2.85
  20  0.843  0.222  0.498-  58 1.96  63 2.01  57 2.05  62 2.08  56 2.12  64 2.14  31 2.83
  21  0.170  0.878  0.005-  67 2.01  47 2.03  84 2.08  73 2.11  42 2.12  77 2.12  25 2.80  26 2.85

  22  0.845  0.726  0.507-  68 1.95  70 2.07  76 2.08  75 2.09  74 2.13  69 2.13
  23  0.675  0.878  0.993-  85 1.94  72 1.97  59 1.97  65 1.99  79 2.14  54 2.15  34 2.81  33 2.82
                            29 2.83
  24  0.345  0.718  0.494-  87 2.00  80 2.04  86 2.05  82 2.10  81 2.10  88 2.20  39 2.83  32 2.85

  25  0.011  0.041  0.006-  67 1.84  54 1.91  41 1.93  72 1.94  61 2.01  47 2.01  21 2.80  34 2.90
                            26 2.92  30 2.98
  26  0.347  0.205  0.994-  47 1.82  42 1.91  48 1.92  49 1.95  41 1.99  43 2.02  17 2.68  21 2.85
                            29 2.86  25 2.92   8 2.97  33 3.02
  27  0.009  0.058  0.504-  76 1.86  44 1.87  58 1.94  63 1.97  69 1.97  50 2.01  40 2.86  32 2.88
                            36 2.92
  28  0.681  0.392  0.492-  75 1.89  68 1.89  52 1.92  46 1.92  57 1.95  62 1.97  18 2.85  35 2.87
                            31 2.91  13 2.91  39 2.94
  29  0.513  0.042  0.006-  84 1.88  59 1.89  49 1.91  79 1.93  42 1.95  53 1.98  30 2.81  23 2.83
                            26 2.86  38 2.89
  30  0.837  0.211  0.995-  53 1.86  55 1.90  59 1.91  61 1.91  54 1.94  60 2.01  37 2.81  29 2.81
                            25 2.98
  31  0.517  0.056  0.490-  56 1.86  62 1.91  88 1.92  46 1.95  81 2.01  51 2.03  20 2.83  40 2.86
                            14 2.87  36 2.87  28 2.91
  32  0.173  0.390  0.502-  50 1.80  80 1.93  45 1.95  64 1.95  58 1.99  87 2.04  39 2.81  24 2.85
                            27 2.88  35 2.94  16 2.98
  33  0.514  0.554  0.005-  85 1.82  65 1.85  71 1.87  43 1.89  78 1.96  48 2.03  34 2.73  17 2.78
                            23 2.82   2 2.83  38 2.89  26 3.02
  34  0.829  0.708  0.996-  71 1.86  65 1.93  73 1.96  72 1.97  66 2.01  67 2.03  33 2.73  15 2.79
                            23 2.81  25 2.90  37 3.03
  35  0.512  0.553  0.501-  52 1.84  68 1.91  45 1.92  87 1.93  82 1.94  74 1.95  18 2.75   2 2.86
                            28 2.87  40 2.93  32 2.94
  36  0.186  0.899  0.509-  81 1.89  70 1.91  44 1.95  86 1.96  51 1.98  76 2.01  31 2.87  27 2.92
                            39 2.95
  37  0.004  0.535  1.000-  55 1.86  83 1.87  60 1.90  77 1.97  66 1.97  73 2.02  30 2.81  19 2.85
                            38 2.89   5 2.90  34 3.03
  38  0.336  0.708  0.011-  77 1.86  78 1.88  84 1.91  83 1.93  79 1.94  85 2.02  37 2.89  33 2.89
                            29 2.89
  39  0.019  0.560  0.495-  86 1.86  80 1.88  64 1.92  57 1.95  75 1.98  70 2.06  32 2.81  24 2.83
                            28 2.94  36 2.95
  40  0.680  0.891  0.501-  63 1.88  69 1.91  56 1.94  82 1.94  74 1.96  88 2.00  27 2.86  31 2.86
                            35 2.93
  41  0.181  0.209  0.089-  25 1.93  26 1.99  19 2.00  11 2.32
  42  0.357  0.060  0.097-  26 1.91  29 1.95  21 2.12
  43  0.500  0.386  0.093-  33 1.89  17 1.91  26 2.02  10 2.24
  44  0.162  0.053  0.597-  27 1.87  36 1.95  18 2.12   8 2.37
  45  0.344  0.411  0.599-  35 1.92  32 1.95  18 2.06
  46  0.521  0.224  0.581-  18 1.92  28 1.92  31 1.95  14 2.24
  47  0.187  0.057  0.909-  26 1.82  25 2.01  21 2.03   8 2.25
  48  0.356  0.375  0.906-  26 1.92  33 2.03  19 2.11   8 2.20
  49  0.514  0.199  0.909-  29 1.91  17 1.92  26 1.95  14 2.16
  50  0.169  0.239  0.411-  32 1.80  27 2.01  18 2.16
  51  0.341  0.057  0.401-  36 1.98  31 2.03  18 2.12
  52  0.524  0.410  0.407-  35 1.84  28 1.92  18 2.07  10 2.33
  53  0.687  0.209  0.095-  30 1.86  29 1.98  17 2.12   1 2.29
  54  0.858  0.063  0.093-  25 1.91  30 1.94  23 2.15   1 2.22
  55  0.991  0.372  0.088-  37 1.86  30 1.90  19 2.08   5 2.25
  56  0.656  0.042  0.591-  31 1.86  40 1.94  20 2.12   7 2.28
  57  0.848  0.402  0.588-  39 1.95  28 1.95  20 2.05  13 2.16
  58  0.005  0.221  0.595-  27 1.94  20 1.96  32 1.99  12 2.32
  59  0.670  0.049  0.909-  29 1.89  30 1.91  23 1.97   7 2.35
  60  0.848  0.386  0.900-  37 1.90  30 2.01  17 2.20  13 2.30
  61  0.997  0.202  0.909-  30 1.91  25 2.01  19 2.04
  62  0.669  0.222  0.396-  31 1.91  28 1.97  20 2.08
  63  0.839  0.046  0.409-  40 1.88  27 1.97  20 2.01   1 2.27
  64  0.024  0.405  0.398-  39 1.92  32 1.95  20 2.14   5 2.25
  65  0.670  0.711  0.092-  33 1.85  34 1.93  23 1.99   9 2.34
  66  0.840  0.544  0.090-  37 1.97  34 2.01  17 2.04   5 2.23
  67  0.997  0.881  0.094-  25 1.84  21 2.01  34 2.03  15 2.26
  68  0.675  0.548  0.584-  28 1.89  35 1.91  22 1.95  13 2.29
  69  0.839  0.905  0.604-  40 1.91  27 1.97  22 2.13   7 2.15
  70  0.028  0.734  0.599-  36 1.91  39 2.06  22 2.07   3 2.28
  71  0.668  0.558  0.906-  34 1.86  33 1.87  17 2.07
  72  0.849  0.886  0.907-  25 1.94  34 1.97  23 1.97
  73  0.991  0.700  0.905-  34 1.96  37 2.02  21 2.11   3 2.19
  74  0.665  0.722  0.404-  35 1.95  40 1.96  22 2.13   9 2.26
  75  0.844  0.551  0.406-  28 1.89  39 1.98  22 2.09   5 2.30
  76  0.021  0.909  0.414-  27 1.86  36 2.01  22 2.08  11 2.32
  77  0.172  0.694  0.097-  38 1.86  37 1.97  21 2.12
  78  0.352  0.557  0.100-  38 1.88  33 1.96  19 2.11  16 2.25   9 2.27
  79  0.499  0.876  0.102-  29 1.93  38 1.94  23 2.14
  80  0.168  0.551  0.593-  39 1.88  32 1.93  24 2.04   4 2.24
  81  0.348  0.897  0.594-  36 1.89  31 2.01  24 2.10   4 2.19  14 2.35
  82  0.524  0.722  0.594-  40 1.94  35 1.94  24 2.10   2 2.26
  83  0.173  0.553  0.915-  37 1.87  38 1.93  19 1.99
  84  0.354  0.878  0.920-  29 1.88  38 1.91  21 2.08
  85  0.504  0.700  0.917-  33 1.82  23 1.94  38 2.02   2 2.21
  86  0.168  0.728  0.411-  39 1.86  36 1.96  24 2.05   6 2.29
  87  0.352  0.550  0.403-  35 1.93  24 2.00  32 2.04   9 2.33
  88  0.531  0.907  0.392-  31 1.92  40 2.00  24 2.20
 
  LATTYP: Found a hexagonal cell.
 ALAT       =    10.0190000534
 C/A-ratio  =     1.1196726572
  
  Lattice vectors:
  
 A1 = (  10.0190000534,   0.0000000000,   0.0000000000)
 A2 = (  -5.0095000267,   8.6767085668,   0.0000000000)
 A3 = (   0.0000000000,   0.0000000000,  11.2180004120)


Analysis of symmetry for initial positions (statically):
=====================================================================
 Subroutine PRICEL returns:
 Original cell was already a primitive cell.
 

 Routine SETGRP: Setting up the symmetry group for a 
 hexagonal supercell.


 Subroutine GETGRP returns: Found  1 space group operations
 (whereof  1 operations were pure point group operations)
 out of a pool of 24 trial point group operations.


The static configuration has the point symmetry C_1 .


Analysis of symmetry for dynamics (positions and initial velocities):
=====================================================================
 Subroutine PRICEL returns:
 Original cell was already a primitive cell.
 

 Routine SETGRP: Setting up the symmetry group for a 
 hexagonal supercell.


 Subroutine GETGRP returns: Found  1 space group operations
 (whereof  1 operations were pure point group operations)
 out of a pool of 24 trial point group operations.


The dynamic configuration has the point symmetry C_1 .


Analysis of structural, dynamic, and magnetic symmetry:
=====================================================================
 Subroutine PRICEL returns:
 Original cell was already a primitive cell.
 

 Routine SETGRP: Setting up the symmetry group for a 
 hexagonal supercell.


 Subroutine GETGRP returns: Found  1 space group operations
 (whereof  1 operations were pure point group operations)
 out of a pool of 24 trial point group operations.


The magnetic configuration has the point symmetry C_1 .


 Subroutine INISYM returns: Found  1 space group operations
 (whereof  1 operations are pure point group operations),
 and found     1 'primitive' translations

 
 

Automatic generation of k-mesh.
 generate k-points for:    2    2    2
Space group operators:
 irot       det(A)        alpha          n_x          n_y          n_z        tau_x        tau_y        tau_z
    1     1.000000     0.000000     1.000000     0.000000     0.000000     0.000000     0.000000     0.000000
 
 Subroutine IBZKPT returns following result:
 ===========================================
 
 Found      8 irreducible k-points:
 
 Following reciprocal coordinates:
            Coordinates               Weight
  0.000000  0.000000  0.000000      1.000000
  0.500000 -0.000000 -0.000000      1.000000
  0.000000  0.500000  0.000000      1.000000
  0.500000  0.500000 -0.000000      1.000000
  0.000000  0.000000  0.500000      1.000000
  0.500000 -0.000000  0.500000      1.000000
  0.000000  0.500000  0.500000      1.000000
  0.500000  0.500000  0.500000      1.000000
 
 Following cartesian coordinates:
            Coordinates               Weight
  0.000000  0.000000  0.000000      1.000000
  0.049905  0.028813 -0.000000      1.000000
  0.000000  0.057626  0.000000      1.000000
  0.049905  0.086438 -0.000000      1.000000
  0.000000  0.000000  0.044571      1.000000
  0.049905  0.028813  0.044571      1.000000
  0.000000  0.057626  0.044571      1.000000
  0.049905  0.086438  0.044571      1.000000
 


--------------------------------------------------------------------------------------------------------




 Dimension of arrays:
   k-points           NKPTS =      8   k-points in BZ     NKDIM =      8   number of bands    NBANDS=    448
   number of dos      NEDOS =    301   number of ions     NIONS =     88
   non local maximal  LDIM  =      6   non local SUM 2l+1 LMDIM =     18
   total plane-waves  NPLWV = 140000
   max r-space proj   IRMAX =   1632   max aug-charges    IRDMAX=   4555
   dimension x,y,z NGX =    50 NGY =   50 NGZ =   56
   dimension x,y,z NGXF=   100 NGYF=  100 NGZF=  112
   support grid    NGXF=   100 NGYF=  100 NGZF=  112
   ions per type =              16   8  16  48
   NGX,Y,Z   is equivalent  to a cutoff of   8.30,  8.30,  8.30 a.u.
   NGXF,Y,Z  is equivalent  to a cutoff of  16.59, 16.59, 16.60 a.u.

 SYSTEM =  unknown system                          
 POSCAR =  Na Mg Mn  O                             

 Startparameter for this run:
   NWRITE =      2    write-flag & timer
   PREC   = normal    normal or accurate (medium, high low for compatibility)
   ISTART =      0    job   : 0-new  1-cont  2-samecut
   ICHARG =      1    charge: 1-file 2-atom 10-const
   ISPIN  =      2    spin polarized calculation?
   LNONCOLLINEAR =      F non collinear calculations
   LSORBIT =      F    spin-orbit coupling
   INIWAV =      1    electr: 0-lowe 1-rand  2-diag
   LASPH  =      T    aspherical Exc in radial PAW
   METAGGA=      F    non-selfconsistent MetaGGA calc.

 Electronic Relaxation 1
   ENCUT  =  400.0 eV  29.40 Ry    5.42 a.u.  16.34 16.34 18.29*2*pi/ulx,y,z
   ENINI  =  400.0     initial cutoff
   ENAUG  =  758.8 eV  augmentation charge cutoff
   NELM   =    200;   NELMIN=  6; NELMDL=-12     # of ELM steps 
   EDIFF  = 0.1E-04   stopping-criterion for ELM
   LREAL  =      T    real-space projection
   NLSPLINE    = F    spline interpolate recip. space projectors
   LCOMPAT=      F    compatible to vasp.4.4
   GGA_COMPAT  = T    GGA compatible to vasp.4.4-vasp.4.6
   LMAXPAW     = -100 max onsite density
   LMAXMIX     =    4 max onsite mixed and CHGCAR
   VOSKOWN=      0    Vosko Wilk Nusair interpolation
   ROPT   =   -0.00050  -0.00050  -0.00050  -0.00050
 Ionic relaxation
   EDIFFG = 0.1E-03   stopping-criterion for IOM
   NSW    =      1    number of steps for IOM
   NBLOCK =      1;   KBLOCK =      1    inner block; outer block 
   IBRION =     -1    ionic relax: 0-MD 1-quasi-New 2-CG
   NFREE  =      0    steps in history (QN), initial steepest desc. (CG)
   ISIF   =      2    stress and relaxation
   IWAVPR =     10    prediction:  0-non 1-charg 2-wave 3-comb
   ISYM   =      2    0-nonsym 1-usesym 2-fastsym
   LCORR  =      T    Harris-Foulkes like correction to forces

   POTIM  = 0.5000    time-step for ionic-motion
   TEIN   =    0.0    initial temperature
   TEBEG  =    0.0;   TEEND  =   0.0 temperature during run
   SMASS  =  -3.00    Nose mass-parameter (am)
   estimated Nose-frequenzy (Omega)   =  0.10E-29 period in steps =****** mass=  -0.229E-26a.u.
   SCALEE = 1.0000    scale energy and forces
   NPACO  =    256;   APACO  = 16.0  distance and # of slots for P.C.
   PSTRESS=    0.0 pullay stress

  Mass of Ions in am
   POMASS =  22.99 24.30 54.94 16.00
  Ionic Valenz
   ZVAL   =   7.00  8.00 13.00  6.00
  Atomic Wigner-Seitz radii
   RWIGS  =  -1.00 -1.00 -1.00 -1.00
  virtual crystal weights 
   VCA    =   1.00  1.00  1.00  1.00
   NELECT =     672.0000    total number of electrons
   NUPDOWN=      48.0000    fix difference up-down

 DOS related values:
   EMIN   =  10.00;   EMAX   =-10.00  energy-range for DOS
   EFERMI =   0.00
   ISMEAR =     0;   SIGMA  =   0.05  broadening in eV -4-tet -1-fermi 0-gaus

 Electronic relaxation 2 (details)
   IALGO  =     48    algorithm
   LDIAG  =      T    sub-space diagonalisation (order eigenvalues)
   LSUBROT=      F    optimize rotation matrix (better conditioning)
   TURBO    =      0    0=normal 1=particle mesh
   IRESTART =      0    0=no restart 2=restart with 2 vectors
   NREBOOT  =      0    no. of reboots
   NMIN     =      0    reboot dimension
   EREF     =   0.00    reference energy to select bands
   IMIX   =      4    mixing-type and parameters
     AMIX     =   0.40;   BMIX     =  1.00
     AMIX_MAG =   1.60;   BMIX_MAG =  1.00
     AMIN     =   0.10
     WC   =   100.;   INIMIX=   1;  MIXPRE=   1;  MAXMIX= -45

 Intra band minimization:
   WEIMIN = 0.0000     energy-eigenvalue tresh-hold
   EBREAK =  0.56E-08  absolut break condition
   DEPER  =   0.30     relativ break condition  

   TIME   =   0.40     timestep for ELM

  volume/ion in A,a.u.               =      11.08        74.78
  Fermi-wavevector in a.u.,A,eV,Ry     =   1.445993  2.732531 28.448379  2.090897
  Thomas-Fermi vector in A             =   2.564112
 
 Write flags
   LWAVE        =      F    write WAVECAR
   LDOWNSAMPLE  =      F    k-point downsampling of WAVECAR
   LCHARG       =      F    write CHGCAR
   LVTOT        =      F    write LOCPOT, total local potential
   LVHAR        =      F    write LOCPOT, Hartree potential only
   LELF         =      F    write electronic localiz. function (ELF)
   LORBIT       =     11    0 simple, 1 ext, 2 COOP (PROOUT), +10 PAW based schemes


 Dipole corrections
   LMONO  =      F    monopole corrections only (constant potential shift)
   LDIPOL =      F    correct potential (dipole corrections)
   IDIPOL =      0    1-x, 2-y, 3-z, 4-all directions 
   EPSILON=  1.0000000 bulk dielectric constant

 Exchange correlation treatment:
   GGA     =    --    GGA type
   LEXCH   =     8    internal setting for exchange type
   VOSKOWN=      0    Vosko Wilk Nusair interpolation
   LHFCALC =     F    Hartree Fock is set to
   LHFONE  =     F    Hartree Fock one center treatment
   AEXX    =    0.0000 exact exchange contribution

 Linear response parameters
   LEPSILON=     F    determine dielectric tensor
   LRPA    =     F    only Hartree local field effects (RPA)
   LNABLA  =     F    use nabla operator in PAW spheres
   LVEL    =     F    velocity operator in full k-point grid
   LINTERFAST=   F  fast interpolation
   KINTER  =     0    interpolate to denser k-point grid
   CSHIFT  =0.1000    complex shift for real part using Kramers Kronig
   OMEGAMAX=  -1.0    maximum frequency
   DEG_THRESHOLD= 0.2000000E-02 threshold for treating states as degnerate
   RTIME   =   -0.100 relaxation time in fs
  (WPLASMAI=    0.000 imaginary part of plasma frequency in eV, 0.658/RTIME)
   DFIELD  = 0.0000000 0.0000000 0.0000000 field for delta impulse in time
 
 Orbital magnetization related:
   ORBITALMAG=     F  switch on orbital magnetization
   LCHIMAG   =     F  perturbation theory with respect to B field
   DQ        =  0.001000  dq finite difference perturbation B field
   LLRAUG    =     F  two centre corrections for induced B field



--------------------------------------------------------------------------------------------------------


 Static calculation
 charge density and potential will be updated during run
 spin polarized calculation
 RMM-DIIS sequential band-by-band
 perform sub-space diagonalisation
    before iterative eigenvector-optimisation
 modified Broyden-mixing scheme, WC =      100.0
 initial mixing is a Kerker type mixing with AMIX =  0.4000 and BMIX =      1.0000
 Hartree-type preconditioning will be used
 using additional bands          112
 real space projection scheme for non local part
 use partial core corrections
 calculate Harris-corrections to forces 
   (improved forces if not selfconsistent)
 use gradient corrections 
 use of overlap-Matrix (Vanderbilt PP)
 Gauss-broadening in eV      SIGMA  =   0.05


--------------------------------------------------------------------------------------------------------


  energy-cutoff  :      400.00
  volume of cell :      975.20
      direct lattice vectors                 reciprocal lattice vectors
    10.019000053  0.000000000  0.000000000     0.099810360  0.057625538 -0.000000000
    -5.009500027  8.676708567  0.000000000     0.000000000  0.115251076  0.000000000
     0.000000000  0.000000000 11.218000412     0.000000000  0.000000000  0.089142446

  length of vectors
    10.019000053 10.019000053 11.218000412     0.115251076  0.115251076  0.089142446


 
 k-points in units of 2pi/SCALE and weight: read from INCAR                         
   0.00000000  0.00000000  0.00000000       0.125
   0.04990518  0.02881277 -0.00000000       0.125
   0.00000000  0.05762554  0.00000000       0.125
   0.04990518  0.08643831 -0.00000000       0.125
   0.00000000  0.00000000  0.04457122       0.125
   0.04990518  0.02881277  0.04457122       0.125
   0.00000000  0.05762554  0.04457122       0.125
   0.04990518  0.08643831  0.04457122       0.125
 
 k-points in reciprocal lattice and weights: read from INCAR                         
   0.00000000  0.00000000  0.00000000       0.125
   0.50000000 -0.00000000 -0.00000000       0.125
   0.00000000  0.50000000  0.00000000       0.125
   0.50000000  0.50000000 -0.00000000       0.125
   0.00000000  0.00000000  0.50000000       0.125
   0.50000000 -0.00000000  0.50000000       0.125
   0.00000000  0.50000000  0.50000000       0.125
   0.50000000  0.50000000  0.50000000       0.125
 
 position of ions in fractional coordinates (direct lattice) 
   0.72476582  0.07793771  0.24554733
   0.50553674  0.57703810  0.75423513
   0.01085484  0.85974141  0.76287838
   0.24072830  0.72742923  0.73735423
   0.90724403  0.45018025  0.24477892
   0.32603239  0.86637560  0.25615439
   0.80265132  0.03253093  0.74240682
   0.21392801  0.22126857  0.76132463
   0.51198992  0.70283004  0.24873060
   0.49915984  0.24677363  0.24984310
   0.15777203  0.05318854  0.24984132
   0.01260309  0.37992221  0.74900158
   0.76595930  0.47143354  0.74124618
   0.48687156  0.07970177  0.74276161
   0.84808007  0.72632282  0.24393920
   0.18890156  0.39181052  0.23647886
   0.65499845  0.37475386  0.00139213
   0.35315561  0.23583712  0.50885094
   0.17553793  0.37858480  0.99825277
   0.84301409  0.22189405  0.49757174
   0.16950094  0.87792392  0.00515641
   0.84498470  0.72567955  0.50685860
   0.67492633  0.87836648  0.99329258
   0.34488434  0.71783096  0.49437688
   0.01065035  0.04141449  0.00599816
   0.34714024  0.20534745  0.99371951
   0.00927083  0.05792404  0.50443660
   0.68052420  0.39173610  0.49244962
   0.51267660  0.04157008  0.00586155
   0.83664456  0.21095557  0.99478513
   0.51667539  0.05649481  0.49049829
   0.17302940  0.38971806  0.50171776
   0.51442515  0.55353939  0.00538511
   0.82864162  0.70830430  0.99622005
   0.51164916  0.55304381  0.50055623
   0.18646387  0.89900219  0.50870207
   0.00420311  0.53515339  0.99970837
   0.33639349  0.70847257  0.01097941
   0.01921249  0.55990817  0.49534140
   0.67993388  0.89058540  0.50123728
   0.18131707  0.20933860  0.08878231
   0.35699284  0.05960302  0.09710822
   0.49982677  0.38574996  0.09270904
   0.16191628  0.05298915  0.59704936
   0.34401907  0.41054738  0.59921642
   0.52060334  0.22410918  0.58128185
   0.18699538  0.05712881  0.90873593
   0.35638371  0.37467779  0.90574074
   0.51367606  0.19913772  0.90923512
   0.16850929  0.23875528  0.41149490
   0.34108214  0.05674057  0.40051523
   0.52436441  0.40968300  0.40679264
   0.68716329  0.20903664  0.09464254
   0.85781130  0.06305847  0.09254769
   0.99125180  0.37238084  0.08820306
   0.65599174  0.04213020  0.59117131
   0.84838044  0.40236225  0.58811105
   0.00458350  0.22085679  0.59527543
   0.67001215  0.04861198  0.90914598
   0.84785759  0.38618331  0.89999105
   0.99651662  0.20224374  0.90873593
   0.66871376  0.22176727  0.39618469
   0.83858919  0.04568223  0.40933231
   0.02442578  0.40477330  0.39787929
   0.67011943  0.71142761  0.09207880
   0.83979590  0.54366007  0.09013638
   0.99693364  0.88058853  0.09422267
   0.67493343  0.54797046  0.58375912
   0.83854110  0.90521077  0.60384380
   0.02757469  0.73383587  0.59898286
   0.66751291  0.55813791  0.90647171
   0.84944289  0.88642945  0.90684611
   0.99122821  0.70011686  0.90481366
   0.66462504  0.72152475  0.40352379
   0.84439371  0.55063391  0.40584773
   0.02123477  0.90867175  0.41432607
   0.17170701  0.69436123  0.09718042
   0.35169427  0.55730349  0.09978338
   0.49883191  0.87603611  0.10214476
   0.16822005  0.55133579  0.59251290
   0.34846349  0.89683316  0.59377427
   0.52360194  0.72174027  0.59436172
   0.17289357  0.55271996  0.91477087
   0.35409507  0.87801727  0.92025313
   0.50399144  0.70048913  0.91735600
   0.16789400  0.72831419  0.41120073
   0.35168951  0.55022362  0.40283293
   0.53075423  0.90708705  0.39238900
 
 position of ions in cartesian coordinates  (Angst):
   6.87099981  0.67624283  2.75455000
   2.17430024  5.00679143  8.46101000
  -4.19811997  7.45972570  8.55797000
  -1.23219987  6.31169143  8.27164000
   6.83449995  3.90608287  2.74593000
  -1.07359003  7.51728857  2.87354000
   7.87879987  0.28226143  8.32832000
   1.03489989  1.91988287  8.54054000
   1.60879995  6.09825140  2.79026000
   3.76487000  2.14118287  2.80274000
   1.31426997  0.46150143  2.80272000
  -1.77694997  3.29647430  8.40230000
   5.31249992  4.09049143  8.31530000
   4.47870021  0.69154900  8.33230000
   4.85840008  6.30209143  2.73651000
  -0.07017003  3.39962570  2.65282000
   4.68510000  3.25163000  0.01561690
   2.35684000  2.04629000  5.70829000
  -0.13780600  3.28487000 11.19840000
   7.33458000  1.92531000  5.58176000
  -2.69973000  7.61749000  0.05784460
   4.83061000  6.29651000  5.68594000
   2.36191000  7.62133000 11.14275661
  -0.14057800  6.22841000  5.54592000
  -0.10076003  0.35934143  0.06728740
   2.44931000  1.78174000 11.14754591
  -0.19728600  0.50259000  5.65877000
   4.85577000  3.39898000  5.52430000
   4.92826163  0.36069143  0.06575490
   7.32556000  1.83040000 11.15950000
   4.89356000  0.49018900  5.50241000
  -0.21871100  3.38147000  5.62827000
   2.38107000  4.80290000  0.06041020
   4.75391000  6.14575000 11.17559691
   2.35574000  4.79860000  5.61524000
  -2.63537000  7.80038000  5.70662000
  -2.63874000  4.64337000 11.21472887
  -0.17876700  6.14721000  0.12316700
  -2.61237000  4.85816000  5.55674000
   2.35087000  7.72735000  5.62288000
   0.76793400  1.81637000  0.99596000
   3.27813000  0.51715800  1.08936000
   3.07535000  3.34704000  1.04001000
   1.35679003  0.45977143  6.69770000
   1.39009000  3.56220000  6.72201000
   4.09325000  1.94453000  6.52082000
   1.58732000  0.49569000 10.19420000
   1.69366000  3.25097000 10.16060000
   4.14894000  1.72786000 10.19980000
   0.49225000  2.07161000  4.61615000
   3.13306003  0.49232143  4.49298000
   3.20130000  3.55470000  4.56340000
   5.83752000  1.81375000  1.06170000
   8.27852000  0.54714000  1.03820000
   8.06591000  3.23104000  0.98946200
   6.36133003  0.36555143  6.63176000
   6.48429000  3.49118000  6.59743000
  -1.06046000  1.91631000  6.67780000
   6.46933000  0.42179200 10.19880000
   6.56010000  3.35080000 10.09610000
   8.97096000  1.75481000 10.19420000
   5.58890000  1.92421000  4.44440000
   8.17298003  0.39637143  4.59189000
  -1.78299000  3.51210000  4.46341000
   3.15003000  6.17285000  1.03294000
   5.69045000  4.71718000  1.01115000
   5.57697000  7.64061000  1.05699000
   4.01710000  4.75458000  6.54861000
   3.86669000  7.85425000  6.77392000
  -3.39988000  6.36728000  6.71939000
   3.89182000  4.84280000 10.16880000
   4.07000000  7.69129000 10.17300000
   6.42388000  6.07471000 10.15020000
   3.04440000  6.26046000  4.52673000
   5.70158000  4.77769000  4.55280000
  -4.33924000  7.88428000  4.64791000
  -1.75807000  6.02477000  1.09017000
   0.73181300  4.83556000  1.11937000
   0.60929400  7.60111000  1.14586000
  -1.07652000  4.78378000  6.64681000
  -1.00143000  7.78156000  6.66096000
   1.63041000  6.26233000  6.66755000
  -1.03663000  4.79579000 10.26190000
  -0.85074900  7.61830000 10.32340000
   1.54039000  6.07794000 10.29090000
  -1.96636000  6.31937000  4.61285000
   0.76723200  4.77413000  4.51898000
   0.77357400  7.87053000  4.40182000
 


--------------------------------------------------------------------------------------------------------


 k-point  1 :   0.0000 0.0000 0.0000  plane waves:   17725
 k-point  2 :   0.5000-0.0000-0.0000  plane waves:   17736
 k-point  3 :   0.0000 0.5000 0.0000  plane waves:   17736
 k-point  4 :   0.5000 0.5000-0.0000  plane waves:   17736
 k-point  5 :   0.0000 0.0000 0.5000  plane waves:   17676
 k-point  6 :   0.5000-0.0000 0.5000  plane waves:   17700
 k-point  7 :   0.0000 0.5000 0.5000  plane waves:   17700
 k-point  8 :   0.5000 0.5000 0.5000  plane waves:   17700

 maximum and minimum number of plane-waves per node :     17736    17676

 maximum number of plane-waves:     17736
 maximum index in each direction: 
   IXMAX=   16   IYMAX=   16   IZMAX=   18
   IXMIN=  -16   IYMIN=  -16   IZMIN=  -18


 serial   3D FFT for wavefunctions
 parallel 3D FFT for charge:
    minimum data exchange during FFTs selected (reduces bandwidth)


 total amount of memory used by VASP MPI-rank0    88173. kBytes
=======================================================================

   base      :      30000. kBytes
   nonlr-proj:      13664. kBytes
   fftplans  :        992. kBytes
   grid      :      21513. kBytes
   one-center:       2737. kBytes
   wavefun   :      19267. kBytes
 
     INWAV:  cpu time    0.0000: real time    0.0000
 Broyden mixing: mesh for mixing (old mesh)
   NGX = 33   NGY = 33   NGZ = 37
  (NGX  =100   NGY  =100   NGZ  =112)
  gives a total of  40293 points

 initial charge density was supplied:
 charge density of overlapping atoms calculated
 number of electron     672.0000000 magnetization      48.0000000
 keeping initial charge density in first step


--------------------------------------------------------------------------------------------------------


 Maximum index for non-local projection operator         1547
 Maximum index for augmentation-charges          286 (set IRDMAX)


--------------------------------------------------------------------------------------------------------


 First call to EWALD:  gamma=   0.179
 Maximum number of real-space cells 3x 3x 2
 Maximum number of reciprocal cells 3x 3x 3

    FEWALD:  cpu time    0.0025: real time    0.0030


--------------------------------------- Iteration      1(   1)  ---------------------------------------


    POTLOK:  cpu time    0.2029: real time    0.2048
    SETDIJ:  cpu time    3.1174: real time    3.1203
    EDDIAG:  cpu time    3.6950: real time    3.7013
  RMM-DIIS:  cpu time    6.5437: real time    6.6297
    ORTHCH:  cpu time    1.1652: real time    1.1680
       DOS:  cpu time    0.0019: real time    0.0021
    --------------------------------------------
      LOOP:  cpu time   14.7261: real time   14.8262

 eigenvalue-minimisations  :  7168
 total energy-change (2. order) : 0.1854382E+04  (-0.3583025E+05)
 number of electron     672.0000000 magnetization      48.0000000
 augmentation part      672.0000000 magnetization      48.0000000

 Free energy of the ion-electron system (eV)
  ---------------------------------------------------
  alpha Z        PSCENC =      2652.81237852
  Ewald energy   TEWEN  =    -42016.12726454
  -Hartree energ DENC   =    -25605.99056954
  -exchange      EXHF   =         0.00000000
  -V(xc)+E(xc)   XCENC  =      3605.45223857
  PAW double counting   =     55594.23204139   -59034.67079123
  entropy T*S    EENTRO =        -0.04595341
  eigenvalues    EBANDS =     -7203.47861161
  atomic energy  EATOM  =     73862.19814772
  Solvation  Ediel_sol  =         0.00000000
  ---------------------------------------------------
  free energy    TOTEN  =      1854.38161587 eV

  energy without entropy =     1854.42756928  energy(sigma->0) =     1854.40459257


--------------------------------------------------------------------------------------------------------




--------------------------------------- Iteration      1(   2)  ---------------------------------------


    EDDIAG:  cpu time    3.7499: real time    3.7564
  RMM-DIIS:  cpu time    6.6369: real time    6.6418
    ORTHCH:  cpu time    1.1348: real time    1.1379
       DOS:  cpu time    0.0014: real time    0.0014
    --------------------------------------------
      LOOP:  cpu time   11.5230: real time   11.5375

 eigenvalue-minimisations  :  7168
 total energy-change (2. order) :-0.2691565E+04  (-0.8655274E+04)
 number of electron     672.0000000 magnetization      48.0000000
 augmentation part      672.0000000 magnetization      48.0000000

 Free energy of the ion-electron system (eV)
  ---------------------------------------------------
  alpha Z        PSCENC =      2652.81237852
  Ewald energy   TEWEN  =    -42016.12726454
  -Hartree energ DENC   =    -25605.99056954
  -exchange      EXHF   =         0.00000000
  -V(xc)+E(xc)   XCENC  =      3605.45223857
  PAW double counting   =     55594.23204139   -59034.67079123
  entropy T*S    EENTRO =        -0.04842585
  eigenvalues    EBANDS =     -9895.04087437
  atomic energy  EATOM  =     73862.19814772
  Solvation  Ediel_sol  =         0.00000000
  ---------------------------------------------------
  free energy    TOTEN  =      -837.18311933 eV

  energy without entropy =     -837.13469348  energy(sigma->0) =     -837.15890640


--------------------------------------------------------------------------------------------------------




--------------------------------------- Iteration      1(   3)  ---------------------------------------


    EDDIAG:  cpu time    3.7311: real time    3.7350
  RMM-DIIS:  cpu time    6.6090: real time    6.6179
    ORTHCH:  cpu time    1.1417: real time    1.1445
       DOS:  cpu time    0.0016: real time    0.0016
    --------------------------------------------
      LOOP:  cpu time   11.4835: real time   11.4990

 eigenvalue-minimisations  :  7168
 total energy-change (2. order) : 0.2981392E+03  (-0.1558677E+04)
 number of electron     672.0000000 magnetization      48.0000000
 augmentation part      672.0000000 magnetization      48.0000000

 Free energy of the ion-electron system (eV)
  ---------------------------------------------------
  alpha Z        PSCENC =      2652.81237852
  Ewald energy   TEWEN  =    -42016.12726454
  -Hartree energ DENC   =    -25605.99056954
  -exchange      EXHF   =         0.00000000
  -V(xc)+E(xc)   XCENC  =      3605.45223857
  PAW double counting   =     55594.23204139   -59034.67079123
  entropy T*S    EENTRO =        -0.04858991
  eigenvalues    EBANDS =     -9596.90155668
  atomic energy  EATOM  =     73862.19814772
  Solvation  Ediel_sol  =         0.00000000
  ---------------------------------------------------
  free energy    TOTEN  =      -539.04396570 eV

  energy without entropy =     -538.99537579  energy(sigma->0) =     -539.01967075


--------------------------------------------------------------------------------------------------------




--------------------------------------- Iteration      1(   4)  ---------------------------------------


    EDDIAG:  cpu time    3.7233: real time    3.7279
  RMM-DIIS:  cpu time    6.5837: real time    6.6239
    ORTHCH:  cpu time    1.1429: real time    1.1456
       DOS:  cpu time    0.0012: real time    0.0012
    --------------------------------------------
      LOOP:  cpu time   11.4512: real time   11.4987

 eigenvalue-minimisations  :  7168
 total energy-change (2. order) :-0.5197425E+03  (-0.5047561E+03)
 number of electron     672.0000000 magnetization      48.0000000
 augmentation part      672.0000000 magnetization      48.0000000

 Free energy of the ion-electron system (eV)
  ---------------------------------------------------
  alpha Z        PSCENC =      2652.81237852
  Ewald energy   TEWEN  =    -42016.12726454
  -Hartree energ DENC   =    -25605.99056954
  -exchange      EXHF   =         0.00000000
  -V(xc)+E(xc)   XCENC  =      3605.45223857
  PAW double counting   =     55594.23204139   -59034.67079123
  entropy T*S    EENTRO =        -0.00190674
  eigenvalues    EBANDS =    -10116.69072789
  atomic energy  EATOM  =     73862.19814772
  Solvation  Ediel_sol  =         0.00000000
  ---------------------------------------------------
  free energy    TOTEN  =     -1058.78645374 eV

  energy without entropy =    -1058.78454700  energy(sigma->0) =    -1058.78550037


--------------------------------------------------------------------------------------------------------




--------------------------------------- Iteration      1(   5)  ---------------------------------------


    EDDIAG:  cpu time    3.7384: real time    3.7434
  RMM-DIIS:  cpu time    6.6352: real time    6.6413
    ORTHCH:  cpu time    1.1468: real time    1.1505
       DOS:  cpu time    0.0011: real time    0.0011
    --------------------------------------------
      LOOP:  cpu time   11.5215: real time   11.5363

 eigenvalue-minimisations  :  7168
 total energy-change (2. order) :-0.1473344E+03  (-0.2117175E+03)
 number of electron     672.0000000 magnetization      48.0000000
 augmentation part      672.0000000 magnetization      48.0000000

 Free energy of the ion-electron system (eV)
  ---------------------------------------------------
  alpha Z        PSCENC =      2652.81237852
  Ewald energy   TEWEN  =    -42016.12726454
  -Hartree energ DENC   =    -25605.99056954
  -exchange      EXHF   =         0.00000000
  -V(xc)+E(xc)   XCENC  =      3605.45223857
  PAW double counting   =     55594.23204139   -59034.67079123
  entropy T*S    EENTRO =        -0.00000000
  eigenvalues    EBANDS =    -10264.02704807
  atomic energy  EATOM  =     73862.19814772
  Solvation  Ediel_sol  =         0.00000000
  ---------------------------------------------------
  free energy    TOTEN  =     -1206.12086719 eV

  energy without entropy =    -1206.12086719  energy(sigma->0) =    -1206.12086719


--------------------------------------------------------------------------------------------------------




--------------------------------------- Iteration      1(   6)  ---------------------------------------


    EDDIAG:  cpu time    3.7176: real time    3.7216
  RMM-DIIS:  cpu time    6.6568: real time    6.6633
    ORTHCH:  cpu time    1.1370: real time    1.1395
       DOS:  cpu time    0.0014: real time    0.0014
    --------------------------------------------
      LOOP:  cpu time   11.5128: real time   11.5257

 eigenvalue-minimisations  :  7168
 total energy-change (2. order) :-0.2143728E+02  (-0.1145445E+03)
 number of electron     672.0000000 magnetization      48.0000000
 augmentation part      672.0000000 magnetization      48.0000000

 Free energy of the ion-electron system (eV)
  ---------------------------------------------------
  alpha Z        PSCENC =      2652.81237852
  Ewald energy   TEWEN  =    -42016.12726454
  -Hartree energ DENC   =    -25605.99056954
  -exchange      EXHF   =         0.00000000
  -V(xc)+E(xc)   XCENC  =      3605.45223857
  PAW double counting   =     55594.23204139   -59034.67079123
  entropy T*S    EENTRO =        -0.00000000
  eigenvalues    EBANDS =    -10285.46433139
  atomic energy  EATOM  =     73862.19814772
  Solvation  Ediel_sol  =         0.00000000
  ---------------------------------------------------
  free energy    TOTEN  =     -1227.55815050 eV

  energy without entropy =    -1227.55815050  energy(sigma->0) =    -1227.55815050


--------------------------------------------------------------------------------------------------------




--------------------------------------- Iteration      1(   7)  ---------------------------------------


    EDDIAG:  cpu time    3.8194: real time    3.8408
  RMM-DIIS:  cpu time    6.5941: real time    6.6119
    ORTHCH:  cpu time    1.1444: real time    1.1470
       DOS:  cpu time    0.0010: real time    0.0010
    --------------------------------------------
      LOOP:  cpu time   11.5589: real time   11.6008

 eigenvalue-minimisations  :  7168
 total energy-change (2. order) :-0.6680841E+01  (-0.7550434E+02)
 number of electron     672.0000000 magnetization      48.0000000
 augmentation part      672.0000000 magnetization      48.0000000

 Free energy of the ion-electron system (eV)
  ---------------------------------------------------
  alpha Z        PSCENC =      2652.81237852
  Ewald energy   TEWEN  =    -42016.12726454
  -Hartree energ DENC   =    -25605.99056954
  -exchange      EXHF   =         0.00000000
  -V(xc)+E(xc)   XCENC  =      3605.45223857
  PAW double counting   =     55594.23204139   -59034.67079123
  entropy T*S    EENTRO =        -0.00000000
  eigenvalues    EBANDS =    -10292.14517212
  atomic energy  EATOM  =     73862.19814772
  Solvation  Ediel_sol  =         0.00000000
  ---------------------------------------------------
  free energy    TOTEN  =     -1234.23899123 eV

  energy without entropy =    -1234.23899123  energy(sigma->0) =    -1234.23899123


--------------------------------------------------------------------------------------------------------




--------------------------------------- Iteration      1(   8)  ---------------------------------------


    EDDIAG:  cpu time    3.7472: real time    3.7521
  RMM-DIIS:  cpu time    6.6241: real time    6.6310
    ORTHCH:  cpu time    1.1438: real time    1.1462
       DOS:  cpu time    0.0010: real time    0.0010
    --------------------------------------------
      LOOP:  cpu time   11.5162: real time   11.5303

 eigenvalue-minimisations  :  7168
 total energy-change (2. order) : 0.4676197E+01  (-0.5214842E+02)
 number of electron     672.0000000 magnetization      48.0000000
 augmentation part      672.0000000 magnetization      48.0000000

 Free energy of the ion-electron system (eV)
  ---------------------------------------------------
  alpha Z        PSCENC =      2652.81237852
  Ewald energy   TEWEN  =    -42016.12726454
  -Hartree energ DENC   =    -25605.99056954
  -exchange      EXHF   =         0.00000000
  -V(xc)+E(xc)   XCENC  =      3605.45223857
  PAW double counting   =     55594.23204139   -59034.67079123
  entropy T*S    EENTRO =        -0.00000000
  eigenvalues    EBANDS =    -10287.46897554
  atomic energy  EATOM  =     73862.19814772
  Solvation  Ediel_sol  =         0.00000000
  ---------------------------------------------------
  free energy    TOTEN  =     -1229.56279466 eV

  energy without entropy =    -1229.56279466  energy(sigma->0) =    -1229.56279466


--------------------------------------------------------------------------------------------------------




--------------------------------------- Iteration      1(   9)  ---------------------------------------


    EDDIAG:  cpu time    3.7122: real time    3.7180
  RMM-DIIS:  cpu time   13.7987: real time   13.8322
    ORTHCH:  cpu time    1.1437: real time    1.1460
       DOS:  cpu time    0.0011: real time    0.0011
    --------------------------------------------
      LOOP:  cpu time   18.6557: real time   18.6973

 eigenvalue-minimisations  : 20261
 total energy-change (2. order) : 0.1781410E+02  (-0.2333041E+02)
 number of electron     672.0000000 magnetization      48.0000000
 augmentation part      672.0000000 magnetization      48.0000000

 Free energy of the ion-electron system (eV)
  ---------------------------------------------------
  alpha Z        PSCENC =      2652.81237852
  Ewald energy   TEWEN  =    -42016.12726454
  -Hartree energ DENC   =    -25605.99056954
  -exchange      EXHF   =         0.00000000
  -V(xc)+E(xc)   XCENC  =      3605.45223857
  PAW double counting   =     55594.23204139   -59034.67079123
  entropy T*S    EENTRO =        -0.00000000
  eigenvalues    EBANDS =    -10269.65487328
  atomic energy  EATOM  =     73862.19814772
  Solvation  Ediel_sol  =         0.00000000
  ---------------------------------------------------
  free energy    TOTEN  =     -1211.74869240 eV

  energy without entropy =    -1211.74869240  energy(sigma->0) =    -1211.74869240


--------------------------------------------------------------------------------------------------------




--------------------------------------- Iteration      1(  10)  ---------------------------------------


    EDDIAG:  cpu time    3.7885: real time    3.7935
  RMM-DIIS:  cpu time   15.7071: real time   15.7810
    ORTHCH:  cpu time    1.1724: real time    1.1749
       DOS:  cpu time    0.0011: real time    0.0011
    --------------------------------------------
      LOOP:  cpu time   20.6691: real time   20.7505

 eigenvalue-minimisations  : 20359
 total energy-change (2. order) :-0.3033302E+01  (-0.1023742E+01)
 number of electron     672.0000000 magnetization      48.0000000
 augmentation part      672.0000000 magnetization      48.0000000

 Free energy of the ion-electron system (eV)
  ---------------------------------------------------
  alpha Z        PSCENC =      2652.81237852
  Ewald energy   TEWEN  =    -42016.12726454
  -Hartree energ DENC   =    -25605.99056954
  -exchange      EXHF   =         0.00000000
  -V(xc)+E(xc)   XCENC  =      3605.45223857
  PAW double counting   =     55594.23204139   -59034.67079123
  entropy T*S    EENTRO =        -0.00000007
  eigenvalues    EBANDS =    -10272.68817514
  atomic energy  EATOM  =     73862.19814772
  Solvation  Ediel_sol  =         0.00000000
  ---------------------------------------------------
  free energy    TOTEN  =     -1214.78199431 eV

  energy without entropy =    -1214.78199425  energy(sigma->0) =    -1214.78199428


--------------------------------------------------------------------------------------------------------




--------------------------------------- Iteration      1(  11)  ---------------------------------------


    EDDIAG:  cpu time    3.7739: real time    3.7800
  RMM-DIIS:  cpu time   15.1538: real time   15.1675
    ORTHCH:  cpu time    1.1372: real time    1.1397
       DOS:  cpu time    0.0013: real time    0.0013
    --------------------------------------------
      LOOP:  cpu time   20.0663: real time   20.0885

 eigenvalue-minimisations  : 21658
 total energy-change (2. order) : 0.1042258E+00  (-0.9403386E-01)
 number of electron     672.0000000 magnetization      48.0000000
 augmentation part      672.0000000 magnetization      48.0000000

 Free energy of the ion-electron system (eV)
  ---------------------------------------------------
  alpha Z        PSCENC =      2652.81237852
  Ewald energy   TEWEN  =    -42016.12726454
  -Hartree energ DENC   =    -25605.99056954
  -exchange      EXHF   =         0.00000000
  -V(xc)+E(xc)   XCENC  =      3605.45223857
  PAW double counting   =     55594.23204139   -59034.67079123
  entropy T*S    EENTRO =        -0.00000007
  eigenvalues    EBANDS =    -10272.58394929
  atomic energy  EATOM  =     73862.19814772
  Solvation  Ediel_sol  =         0.00000000
  ---------------------------------------------------
  free energy    TOTEN  =     -1214.67776847 eV

  energy without entropy =    -1214.67776840  energy(sigma->0) =    -1214.67776844


--------------------------------------------------------------------------------------------------------




--------------------------------------- Iteration      1(  12)  ---------------------------------------


    EDDIAG:  cpu time    3.7089: real time    3.7138
  RMM-DIIS:  cpu time   15.9897: real time   16.0307
    ORTHCH:  cpu time    1.1719: real time    1.1750
       DOS:  cpu time    0.0011: real time    0.0011
    CHARGE:  cpu time    1.3530: real time    1.3542
    MIXING:  cpu time    0.0009: real time    0.0012
    --------------------------------------------
      LOOP:  cpu time   22.2255: real time   22.2760

 eigenvalue-minimisations  : 22854
 total energy-change (2. order) : 0.6493394E-02  (-0.6793309E-02)
 number of electron     672.0000173 magnetization      48.0000026
 augmentation part      238.9907020 magnetization      29.0235822

 Broyden mixing:
  rms(total) = 0.12449E+02    rms(broyden)= 0.12440E+02
  rms(prec ) = 0.14331E+02
  weight for this iteration     100.00

 Free energy of the ion-electron system (eV)
  ---------------------------------------------------
  alpha Z        PSCENC =      2652.81237852
  Ewald energy   TEWEN  =    -42016.12726454
  -Hartree energ DENC   =    -25605.99056954
  -exchange      EXHF   =         0.00000000
  -V(xc)+E(xc)   XCENC  =      3605.45223857
  PAW double counting   =     55594.23204139   -59034.67079123
  entropy T*S    EENTRO =        -0.00000007
  eigenvalues    EBANDS =    -10272.57745590
  atomic energy  EATOM  =     73862.19814772
  Solvation  Ediel_sol  =         0.00000000
  ---------------------------------------------------
  free energy    TOTEN  =     -1214.67127508 eV

  energy without entropy =    -1214.67127501  energy(sigma->0) =    -1214.67127504


--------------------------------------------------------------------------------------------------------




--------------------------------------- Iteration      1(  13)  ---------------------------------------


    POTLOK:  cpu time    0.1930: real time    0.1939
    SETDIJ:  cpu time    3.2925: real time    3.2948
    EDDIAG:  cpu time    3.7110: real time    3.7136
  RMM-DIIS:  cpu time   13.0327: real time   13.0667
    ORTHCH:  cpu time    1.1589: real time    1.1617
       DOS:  cpu time    0.0015: real time    0.0015
    CHARGE:  cpu time    1.3479: real time    1.3487
    MIXING:  cpu time    0.0012: real time    0.0014
    --------------------------------------------
      LOOP:  cpu time   22.7388: real time   22.7823

 eigenvalue-minimisations  : 17326
 total energy-change (2. order) : 0.2242794E+03  (-0.1390937E+03)
 number of electron     672.0000230 magnetization      48.0000031
 augmentation part      269.2878249 magnetization      26.4117672

 Broyden mixing:
  rms(total) = 0.14027E+02    rms(broyden)= 0.14024E+02
  rms(prec ) = 0.15797E+02
  weight for this iteration     100.00

 eigenvalues of (default mixing * dielectric matrix)
  average eigenvalue GAMMA=   0.3148
  0.3148

 Free energy of the ion-electron system (eV)
  ---------------------------------------------------
  alpha Z        PSCENC =      2652.81237852
  Ewald energy   TEWEN  =    -42016.12726454
  -Hartree energ DENC   =    -24929.32144313
  -exchange      EXHF   =         0.00000000
  -V(xc)+E(xc)   XCENC  =      3695.44113286
  PAW double counting   =     59806.17928995   -63231.19169391
  entropy T*S    EENTRO =        -0.09587715
  eigenvalues    EBANDS =    -10830.28657671
  atomic energy  EATOM  =     73862.19814772
  Solvation  Ediel_sol  =         0.00000000
  ---------------------------------------------------
  free energy    TOTEN  =      -990.39190639 eV

  energy without entropy =     -990.29602925  energy(sigma->0) =     -990.34396782


--------------------------------------------------------------------------------------------------------




--------------------------------------- Iteration      1(  14)  ---------------------------------------


    POTLOK:  cpu time    0.2009: real time    0.2018
    SETDIJ:  cpu time    3.2873: real time    3.2883
    EDDIAG:  cpu time    3.7401: real time    3.7454
  RMM-DIIS:  cpu time   13.5281: real time   13.5417
    ORTHCH:  cpu time    1.1503: real time    1.1531
       DOS:  cpu time    0.0010: real time    0.0010
    CHARGE:  cpu time    1.3283: real time    1.3632
    MIXING:  cpu time    0.0007: real time    0.0007
    --------------------------------------------
      LOOP:  cpu time   23.2365: real time   23.2953

 eigenvalue-minimisations  : 17781
 total energy-change (2. order) : 0.7598487E+02  (-0.1878275E+02)
 number of electron     672.0000186 magnetization      48.0000051
 augmentation part      246.5838717 magnetization      32.2031449

 Broyden mixing:
  rms(total) = 0.51896E+01    rms(broyden)= 0.51851E+01
  rms(prec ) = 0.56139E+01
  weight for this iteration     100.00

 eigenvalues of (default mixing * dielectric matrix)
  average eigenvalue GAMMA=   0.7247
  1.0914  0.3579

 Free energy of the ion-electron system (eV)
  ---------------------------------------------------
  alpha Z        PSCENC =      2652.81237852
  Ewald energy   TEWEN  =    -42016.12726454
  -Hartree energ DENC   =    -25540.54110481
  -exchange      EXHF   =         0.00000000
  -V(xc)+E(xc)   XCENC  =      3672.82492660
  PAW double counting   =     63194.99624056   -66676.97209845
  entropy T*S    EENTRO =        -0.00000000
  eigenvalues    EBANDS =    -10063.59826090
  atomic energy  EATOM  =     73862.19814772
  Solvation  Ediel_sol  =         0.00000000
  ---------------------------------------------------
  free energy    TOTEN  =      -914.40703529 eV

  energy without entropy =     -914.40703529  energy(sigma->0) =     -914.40703529


--------------------------------------------------------------------------------------------------------




--------------------------------------- Iteration      1(  15)  ---------------------------------------


    POTLOK:  cpu time    0.2017: real time    0.2032
    SETDIJ:  cpu time    3.2941: real time    3.2977
    EDDIAG:  cpu time    3.7739: real time    3.7781
  RMM-DIIS:  cpu time   13.6366: real time   13.6507
    ORTHCH:  cpu time    1.1450: real time    1.1479
       DOS:  cpu time    0.0012: real time    0.0012
    CHARGE:  cpu time    1.3522: real time    1.3543
    MIXING:  cpu time    0.0006: real time    0.0006
    --------------------------------------------
      LOOP:  cpu time   23.4053: real time   23.4336

 eigenvalue-minimisations  : 18400
 total energy-change (2. order) : 0.1364548E+02  (-0.2119440E+01)
 number of electron     672.0000192 magnetization      48.0000066
 augmentation part      249.7447902 magnetization      33.8451052

 Broyden mixing:
  rms(total) = 0.21160E+01    rms(broyden)= 0.21157E+01
  rms(prec ) = 0.21911E+01
  weight for this iteration     100.00

 eigenvalues of (default mixing * dielectric matrix)
  average eigenvalue GAMMA=   0.9489
  0.3811  0.7619  1.7035

 Free energy of the ion-electron system (eV)
  ---------------------------------------------------
  alpha Z        PSCENC =      2652.81237852
  Ewald energy   TEWEN  =    -42016.12726454
  -Hartree energ DENC   =    -25455.90904220
  -exchange      EXHF   =         0.00000000
  -V(xc)+E(xc)   XCENC  =      3705.70515118
  PAW double counting   =     67229.54688485   -70751.82161472
  entropy T*S    EENTRO =        -0.00000000
  eigenvalues    EBANDS =    -10127.16619669
  atomic energy  EATOM  =     73862.19814772
  Solvation  Ediel_sol  =         0.00000000
  ---------------------------------------------------
  free energy    TOTEN  =      -900.76155588 eV

  energy without entropy =     -900.76155588  energy(sigma->0) =     -900.76155588


--------------------------------------------------------------------------------------------------------




--------------------------------------- Iteration      1(  16)  ---------------------------------------


    POTLOK:  cpu time    0.2020: real time    0.2021
    SETDIJ:  cpu time    3.3316: real time    3.3327
    EDDIAG:  cpu time    3.7317: real time    3.7980
  RMM-DIIS:  cpu time   13.1500: real time   13.1631
    ORTHCH:  cpu time    1.1544: real time    1.1568
       DOS:  cpu time    0.0010: real time    0.0010
    CHARGE:  cpu time    1.3574: real time    1.3589
    MIXING:  cpu time    0.0009: real time    0.0009
    --------------------------------------------
      LOOP:  cpu time   22.9290: real time   23.0136

 eigenvalue-minimisations  : 17433
 total energy-change (2. order) :-0.1618075E+01  (-0.6839795E+00)
 number of electron     672.0000195 magnetization      48.0000071
 augmentation part      251.2200194 magnetization      33.9462329

 Broyden mixing:
  rms(total) = 0.14235E+01    rms(broyden)= 0.14229E+01
  rms(prec ) = 0.15185E+01
  weight for this iteration     100.00

 eigenvalues of (default mixing * dielectric matrix)
  average eigenvalue GAMMA=   0.9694
  2.0557  0.9056  0.3879  0.5282

 Free energy of the ion-electron system (eV)
  ---------------------------------------------------
  alpha Z        PSCENC =      2652.81237852
  Ewald energy   TEWEN  =    -42016.12726454
  -Hartree energ DENC   =    -25406.82929347
  -exchange      EXHF   =         0.00000000
  -V(xc)+E(xc)   XCENC  =      3706.80193512
  PAW double counting   =     70132.05495531   -73684.19683825
  entropy T*S    EENTRO =        -0.00000000
  eigenvalues    EBANDS =    -10149.09365092
  atomic energy  EATOM  =     73862.19814772
  Solvation  Ediel_sol  =         0.00000000
  ---------------------------------------------------
  free energy    TOTEN  =      -902.37963052 eV

  energy without entropy =     -902.37963052  energy(sigma->0) =     -902.37963052


--------------------------------------------------------------------------------------------------------




--------------------------------------- Iteration      1(  17)  ---------------------------------------


    POTLOK:  cpu time    0.2093: real time    0.2106
    SETDIJ:  cpu time    3.3349: real time    3.3370
    EDDIAG:  cpu time    3.7268: real time    3.7321
  RMM-DIIS:  cpu time   14.0003: real time   14.0404
    ORTHCH:  cpu time    1.1620: real time    1.1645
       DOS:  cpu time    0.0011: real time    0.0011
    CHARGE:  cpu time    1.3577: real time    1.3585
    MIXING:  cpu time    0.0015: real time    0.0015
    --------------------------------------------
      LOOP:  cpu time   23.7937: real time   23.8457

 eigenvalue-minimisations  : 18532
 total energy-change (2. order) : 0.1898159E+00  (-0.6915861E-01)
 number of electron     672.0000195 magnetization      48.0000075
 augmentation part      251.0972426 magnetization      33.9428764

 Broyden mixing:
  rms(total) = 0.76708E+00    rms(broyden)= 0.76697E+00
  rms(prec ) = 0.86547E+00
  weight for this iteration     100.00

 eigenvalues of (default mixing * dielectric matrix)
  average eigenvalue GAMMA=   0.9971
  2.2228  1.1246  0.3789  0.7008  0.5582

 Free energy of the ion-electron system (eV)
  ---------------------------------------------------
  alpha Z        PSCENC =      2652.81237852
  Ewald energy   TEWEN  =    -42016.12726454
  -Hartree energ DENC   =    -25400.58536073
  -exchange      EXHF   =         0.00000000
  -V(xc)+E(xc)   XCENC  =      3704.06134822
  PAW double counting   =     70963.31352113   -74523.65207882
  entropy T*S    EENTRO =        -0.00000000
  eigenvalues    EBANDS =    -10144.21050617
  atomic energy  EATOM  =     73862.19814772
  Solvation  Ediel_sol  =         0.00000000
  ---------------------------------------------------
  free energy    TOTEN  =      -902.18981466 eV

  energy without entropy =     -902.18981466  energy(sigma->0) =     -902.18981466


--------------------------------------------------------------------------------------------------------




--------------------------------------- Iteration      1(  18)  ---------------------------------------


    POTLOK:  cpu time    0.1937: real time    0.1942
    SETDIJ:  cpu time    3.3162: real time    3.3178
    EDDIAG:  cpu time    3.7374: real time    3.7420
  RMM-DIIS:  cpu time   13.1615: real time   13.1848
    ORTHCH:  cpu time    1.2200: real time    1.2228
       DOS:  cpu time    0.0012: real time    0.0012
    CHARGE:  cpu time    1.3524: real time    1.3559
    MIXING:  cpu time    0.0010: real time    0.0010
    --------------------------------------------
      LOOP:  cpu time   22.9834: real time   23.0196

 eigenvalue-minimisations  : 17554
 total energy-change (2. order) : 0.3978012E+00  (-0.7197567E-01)
 number of electron     672.0000194 magnetization      48.0000077
 augmentation part      250.5913434 magnetization      33.9050216

 Broyden mixing:
  rms(total) = 0.28303E+00    rms(broyden)= 0.28274E+00
  rms(prec ) = 0.29799E+00
  weight for this iteration     100.00

 eigenvalues of (default mixing * dielectric matrix)
  average eigenvalue GAMMA=   1.0189
  2.4699  1.3513  0.8576  0.3802  0.5856  0.4685

 Free energy of the ion-electron system (eV)
  ---------------------------------------------------
  alpha Z        PSCENC =      2652.81237852
[...]
   4      -0.777    -0.547     1.323     0.081     0.403    -0.131
   5      -0.937    -0.801     1.737     0.098    -0.387     0.202
   6      -0.833    -0.661     1.494     0.119    -0.455     0.284
   7      -0.654    -0.933     1.587     0.032    -0.161     0.492
   8      -0.739    -0.739     1.478     0.103     0.402    -0.254
   9      -0.858    -0.820     1.678    -0.110     0.429     0.314
  10      -0.769    -0.627     1.396    -0.147     0.450     0.250
  11      -0.672    -0.980     1.652     0.025     0.005    -0.373
  12      -0.867    -0.716     1.582    -0.092    -0.518    -0.242
  13      -0.569    -0.917     1.485     0.033     0.056     0.299
  14      -0.886    -0.994     1.880     0.034    -0.095     0.172
  15      -0.761    -0.658     1.419     0.005     0.077    -0.063
  16      -0.592    -0.586     1.177     0.016    -0.013    -0.143
  17       1.387     1.567    -2.954    -0.057    -0.049    -0.022
  18       1.597     1.296    -2.893     0.029    -0.115    -0.120
  19       1.432     1.464    -2.896    -0.153     0.018     0.080
  20       1.469     1.466    -2.935    -0.038     0.141     0.013
  21       1.568     1.330    -2.897    -0.088     0.041    -0.077
  22       1.224     1.669    -2.894     0.180    -0.025     0.058
  23       1.311     1.813    -3.124    -0.133    -0.027    -0.140
  24       1.504     1.307    -2.812    -0.057    -0.006    -0.018
  25      -0.792    -1.725     2.517     0.764    -0.535     0.084
  26      -0.601    -1.059     1.660     0.215    -0.579    -0.004
  27      -1.249     0.845     0.404     1.367     0.880    -0.532
  28      -0.799    -1.510     2.308    -0.297     0.498    -0.356
  29       0.729    -1.028     0.298    -0.918     1.175     0.779
  30      -1.058     0.672     0.386    -0.006     0.108    -0.934
  31       0.721     0.723    -1.444     1.973    -0.581     1.853
  32       0.949     0.235    -1.184     0.186    -0.148    -2.654
  33       1.384    -1.965     0.582     1.099     0.834     0.002
  34      -0.815    -0.516     1.332    -0.243    -0.392    -1.563
  35      -0.799     1.250    -0.451     0.217     1.073    -0.509
  36      -1.076    -0.055     1.132     1.098    -0.019     0.904
  37      -1.452     0.764     0.688    -0.489    -0.407     0.161
  38      -1.173    -0.416     1.588    -0.226    -0.631     0.783
  39       0.799    -0.984     0.185    -0.987    -0.310     0.459
  40       2.522    -0.143    -2.379     0.066    -1.326    -0.114
  41      -1.770    -0.937     2.707    -3.976     3.581    -3.742
  42      -2.585     3.186    -0.601     3.953     0.388     3.335
  43       6.346    -6.400     0.055     0.767    -3.882    -1.169
  44      -4.522     3.450     1.072     4.797    -2.782    -3.614
  45      -3.705     3.959    -0.254    -4.883    -1.043     1.494
  46       3.217    -5.306     2.089     0.943     4.442     0.088
  47      -2.145     1.412     0.733    -5.954     0.941    -3.062
  48       4.552    -5.740     1.189     1.988    -4.687     0.157
  49      -4.971     2.054     2.917     3.117     1.908     5.230
  50       6.536    -7.102     0.566     1.605     5.375    -2.016
  51      -2.875     2.116     0.759    -2.879    -0.044     4.668
  52      -5.511     4.166     1.345     5.542    -2.685    -5.302
  53      -1.905     2.205    -0.300    -4.768     3.916    -3.974
  54      -4.393     4.503    -0.109     6.332     2.564     5.139
  55       5.082    -5.757     0.676     0.431    -4.367     1.550
  56      -2.783     4.540    -1.756     5.739    -4.539    -2.169
  57      -2.814     3.674    -0.860    -4.619    -1.958     3.477
  58       2.858    -4.586     1.729    -0.411     4.950     0.984
  59      -2.641     1.384     1.258    -5.430     3.828    -3.442
  60       4.467    -5.111     0.644    -1.767    -4.921    -1.211
  61      -3.954     2.608     1.346     2.921     1.190     3.807
  62       5.826    -6.431     0.604    -0.174     5.158     1.457
  63      -3.232     1.815     1.416    -4.930    -2.444     4.918
  64      -0.762     0.658     0.104     6.811    -2.103    -4.681
  65      -2.557     0.878     1.678    -4.155     2.657    -4.409
  66      -2.529     2.834    -0.305     4.986     1.084     4.246
  67       4.490    -6.130     1.640     1.478    -4.642     1.694
  68      -3.442     1.383     2.059     3.581    -1.083    -5.439
  69      -3.328     4.244    -0.916    -5.805    -1.879     3.536
  70       3.248    -5.383     2.135    -1.888     5.385     0.581
  71      -2.487     1.239     1.248    -5.729     1.761    -5.439
  72       5.159    -5.433     0.275    -0.101    -5.118    -0.035
  73      -5.153     3.132     2.021     2.741     3.353     3.731
  74       7.648    -6.804    -0.845    -0.484     3.786    -0.792
  75      -3.866     1.440     2.426    -4.925    -1.476     5.216
  76      -2.447     2.304     0.144     5.133    -1.922    -5.796
  77      -4.263     1.940     2.323    -4.433     4.562    -3.818
  78      -4.547     2.734     1.813     4.454     1.123     5.022
  79       4.618    -5.822     1.204    -1.014    -5.522     1.170
  80      -2.538     2.481     0.057     4.226    -4.393    -2.376
  81      -6.054     4.484     1.569    -2.984    -2.907     3.996
  82       5.751    -6.447     0.695    -0.610     5.229     0.176
  83      -2.802     2.400     0.402    -4.721     2.472    -3.528
  84       5.144    -6.120     0.976    -2.297    -4.604    -0.081
  85      -3.009     2.590     0.419     4.948     0.513     5.084
  86       7.032    -7.145     0.114    -0.599     4.298    -0.730
  87      -1.803     1.739     0.064    -4.036    -2.080     4.475
  88      -1.008     1.956    -0.947     5.609    -0.598    -4.295
 ---------------------------------------------------------------------


 Total hyperfine coupling parameters after diagonalization (MHz)
 (convention: |A_zz| > |A_xx| > |A_yy|)
 ----------------------------------------------------------------------
  ion      A_xx      A_yy      A_zz     asymmetry (A_yy - A_xx)/ A_zz 
 ----------------------------------------------------------------------
   1       2.372     1.962     4.611      -0.089
   2       0.237     0.156     3.006      -0.027
   3       1.639     1.372     3.811      -0.070
   4       2.102     1.739     4.028      -0.090
   5       1.109     0.803     3.665      -0.084
   6       2.139     1.731     4.350      -0.094
   7       1.824     1.443     4.168      -0.091
   8       1.769     1.476     3.981      -0.074
   9       2.343     2.017     4.852      -0.067
  10       1.539     1.102     3.582      -0.122
  11       2.243     1.880     4.618      -0.079
  12       2.069     1.705     4.448      -0.082
  13       1.613     1.226     3.705      -0.104
  14       1.340     1.200     4.111      -0.034
  15       0.544     0.438     2.626      -0.040
  16       1.360     1.329     3.128      -0.010
  17      13.614     9.288    13.826      -0.313
  18      13.831     9.636    14.138      -0.297
  19      14.607    10.414    14.914      -0.281
  20      13.538     9.166    13.614      -0.321
  21      14.382    10.182    14.678      -0.286
  22      13.753     9.697    14.325      -0.283
  23      15.775    11.367    16.345      -0.270
  24      13.234     9.130    13.461      -0.305
  25      96.942    95.187    99.967      -0.018
  26      93.677    93.153    96.116      -0.005
  27      99.088    95.996    99.836      -0.031
  28      97.252    96.429   100.480      -0.008
  29      97.623    95.232    99.020      -0.024
  30      96.189    95.526    98.071      -0.007
  31      94.187    90.813    96.876      -0.035
  32      96.365    92.236    97.772      -0.042
  33      92.995    90.495    94.939      -0.026
  34      99.865    98.872   102.727      -0.010
  35      95.448    93.257    96.445      -0.023
  36      97.877    95.868    99.461      -0.020
  37      98.193    96.019    98.685      -0.022
  38      98.542    97.913   101.227      -0.006
  39      95.824    94.291    97.187      -0.016
  40      94.909    92.334    97.912      -0.026
  41       2.452    -0.408    12.802      -0.223
  42       6.490     3.105    14.691      -0.230
  43       6.071     1.153    16.054      -0.306
  44       6.728     1.304    16.650      -0.326
  45       7.180     1.785    14.674      -0.368
  46       3.925     0.226    12.842      -0.288
  47       9.383     3.141    17.153      -0.364
  48       2.395    -2.171    12.146      -0.376
  49       4.524     0.860    15.662      -0.234
  50       8.588     1.777    19.744      -0.345
  51       5.536     1.932    13.758      -0.262
  52       7.463     1.913    20.476      -0.271
  53       5.873     3.532    17.754      -0.132
  54      -2.567     1.990    15.930       0.286
  55       5.810     0.943    15.053      -0.323
  56       7.571     1.443    18.425      -0.333
  57       4.944     2.395    15.507      -0.164
  58       3.767     0.992    13.308      -0.208
  59       7.324     2.625    17.901      -0.263
  60       6.687     2.017    16.175      -0.289
  61       3.119    -0.349    11.419      -0.304
  62       5.171     0.458    16.346      -0.288
  63       5.691     1.966    17.117      -0.218
  64       5.415     0.160    16.894      -0.311
  65       7.530     4.737    17.992      -0.155
  66       3.307    -0.498    13.366      -0.285
  67       7.559     1.319    16.323      -0.382
  68       3.482    -0.161    13.818      -0.264
  69       4.946     1.007    16.484      -0.239
  70       2.614    -1.736    12.713      -0.342
  71       6.965     1.840    18.213      -0.281
  72       5.208     2.723    16.547      -0.150
  73       3.382    -2.165    12.255      -0.453
  74       3.850    -0.839    15.194      -0.309
  75       5.042    -0.348    15.518      -0.347
  76       3.735     0.438    16.218      -0.203
  77       7.488     1.865    18.183      -0.309
  78       5.237     0.125    15.585      -0.328
  79       4.877     1.696    16.556      -0.192
  80       7.951     2.680    16.561      -0.318
  81       6.394     0.268    16.006      -0.383
  82       5.493     1.506    17.064      -0.234
  83       5.328     1.808    15.140      -0.232
  84       6.796     1.709    16.797      -0.303
  85       7.175     2.042    17.095      -0.300
  86       6.022     0.715    17.070      -0.311
  87      -1.645     0.136    10.602       0.168
  88       6.098     1.250    15.581      -0.311
 ---------------------------------------------------------------------



--------------------------------------------------------------------------------------------------------


 stress matrix after NEB project (eV)
    -48.96443     -2.40275      1.52929
     -2.39717    -46.89092      2.38261
      1.50129      2.37344    -62.82255
  FORCES: max atom, RMS     2.732367    1.229763
  FORCE total and by dimension   11.536201    2.502298
  Stress total and by dimension   92.576288   62.822550
     LOOP+:  cpu time  589.3524: real time  590.6137
    4ORBIT:  cpu time    0.0000: real time    0.0000
 


 total charge     
 
# of ion       s       p       d       tot
------------------------------------------
    1        0.053   5.996   0.000   6.049
    2        0.052   5.996   0.000   6.048
    3        0.052   5.995   0.000   6.047
    4        0.048   5.991   0.000   6.040
    5        0.055   6.000   0.000   6.055
    6        0.050   5.991   0.000   6.041
    7        0.052   5.996   0.000   6.047
    8        0.053   5.995   0.000   6.048
    9        0.054   5.998   0.000   6.053
   10        0.050   5.992   0.000   6.042
   11        0.048   5.989   0.000   6.037
   12        0.050   5.991   0.000   6.041
   13        0.052   5.995   0.000   6.047
   14        0.052   5.996   0.000   6.048
   15        0.044   5.987   0.000   6.032
   16        0.048   5.991   0.000   6.038
   17        0.159   6.143   0.096   6.398
   18        0.149   6.126   0.083   6.358
   19        0.151   6.131   0.086   6.367
   20        0.151   6.132   0.086   6.369
   21        0.146   6.123   0.080   6.348
   22        0.147   6.125   0.081   6.353
   23        0.157   6.143   0.096   6.397
   24        0.147   6.124   0.080   6.352
   25        0.370   6.437   4.817  11.624
   26        0.376   6.453   4.834  11.662
   27        0.370   6.444   4.818  11.631
   28        0.376   6.456   4.827  11.658
   29        0.377   6.460   4.834  11.672
   30        0.378   6.462   4.836  11.675
   31        0.368   6.435   4.818  11.620
   32        0.369   6.442   4.825  11.637
   33        0.394   6.495   4.880  11.769
   34        0.360   6.418   4.807  11.585
   35        0.383   6.473   4.848  11.704
   36        0.361   6.423   4.794  11.577
   37        0.375   6.449   4.826  11.650
   38        0.377   6.457   4.834  11.667
   39        0.370   6.440   4.816  11.626
   40        0.370   6.443   4.819  11.632
   41        1.598   3.501   0.000   5.099
   42        1.595   3.509   0.000   5.104
   43        1.600   3.520   0.000   5.120
   44        1.597   3.504   0.000   5.101
   45        1.597   3.497   0.000   5.094
   46        1.599   3.529   0.000   5.128
   47        1.599   3.528   0.000   5.127
   48        1.595   3.493   0.000   5.088
   49        1.603   3.524   0.000   5.127
   50        1.602   3.493   0.000   5.095
   51        1.593   3.478   0.000   5.072
   52        1.605   3.504   0.000   5.109
   53        1.600   3.500   0.000   5.100
   54        1.603   3.471   0.000   5.074
   55        1.602   3.525   0.000   5.128
   56        1.602   3.503   0.000   5.105
   57        1.597   3.512   0.000   5.109
   58        1.596   3.512   0.000   5.108
   59        1.601   3.522   0.000   5.123
   60        1.599   3.481   0.000   5.080
   61        1.593   3.505   0.000   5.098
   62        1.598   3.489   0.000   5.087
   63        1.602   3.502   0.000   5.104
   64        1.600   3.481   0.000   5.082
   65        1.603   3.528   0.000   5.131
   66        1.597   3.487   0.000   5.084
   67        1.598   3.524   0.000   5.122
   68        1.600   3.537   0.000   5.136
   69        1.602   3.483   0.000   5.085
   70        1.597   3.479   0.000   5.076
   71        1.604   3.515   0.000   5.119
   72        1.600   3.499   0.000   5.099
   73        1.596   3.475   0.000   5.070
   74        1.600   3.478   0.000   5.077
   75        1.598   3.500   0.000   5.098
   76        1.600   3.497   0.000   5.096
   77        1.600   3.487   0.000   5.087
   78        1.599   3.518   0.000   5.116
   79        1.597   3.496   0.000   5.093
   80        1.599   3.526   0.000   5.125
   81        1.599   3.501   0.000   5.100
   82        1.600   3.484   0.000   5.084
   83        1.599   3.523   0.000   5.122
   84        1.599   3.509   0.000   5.108
   85        1.603   3.533   0.000   5.136
   86        1.601   3.501   0.000   5.103
   87        1.599   3.487   0.000   5.086
   88        1.597   3.478   0.000   5.074
--------------------------------------------------
tot         84.754 416.260  77.921 578.936
 


 magnetization (x)
 
# of ion       s       p       d       tot
------------------------------------------
    1        0.002   0.000   0.000   0.003
    2        0.001   0.000   0.000   0.001
    3        0.002   0.000   0.000   0.002
    4        0.002   0.001   0.000   0.002
    5        0.001   0.000   0.000   0.001
    6        0.002   0.000   0.000   0.002
    7        0.002   0.000   0.000   0.002
    8        0.002   0.000   0.000   0.002
    9        0.002   0.000   0.000   0.002
   10        0.002   0.000   0.000   0.002
   11        0.002   0.000   0.000   0.003
   12        0.002   0.000   0.000   0.002
   13        0.002   0.001   0.000   0.002
   14        0.001   0.001   0.000   0.002
   15        0.001   0.001   0.000   0.002
   16        0.001   0.001   0.000   0.002
   17        0.007   0.003   0.002   0.011
   18        0.007   0.002   0.001   0.011
   19        0.007   0.003   0.001   0.011
   20        0.007   0.002   0.001   0.010
   21        0.008   0.002   0.001   0.011
   22        0.007   0.003   0.001   0.011
   23        0.008   0.003   0.002   0.013
   24        0.007   0.002   0.001   0.009
   25        0.016   0.029   2.766   2.811
   26        0.014   0.030   2.752   2.796
   27        0.016   0.029   2.771   2.816
   28        0.016   0.030   2.764   2.810
   29        0.015   0.029   2.750   2.795
   30        0.016   0.030   2.749   2.794
   31        0.014   0.028   2.761   2.803
   32        0.015   0.028   2.755   2.799
   33        0.014   0.029   2.701   2.744
   34        0.016   0.028   2.788   2.831
   35        0.015   0.031   2.729   2.775
   36        0.015   0.029   2.799   2.844
   37        0.016   0.029   2.759   2.804
   38        0.016   0.031   2.752   2.799
   39        0.015   0.029   2.766   2.811
   40        0.015   0.030   2.753   2.797
   41        0.002   0.009   0.000   0.011
   42        0.002   0.037   0.000   0.039
   43        0.002   0.038   0.000   0.040
   44        0.002   0.042   0.000   0.044
   45        0.002   0.031   0.000   0.033
   46        0.002   0.026   0.000   0.028
   47        0.002   0.051   0.000   0.054
   48        0.001   0.015   0.000   0.017
   49        0.002   0.030   0.000   0.032
   50        0.003   0.055   0.000   0.057
   51        0.002   0.026   0.000   0.028
   52        0.002   0.055   0.000   0.057
   53        0.002   0.045   0.000   0.048
   54        0.002   0.011   0.000   0.012
   55        0.002   0.036   0.000   0.038
   56        0.002   0.045   0.000   0.047
   57        0.002   0.029   0.000   0.031
   58        0.002   0.022   0.000   0.023
   59        0.002   0.050   0.000   0.052
   60        0.002   0.035   0.000   0.037
   61        0.001   0.021   0.000   0.022
   62        0.002   0.027   0.000   0.029
   63        0.002   0.041   0.000   0.043
   64        0.002   0.029   0.000   0.031
   65        0.002   0.053   0.000   0.056
   66        0.002   0.008   0.000   0.009
   67        0.002   0.046   0.000   0.048
   68        0.002   0.027   0.000   0.029
   69        0.002   0.022   0.000   0.024
   70        0.002   0.007   0.000   0.009
   71        0.002   0.050   0.000   0.052
   72        0.002   0.023   0.000   0.025
   73        0.001   0.012   0.000   0.013
   74        0.002   0.015   0.000   0.017
   75        0.002   0.030   0.000   0.032
   76        0.002   0.027   0.000   0.029
   77        0.002   0.046   0.000   0.048
   78        0.002   0.037   0.000   0.039
   79        0.002   0.034   0.000   0.036
   80        0.002   0.048   0.000   0.050
   81        0.002   0.032   0.000   0.034
   82        0.002   0.039   0.000   0.041
   83        0.002   0.033   0.000   0.035
   84        0.002   0.044   0.000   0.046
   85        0.002   0.044   0.000   0.046
   86        0.002   0.034   0.000   0.036
   87        0.001  -0.006   0.000  -0.005
   88        0.002   0.034   0.000   0.036
--------------------------------------------------
tot          0.422   2.040  44.125  46.588
 

 total amount of memory used by VASP MPI-rank0    88173. kBytes
=======================================================================

   base      :      30000. kBytes
   nonlr-proj:      13664. kBytes
   fftplans  :        992. kBytes
   grid      :      21513. kBytes
   one-center:       2737. kBytes
   wavefun   :      19267. kBytes
 
  
  
 General timing and accounting informations for this job:
 ========================================================
  
                  Total CPU time used (sec):      608.102
                            User time (sec):      602.739
                          System time (sec):        5.364
                         Elapsed time (sec):      612.094
  
                   Maximum memory used (kb):      180476.
                   Average memory used (kb):           0.
  
                          Minor page faults:       314211
                          Major page faults:            0
                 Voluntary context switches:         3687
