 vasp.5.4.4.18Apr17-6-g9f103f2a35 (build Dec 02 2020 12:53:39) complex          
  
 executed on             LinuxIFC date 2021.07.31  02:59:18
 running on  112 total cores
 distrk:  each k-point on  112 cores,    1 groups
 distr:  one band on NCORES_PER_BAND=   1 cores,  112 groups


--------------------------------------------------------------------------------------------------------


 INCAR:
 POTCAR:    PAW_PBE Na_pv 19Sep2006               
 POTCAR:    PAW_PBE Mg_pv 13Apr2007               
 POTCAR:    PAW_PBE Mn_pv 02Aug2007               
 POTCAR:    PAW_PBE O 08Apr2002                   

 ----------------------------------------------------------------------------- 
|                                                                             |
|           W    W    AA    RRRRR   N    N  II  N    N   GGGG   !!!           |
|           W    W   A  A   R    R  NN   N  II  NN   N  G    G  !!!           |
|           W    W  A    A  R    R  N N  N  II  N N  N  G       !!!           |
|           W WW W  AAAAAA  RRRRR   N  N N  II  N  N N  G  GGG   !            |
|           WW  WW  A    A  R   R   N   NN  II  N   NN  G    G                |
|           W    W  A    A  R    R  N    N  II  N    N   GGGG   !!!           |
|                                                                             |
|      For optimal performance we recommend to set                            |
|        NCORE= 4 - approx SQRT( number of cores)                             |
|      NCORE specifies how many cores store one orbital (NPAR=cpu/NCORE).     |
|      This setting can  greatly improve the performance of VASP for DFT.     |
|      The default,   NCORE=1            might be grossly inefficient         |
|      on modern multi-core architectures or massively parallel machines.     |
|      Do your own testing !!!!                                               |
|      Unfortunately you need to use the default for GW and RPA calculations. |
|      (for HF NCORE is supported but not extensively tested yet)             |
|                                                                             |
 ----------------------------------------------------------------------------- 

 POTCAR:    PAW_PBE Na_pv 19Sep2006               
   VRHFIN =Na: p6s1                                                             
   LEXCH  = PE                                                                  
   EATOM  =   766.0439 eV,   56.3026 Ry                                         
                                                                                
   TITEL  = PAW_PBE Na_pv 19Sep2006                                             
   LULTRA =        F    use ultrasoft PP ?                                      
   IUNSCR =        1    unscreen: 0-lin 1-nonlin 2-no                           
   RPACOR =    1.800    partial core radius                                     
   POMASS =   22.990; ZVAL   =    7.000    mass and valenz                      
   RCORE  =    2.200    outmost cutoff radius                                   
   RWIGS  =    2.200; RWIGS  =    1.164    wigner-seitz radius (au A)           
   ENMAX  =  259.561; ENMIN  =  194.671 eV                                      
   ICORE  =        2    local potential                                         
   LCOR   =        T    correct aug charges                                     
   LPAW   =        T    paw PP                                                  
   EAUG   =  368.056                                                            
   DEXC   =    0.000                                                            
   RMAX   =    2.245    core radius for proj-oper                               
   RAUG   =    1.300    factor for augmentation sphere                          
   RDEP   =    2.259    radius for radial grids                                 
   RDEPT  =    1.738    core radius for aug-charge                              
                                                                                
   Atomic configuration                                                         
    5 entries                                                                   
     n  l   j            E        occ.                                          
     1  0  0.50     -1033.6933   2.0000                                         
     2  0  0.50       -56.7526   2.0000                                         
     2  1  1.50       -28.6721   6.0000                                         
     3  0  0.50        -2.7440   1.0000                                         
     3  2  1.50        -1.3606   0.0000                                         
   Description                                                                  
     l       E           TYP  RCUT    TYP  RCUT                                 
     1    -28.6720912     23  2.000                                             
     1      6.8029130     23  2.000                                             
     0     -2.7439560     23  2.200                                             
     0     34.0145650     23  2.200                                             
     2     -1.3605826     23  2.200                                             
  local pseudopotential read in
  partial core-charges read in
  partial kinetic energy density read in
  atomic valenz-charges read in
  non local Contribution for L=           1  read in
    real space projection operators read in
  non local Contribution for L=           1  read in
    real space projection operators read in
  non local Contribution for L=           0  read in
    real space projection operators read in
  non local Contribution for L=           0  read in
    real space projection operators read in
    PAW grid and wavefunctions read in
 
   number of l-projection  operators is LMAX  =           4
   number of lm-projection operators is LMMAX =           8
 
 POTCAR:    PAW_PBE Mg_pv 13Apr2007               
   VRHFIN =Mg: p6s2                                                             
   LEXCH  = PE                                                                  
   EATOM  =  1056.7344 eV,   77.6678 Ry                                         
                                                                                
   TITEL  = PAW_PBE Mg_pv 13Apr2007                                             
   LULTRA =        F    use ultrasoft PP ?                                      
   IUNSCR =        1    unscreen: 0-lin 1-nonlin 2-no                           
   RPACOR =    1.500    partial core radius                                     
   POMASS =   24.305; ZVAL   =    8.000    mass and valenz                      
   RCORE  =    2.000    outmost cutoff radius                                   
   RWIGS  =    2.000; RWIGS  =    1.058    wigner-seitz radius (au A)           
   ENMAX  =  403.929; ENMIN  =  302.947 eV                                      
   RCLOC  =    1.506    cutoff for local pot                                    
   LCOR   =        T    correct aug charges                                     
   LPAW   =        T    paw PP                                                  
   EAUG   =  758.780                                                            
   DEXC   =    0.000                                                            
   RMAX   =    2.045    core radius for proj-oper                               
   RAUG   =    1.300    factor for augmentation sphere                          
   RDEP   =    2.025    radius for radial grids                                 
   RDEPT  =    1.557    core radius for aug-charge                              
                                                                                
   Atomic configuration                                                         
    5 entries                                                                   
     n  l   j            E        occ.                                          
     1  0  0.50     -1259.6230   2.0000                                         
     2  0  0.50       -79.8442   2.0000                                         
     2  1  1.50       -46.6121   6.0000                                         
     3  0  0.50        -4.7055   2.0000                                         
     3  2  1.50        -1.3606   0.0000                                         
   Description                                                                  
     l       E           TYP  RCUT    TYP  RCUT                                 
     1    -46.6121073     23  1.600                                             
     1      2.7211652     23  1.600                                             
     0     -4.7054661     23  2.000                                             
     0     61.2262170     23  2.000                                             
     2     -1.3605826     23  2.000                                             
  local pseudopotential read in
  partial core-charges read in
  partial kinetic energy density read in
  atomic valenz-charges read in
  non local Contribution for L=           1  read in
    real space projection operators read in
  non local Contribution for L=           1  read in
    real space projection operators read in
  non local Contribution for L=           0  read in
    real space projection operators read in
  non local Contribution for L=           0  read in
    real space projection operators read in
  non local Contribution for L=           2  read in
    real space projection operators read in
    PAW grid and wavefunctions read in
 
   number of l-projection  operators is LMAX  =           5
   number of lm-projection operators is LMMAX =          13
 
 POTCAR:    PAW_PBE Mn_pv 02Aug2007               
   VRHFIN =Mn: 3p4s3d                                                           
   LEXCH  = PE                                                                  
   EATOM  =  2025.2664 eV,  148.8529 Ry                                         
                                                                                
   TITEL  = PAW_PBE Mn_pv 02Aug2007                                             
   LULTRA =        F    use ultrasoft PP ?                                      
   IUNSCR =        1    unscreen: 0-lin 1-nonlin 2-no                           
   RPACOR =    2.080    partial core radius                                     
   POMASS =   54.938; ZVAL   =   13.000    mass and valenz                      
   RCORE  =    2.300    outmost cutoff radius                                   
   RWIGS  =    2.500; RWIGS  =    1.323    wigner-seitz radius (au A)           
   ENMAX  =  269.864; ENMIN  =  202.398 eV                                      
   ICORE  =        3    local potential                                         
   LCOR   =        T    correct aug charges                                     
   LPAW   =        T    paw PP                                                  
   EAUG   =  569.085                                                            
   DEXC   =    0.000                                                            
   RMAX   =    2.343    core radius for proj-oper                               
   RAUG   =    1.300    factor for augmentation sphere                          
   RDEP   =    2.338    radius for radial grids                                 
   RDEPT  =    1.798    core radius for aug-charge                              
                                                                                
   Atomic configuration                                                         
    8 entries                                                                   
     n  l   j            E        occ.                                          
     1  0  0.50     -6424.8287   2.0000                                         
     2  0  0.50      -739.1154   2.0000                                         
     2  1  1.50      -625.3949   6.0000                                         
     3  0  0.50       -81.6100   2.0000                                         
     3  1  1.50       -50.4667   6.0000                                         
     3  2  2.50        -3.3745   6.0000                                         
     4  0  0.50        -4.1331   1.0000                                         
     4  3  2.50        -1.3606   0.0000                                         
   Description                                                                  
     l       E           TYP  RCUT    TYP  RCUT                                 
     1    -50.4666628     23  2.000                                             
     1     -1.3605826     23  2.000                                             
     2     -3.3744729     23  2.300                                             
     2     -4.7350555     23  2.300                                             
     0     -4.1331431     23  2.300                                             
     0      7.6656591     23  2.300                                             
     3      9.5240782     23  2.300                                             
  local pseudopotential read in
  partial core-charges read in
  partial kinetic energy density read in
  atomic valenz-charges read in
  non local Contribution for L=           1  read in
    real space projection operators read in
  non local Contribution for L=           1  read in
    real space projection operators read in
  non local Contribution for L=           2  read in
    real space projection operators read in
  non local Contribution for L=           2  read in
    real space projection operators read in
  non local Contribution for L=           0  read in
    real space projection operators read in
  non local Contribution for L=           0  read in
    real space projection operators read in
    PAW grid and wavefunctions read in
 
   number of l-projection  operators is LMAX  =           6
   number of lm-projection operators is LMMAX =          18
 
 POTCAR:    PAW_PBE O 08Apr2002                   
   VRHFIN =O: s2p4                                                              
   LEXCH  = PE                                                                  
   EATOM  =   432.3788 eV,   31.7789 Ry                                         
                                                                                
   TITEL  = PAW_PBE O 08Apr2002                                                 
   LULTRA =        F    use ultrasoft PP ?                                      
   IUNSCR =        1    unscreen: 0-lin 1-nonlin 2-no                           
   RPACOR =    1.200    partial core radius                                     
   POMASS =   16.000; ZVAL   =    6.000    mass and valenz                      
   RCORE  =    1.520    outmost cutoff radius                                   
   RWIGS  =    1.550; RWIGS  =    0.820    wigner-seitz radius (au A)           
   ENMAX  =  400.000; ENMIN  =  300.000 eV                                      
   ICORE  =        2    local potential                                         
   LCOR   =        T    correct aug charges                                     
   LPAW   =        T    paw PP                                                  
   EAUG   =  605.392                                                            
   DEXC   =    0.000                                                            
   RMAX   =    1.553    core radius for proj-oper                               
   RAUG   =    1.300    factor for augmentation sphere                          
   RDEP   =    1.550    radius for radial grids                                 
   RDEPT  =    1.329    core radius for aug-charge                              
                                                                                
   Atomic configuration                                                         
    4 entries                                                                   
     n  l   j            E        occ.                                          
     1  0  0.50      -514.6923   2.0000                                         
     2  0  0.50       -23.9615   2.0000                                         
     2  1  0.50        -9.0305   4.0000                                         
     3  2  1.50        -9.5241   0.0000                                         
   Description                                                                  
     l       E           TYP  RCUT    TYP  RCUT                                 
     0    -23.9615318     23  1.200                                             
     0     -9.5240782     23  1.200                                             
     1     -9.0304911     23  1.520                                             
     1      8.1634956     23  1.520                                             
     2     -9.5240782      7  1.500                                             
  local pseudopotential read in
  partial core-charges read in
  partial kinetic energy density read in
  kinetic energy density of atom read in
  atomic valenz-charges read in
  non local Contribution for L=           0  read in
    real space projection operators read in
  non local Contribution for L=           0  read in
    real space projection operators read in
  non local Contribution for L=           1  read in
    real space projection operators read in
  non local Contribution for L=           1  read in
    real space projection operators read in
    PAW grid and wavefunctions read in
 
   number of l-projection  operators is LMAX  =           4
   number of lm-projection operators is LMMAX =           8
 
 Optimization of the real space projectors (new method)

 maximal supplied QI-value         = 17.01
 optimisation between [QCUT,QGAM] = [ 10.20, 20.41] = [ 29.16,116.64] Ry 
 Optimized for a Real-space Cutoff    1.30 Angstroem

   l    n(q)    QCUT    max X(q) W(low)/X(q) W(high)/X(q)  e(spline) 
   1      7    10.205     4.940    0.23E-03    0.84E-03    0.11E-06
   1      7    10.205     6.253    0.40E-03    0.13E-02    0.18E-06
   0      8    10.205    37.438    0.23E-03    0.37E-03    0.42E-07
   0      8    10.205     9.606    0.16E-03    0.26E-03    0.31E-07
 Optimization of the real space projectors (new method)

 maximal supplied QI-value         = 18.90
 optimisation between [QCUT,QGAM] = [ 10.20, 20.41] = [ 29.16,116.64] Ry 
 Optimized for a Real-space Cutoff    1.26 Angstroem

   l    n(q)    QCUT    max X(q) W(low)/X(q) W(high)/X(q)  e(spline) 
   1      7    10.205     2.974    0.63E-04    0.14E-03    0.13E-06
   1      7    10.205     4.279    0.11E-03    0.45E-03    0.24E-06
   0      8    10.205    16.381    0.44E-03    0.15E-03    0.55E-07
   0      8    10.205     5.611    0.31E-03    0.11E-03    0.40E-07
   2      7    10.205     4.652    0.50E-03    0.47E-03    0.57E-07
 Optimization of the real space projectors (new method)

 maximal supplied QI-value         = 16.25
 optimisation between [QCUT,QGAM] = [ 10.24, 20.48] = [ 29.35,117.42] Ry 
 Optimized for a Real-space Cutoff    1.34 Angstroem

   l    n(q)    QCUT    max X(q) W(low)/X(q) W(high)/X(q)  e(spline) 
   1      8    10.239     3.658    0.23E-03    0.30E-03    0.98E-07
   1      8    10.239     5.612    0.32E-03    0.65E-03    0.21E-06
   2      7    10.239    55.373    0.42E-03    0.45E-03    0.65E-07
   2      7    10.239    50.863    0.43E-03    0.48E-03    0.67E-07
   0      8    10.239    79.536    0.11E-03    0.21E-03    0.56E-07
   0      8    10.239    38.668    0.96E-04    0.19E-03    0.52E-07
 Optimization of the real space projectors (new method)

 maximal supplied QI-value         = 24.76
 optimisation between [QCUT,QGAM] = [ 10.15, 20.30] = [ 28.85,115.39] Ry 
 Optimized for a Real-space Cutoff    1.38 Angstroem

   l    n(q)    QCUT    max X(q) W(low)/X(q) W(high)/X(q)  e(spline) 
   0      8    10.150    20.381    0.22E-03    0.32E-03    0.29E-06
   0      8    10.150    15.268    0.23E-03    0.35E-03    0.30E-06
   1      8    10.150     5.964    0.46E-03    0.53E-03    0.21E-06
   1      8    10.150     5.382    0.38E-03    0.45E-03    0.19E-06
  PAW_PBE Na_pv 19Sep2006               :
 energy of atom  1       EATOM= -766.0439
 kinetic energy error for atom=    0.0103 (will be added to EATOM!!)
  PAW_PBE Mg_pv 13Apr2007               :
 energy of atom  2       EATOM=-1056.7344
 kinetic energy error for atom=    0.0820 (will be added to EATOM!!)
  PAW_PBE Mn_pv 02Aug2007               :
 energy of atom  3       EATOM=-2025.2664
 kinetic energy error for atom=    0.0284 (will be added to EATOM!!)
  PAW_PBE O 08Apr2002                   :
 energy of atom  4       EATOM= -432.3788
 kinetic energy error for atom=    0.1156 (will be added to EATOM!!)
 
 
 POSCAR: Na Mg Mn  O                             
  positions in cartesian coordinates
  No initial velocities read in

 METAGGA = SCAN     LMAXTAU =  6    LMIXTAU =  F

 exchange correlation table for  LEXCH =        8
   RHO(1)=    0.500       N(1)  =     2000
   RHO(2)=  100.500       N(2)  =     4000

 VTST: version 3.2, (02/03/18)

 CHAIN: initializing optimizer
 
 OPT: Using VASP Dynamics algorithm
 CHAIN: Read ICHAIN            0
 
 POSCAR: Na Mg Mn  O                             
  positions in cartesian coordinates
  No initial velocities read in
 


--------------------------------------------------------------------------------------------------------


 ion  position               nearest neighbor table
   1  0.145  0.220  0.238-  55 2.25  54 2.38
   2  0.301  0.682  0.759-  83 2.14
   3  0.477  0.510  0.768-  85 2.21  48 2.27  12 2.76  33 2.95
   4  0.067  0.281  0.735-  57 2.26  58 2.30  61 2.34
   5  0.276  0.017  0.236-  67 2.25  41 2.25  42 2.33  50 2.37
   6  0.657  0.215  0.246-  52 2.23  53 2.26  43 2.33  62 2.33
   7  0.621  0.957  0.756-  56 2.27  59 2.32  84 2.36  31 2.94  29 2.95
   8  0.105  0.978  0.742-  44 2.22  72 2.23  69 2.37  27 2.85  25 2.92
   9  0.945  0.685  0.250-  65 2.26  76 2.37  34 2.86
  10  0.437  0.816  0.262-  51 2.23  88 2.31  77 2.37
  11  0.117  0.505  0.245-  55 2.30  66 2.37  86 2.37  37 2.80  39 2.97
  12  0.788  0.712  0.744-  69 2.26  82 2.28  85 2.36   3 2.76
  13  0.476  0.190  0.752-  49 2.33  46 2.36  45 2.36  26 2.90
  14  0.930  0.479  0.752-  57 2.32  60 2.32  71 2.38
  15  0.794  0.993  0.258-  63 2.22
  16  0.599  0.515  0.254-  78 2.23  74 2.25  87 2.31  35 2.75  33 2.92
  17  0.792  0.348  0.997-  43 1.99  49 2.00  60 2.01  53 2.06  71 2.13  66 2.14
  18  0.437  0.148  0.495-  46 2.03  51 2.05  45 2.07  50 2.11  44 2.13  52 2.18  36 2.85
  19  0.299  0.364  1.000-  78 1.95  48 2.06  83 2.07  41 2.08  55 2.09  61 2.12  38 2.78
  20  0.945  0.159  0.497-  64 1.98  58 2.01  62 2.03  63 2.08  57 2.10  56 2.15
  21  0.287  0.851  0.992-  84 1.92  47 2.00  73 2.05  67 2.13  42 2.17  77 2.19  34 2.85  37 2.85

  22  0.936  0.653  0.506-  69 1.98  68 1.99  70 2.04  75 2.05  74 2.09  76 2.12  40 2.83  28 2.84
                            36 2.86
  23  0.797  0.854  0.012-  79 2.03  54 2.07  59 2.10  65 2.11  85 2.12  72 2.15  34 2.85
  24  0.441  0.657  0.504-  82 2.05  88 2.05  86 2.06  81 2.06  87 2.12  80 2.13
  25  0.127  0.020  1.000-  47 1.91  54 1.91  67 1.94  72 1.95  61 1.96  41 1.98  34 2.88  30 2.88
                            26 2.89   8 2.92
  26  0.460  0.184  0.010-  41 1.82  43 1.88  49 1.89  48 1.93  42 1.95  47 2.02  29 2.83  25 2.89
                            33 2.90  13 2.90
  27  0.103  0.987  0.488-  76 1.82  63 1.88  50 1.91  69 1.93  58 1.96  44 2.01   8 2.85  36 2.86
                            40 2.88  32 2.94
  28  0.778  0.326  0.500-  75 1.87  57 1.89  68 1.90  62 1.94  46 1.97  52 1.97  22 2.84  35 2.85
                            39 2.86  31 2.90
  29  0.616  0.014  0.013-  59 1.89  42 1.92  84 1.93  79 1.95  53 1.95  49 1.97  26 2.83  38 2.87
                             7 2.95  30 2.98
  30  0.959  0.184  0.997-  54 1.87  59 1.88  60 1.90  61 1.91  55 1.92  53 2.03  25 2.88  37 2.94
                            29 2.98
  31  0.612  0.992  0.496-  88 1.87  56 1.90  62 1.94  81 1.95  51 1.98  46 2.00  28 2.90  40 2.93
                             7 2.94  36 3.02
  32  0.279  0.325  0.504-  87 1.81  45 1.88  58 1.89  80 1.97  50 1.97  64 1.98  35 2.80  39 2.92
                            27 2.94
  33  0.629  0.517  0.995-  71 1.89  78 1.90  65 1.90  48 1.92  43 1.97  85 2.02  34 2.86  26 2.90
                            16 2.92  38 2.93   3 2.95
  34  0.959  0.688  0.995-  72 1.88  66 1.92  73 1.93  71 1.94  65 1.95  67 1.98  21 2.85  23 2.85
                            33 2.86   9 2.86  25 2.88  37 2.90
  35  0.601  0.477  0.497-  52 1.87  87 1.89  45 1.93  74 1.95  68 1.99  82 1.99  16 2.75  32 2.80
                            28 2.85  40 2.92
  36  0.265  0.819  0.502-  70 1.89  44 1.93  76 1.94  51 1.95  86 1.95  81 1.95  18 2.85  22 2.86
                            39 2.86  27 2.86  31 3.02
  37  0.127  0.522  0.996-  66 1.86  60 1.93  77 1.94  73 1.95  55 1.95  83 1.97  11 2.80  21 2.85
                            38 2.87  34 2.90  30 2.94
  38  0.458  0.684  0.003-  77 1.85  84 1.85  83 1.93  79 1.94  85 1.99  78 2.01  19 2.78  29 2.87
                            37 2.87  33 2.93
  39  0.107  0.490  0.509-  64 1.87  70 1.87  57 1.88  86 1.89  75 1.91  80 1.91  36 2.86  28 2.86
                            32 2.92  11 2.97
  40  0.771  0.814  0.493-  82 1.86  74 1.87  69 1.90  63 1.95  56 1.96  88 1.98  22 2.83  27 2.88
                            35 2.92  31 2.93
  41  0.302  0.184  0.091-  26 1.82  25 1.98  19 2.08   5 2.25
  42  0.461  0.023  0.108-  29 1.92  26 1.95  21 2.17   5 2.33
  43  0.623  0.349  0.090-  26 1.88  33 1.97  17 1.99   6 2.33
  44  0.255  0.974  0.598-  36 1.93  27 2.01  18 2.13   8 2.22
  45  0.436  0.322  0.593-  32 1.88  35 1.93  18 2.07  13 2.36
  46  0.612  0.159  0.593-  28 1.97  31 2.00  18 2.03  13 2.36
  47  0.289  0.026  0.906-  25 1.91  21 2.00  26 2.02
  48  0.469  0.345  0.910-  33 1.92  26 1.93  19 2.06   3 2.27
  49  0.611  0.175  0.915-  26 1.89  29 1.97  17 2.00  13 2.33
  50  0.260  0.158  0.400-  27 1.91  32 1.97  18 2.11   5 2.37
  51  0.434  0.969  0.404-  36 1.95  31 1.98  18 2.05  10 2.23
  52  0.624  0.339  0.398-  35 1.87  28 1.97  18 2.18   6 2.23
  53  0.790  0.177  0.100-  29 1.95  30 2.03  17 2.06   6 2.26
  54  0.980  0.042  0.093-  30 1.87  25 1.91  23 2.07   1 2.38
  55  0.111  0.352  0.090-  30 1.92  37 1.95  19 2.09   1 2.25  11 2.30
  56  0.757  0.969  0.590-  31 1.90  40 1.96  20 2.15   7 2.27
  57  0.939  0.336  0.594-  39 1.88  28 1.89  20 2.10   4 2.26  14 2.32
  58  0.118  0.156  0.586-  32 1.89  27 1.96  20 2.01   4 2.30
  59  0.782  0.029  0.921-  30 1.88  29 1.89  23 2.10   7 2.32
  60  0.967  0.350  0.908-  30 1.90  37 1.93  17 2.01  14 2.32
  61  0.118  0.180  0.905-  30 1.91  25 1.96  19 2.12   4 2.34
  62  0.772  0.161  0.405-  31 1.94  28 1.94  20 2.03   6 2.33
  63  0.938  0.978  0.402-  27 1.88  40 1.95  20 2.08  15 2.22
  64  0.115  0.340  0.416-  39 1.87  32 1.98  20 1.98
  65  0.789  0.662  0.096-  33 1.90  34 1.95  23 2.11   9 2.26
  66  0.980  0.538  0.087-  37 1.86  34 1.92  17 2.14  11 2.37
  67  0.113  0.854  0.098-  25 1.94  34 1.98  21 2.13   5 2.25
  68  0.767  0.477  0.595-  28 1.90  35 1.99  22 1.99
  69  0.939  0.831  0.584-  40 1.90  27 1.93  22 1.98  12 2.26   8 2.37
  70  0.115  0.654  0.594-  39 1.87  36 1.89  22 2.04
  71  0.792  0.530  0.901-  33 1.89  34 1.94  17 2.13  14 2.38
  72  0.973  0.852  0.904-  34 1.88  25 1.95  23 2.15   8 2.23
  73  0.112  0.675  0.898-  34 1.93  37 1.95  21 2.05
  74  0.758  0.649  0.405-  40 1.87  35 1.95  22 2.09  16 2.25
  75  0.943  0.479  0.414-  28 1.87  39 1.91  22 2.05
  76  0.113  0.835  0.405-  27 1.82  36 1.94  22 2.12   9 2.37
  77  0.296  0.669  0.094-  38 1.85  37 1.94  21 2.19  10 2.37
  78  0.474  0.518  0.091-  33 1.90  19 1.95  38 2.01  16 2.23
  79  0.616  0.846  0.100-  38 1.94  29 1.95  23 2.03
  80  0.259  0.477  0.604-  39 1.91  32 1.97  24 2.13
  81  0.441  0.838  0.590-  31 1.95  36 1.95  24 2.06
  82  0.622  0.658  0.588-  40 1.86  35 1.99  24 2.05  12 2.28
  83  0.298  0.536  0.899-  38 1.93  37 1.97  19 2.07   2 2.14
  84  0.459  0.845  0.922-  38 1.85  21 1.92  29 1.93   7 2.36
  85  0.622  0.685  0.902-  38 1.99  33 2.02  23 2.12   3 2.21  12 2.36
  86  0.258  0.649  0.413-  39 1.89  36 1.95  24 2.06  11 2.37
  87  0.433  0.468  0.412-  32 1.81  35 1.89  24 2.12  16 2.31
  88  0.610  0.834  0.405-  31 1.87  40 1.98  24 2.05  10 2.31
 
  LATTYP: Found a hexagonal cell.
 ALAT       =    10.0190000534
 C/A-ratio  =     1.1196726572
  
  Lattice vectors:
  
 A1 = (  10.0190000534,   0.0000000000,   0.0000000000)
 A2 = (  -5.0095000267,   8.6767085668,   0.0000000000)
 A3 = (   0.0000000000,   0.0000000000,  11.2180004120)


Analysis of symmetry for initial positions (statically):
=====================================================================
 Subroutine PRICEL returns:
 Original cell was already a primitive cell.
 

 Routine SETGRP: Setting up the symmetry group for a 
 hexagonal supercell.


 Subroutine GETGRP returns: Found  1 space group operations
 (whereof  1 operations were pure point group operations)
 out of a pool of 24 trial point group operations.


The static configuration has the point symmetry C_1 .


Analysis of symmetry for dynamics (positions and initial velocities):
=====================================================================
 Subroutine PRICEL returns:
 Original cell was already a primitive cell.
 

 Routine SETGRP: Setting up the symmetry group for a 
 hexagonal supercell.


 Subroutine GETGRP returns: Found  1 space group operations
 (whereof  1 operations were pure point group operations)
 out of a pool of 24 trial point group operations.


The dynamic configuration has the point symmetry C_1 .


Analysis of structural, dynamic, and magnetic symmetry:
=====================================================================
 Subroutine PRICEL returns:
 Original cell was already a primitive cell.
 

 Routine SETGRP: Setting up the symmetry group for a 
 hexagonal supercell.


 Subroutine GETGRP returns: Found  1 space group operations
 (whereof  1 operations were pure point group operations)
 out of a pool of 24 trial point group operations.


The magnetic configuration has the point symmetry C_1 .


 Subroutine INISYM returns: Found  1 space group operations
 (whereof  1 operations are pure point group operations),
 and found     1 'primitive' translations

 
 

Automatic generation of k-mesh.
 generate k-points for:    2    2    2
Space group operators:
 irot       det(A)        alpha          n_x          n_y          n_z        tau_x        tau_y        tau_z
    1     1.000000     0.000000     1.000000     0.000000     0.000000     0.000000     0.000000     0.000000
 
 Subroutine IBZKPT returns following result:
 ===========================================
 
 Found      8 irreducible k-points:
 
 Following reciprocal coordinates:
            Coordinates               Weight
  0.000000  0.000000  0.000000      1.000000
  0.500000 -0.000000 -0.000000      1.000000
  0.000000  0.500000  0.000000      1.000000
  0.500000  0.500000 -0.000000      1.000000
  0.000000  0.000000  0.500000      1.000000
  0.500000 -0.000000  0.500000      1.000000
  0.000000  0.500000  0.500000      1.000000
  0.500000  0.500000  0.500000      1.000000
 
 Following cartesian coordinates:
            Coordinates               Weight
  0.000000  0.000000  0.000000      1.000000
  0.049905  0.028813 -0.000000      1.000000
  0.000000  0.057626  0.000000      1.000000
  0.049905  0.086438 -0.000000      1.000000
  0.000000  0.000000  0.044571      1.000000
  0.049905  0.028813  0.044571      1.000000
  0.000000  0.057626  0.044571      1.000000
  0.049905  0.086438  0.044571      1.000000
 


--------------------------------------------------------------------------------------------------------




 Dimension of arrays:
   k-points           NKPTS =      8   k-points in BZ     NKDIM =      8   number of bands    NBANDS=    448
   number of dos      NEDOS =    301   number of ions     NIONS =     88
   non local maximal  LDIM  =      6   non local SUM 2l+1 LMDIM =     18
   total plane-waves  NPLWV = 140000
   max r-space proj   IRMAX =   1632   max aug-charges    IRDMAX=   4555
   dimension x,y,z NGX =    50 NGY =   50 NGZ =   56
   dimension x,y,z NGXF=   100 NGYF=  100 NGZF=  112
   support grid    NGXF=   100 NGYF=  100 NGZF=  112
   ions per type =              16   8  16  48
   NGX,Y,Z   is equivalent  to a cutoff of   8.30,  8.30,  8.30 a.u.
   NGXF,Y,Z  is equivalent  to a cutoff of  16.59, 16.59, 16.60 a.u.

 SYSTEM =  unknown system                          
 POSCAR =  Na Mg Mn  O                             

 Startparameter for this run:
   NWRITE =      2    write-flag & timer
   PREC   = normal    normal or accurate (medium, high low for compatibility)
   ISTART =      0    job   : 0-new  1-cont  2-samecut
   ICHARG =      1    charge: 1-file 2-atom 10-const
   ISPIN  =      2    spin polarized calculation?
   LNONCOLLINEAR =      F non collinear calculations
   LSORBIT =      F    spin-orbit coupling
   INIWAV =      1    electr: 0-lowe 1-rand  2-diag
   LASPH  =      T    aspherical Exc in radial PAW
   METAGGA=      F    non-selfconsistent MetaGGA calc.

 Electronic Relaxation 1
   ENCUT  =  400.0 eV  29.40 Ry    5.42 a.u.  16.34 16.34 18.29*2*pi/ulx,y,z
   ENINI  =  400.0     initial cutoff
   ENAUG  =  758.8 eV  augmentation charge cutoff
   NELM   =    200;   NELMIN=  6; NELMDL=-12     # of ELM steps 
   EDIFF  = 0.1E-04   stopping-criterion for ELM
   LREAL  =      T    real-space projection
   NLSPLINE    = F    spline interpolate recip. space projectors
   LCOMPAT=      F    compatible to vasp.4.4
   GGA_COMPAT  = T    GGA compatible to vasp.4.4-vasp.4.6
   LMAXPAW     = -100 max onsite density
   LMAXMIX     =    4 max onsite mixed and CHGCAR
   VOSKOWN=      0    Vosko Wilk Nusair interpolation
   ROPT   =   -0.00050  -0.00050  -0.00050  -0.00050
 Ionic relaxation
   EDIFFG = 0.1E-03   stopping-criterion for IOM
   NSW    =      1    number of steps for IOM
   NBLOCK =      1;   KBLOCK =      1    inner block; outer block 
   IBRION =     -1    ionic relax: 0-MD 1-quasi-New 2-CG
   NFREE  =      0    steps in history (QN), initial steepest desc. (CG)
   ISIF   =      2    stress and relaxation
   IWAVPR =     10    prediction:  0-non 1-charg 2-wave 3-comb
   ISYM   =      2    0-nonsym 1-usesym 2-fastsym
   LCORR  =      T    Harris-Foulkes like correction to forces

   POTIM  = 0.5000    time-step for ionic-motion
   TEIN   =    0.0    initial temperature
   TEBEG  =    0.0;   TEEND  =   0.0 temperature during run
   SMASS  =  -3.00    Nose mass-parameter (am)
   estimated Nose-frequenzy (Omega)   =  0.10E-29 period in steps =****** mass=  -0.229E-26a.u.
   SCALEE = 1.0000    scale energy and forces
   NPACO  =    256;   APACO  = 16.0  distance and # of slots for P.C.
   PSTRESS=    0.0 pullay stress

  Mass of Ions in am
   POMASS =  22.99 24.30 54.94 16.00
  Ionic Valenz
   ZVAL   =   7.00  8.00 13.00  6.00
  Atomic Wigner-Seitz radii
   RWIGS  =  -1.00 -1.00 -1.00 -1.00
  virtual crystal weights 
   VCA    =   1.00  1.00  1.00  1.00
   NELECT =     672.0000    total number of electrons
   NUPDOWN=      48.0000    fix difference up-down

 DOS related values:
   EMIN   =  10.00;   EMAX   =-10.00  energy-range for DOS
   EFERMI =   0.00
   ISMEAR =     0;   SIGMA  =   0.05  broadening in eV -4-tet -1-fermi 0-gaus

 Electronic relaxation 2 (details)
   IALGO  =     48    algorithm
   LDIAG  =      T    sub-space diagonalisation (order eigenvalues)
   LSUBROT=      F    optimize rotation matrix (better conditioning)
   TURBO    =      0    0=normal 1=particle mesh
   IRESTART =      0    0=no restart 2=restart with 2 vectors
   NREBOOT  =      0    no. of reboots
   NMIN     =      0    reboot dimension
   EREF     =   0.00    reference energy to select bands
   IMIX   =      4    mixing-type and parameters
     AMIX     =   0.40;   BMIX     =  1.00
     AMIX_MAG =   1.60;   BMIX_MAG =  1.00
     AMIN     =   0.10
     WC   =   100.;   INIMIX=   1;  MIXPRE=   1;  MAXMIX= -45

 Intra band minimization:
   WEIMIN = 0.0000     energy-eigenvalue tresh-hold
   EBREAK =  0.56E-08  absolut break condition
   DEPER  =   0.30     relativ break condition  

   TIME   =   0.40     timestep for ELM

  volume/ion in A,a.u.               =      11.08        74.78
  Fermi-wavevector in a.u.,A,eV,Ry     =   1.445993  2.732531 28.448379  2.090897
  Thomas-Fermi vector in A             =   2.564112
 
 Write flags
   LWAVE        =      F    write WAVECAR
   LDOWNSAMPLE  =      F    k-point downsampling of WAVECAR
   LCHARG       =      F    write CHGCAR
   LVTOT        =      F    write LOCPOT, total local potential
   LVHAR        =      F    write LOCPOT, Hartree potential only
   LELF         =      F    write electronic localiz. function (ELF)
   LORBIT       =     11    0 simple, 1 ext, 2 COOP (PROOUT), +10 PAW based schemes


 Dipole corrections
   LMONO  =      F    monopole corrections only (constant potential shift)
   LDIPOL =      F    correct potential (dipole corrections)
   IDIPOL =      0    1-x, 2-y, 3-z, 4-all directions 
   EPSILON=  1.0000000 bulk dielectric constant

 Exchange correlation treatment:
   GGA     =    --    GGA type
   LEXCH   =     8    internal setting for exchange type
   VOSKOWN=      0    Vosko Wilk Nusair interpolation
   LHFCALC =     F    Hartree Fock is set to
   LHFONE  =     F    Hartree Fock one center treatment
   AEXX    =    0.0000 exact exchange contribution

 Linear response parameters
   LEPSILON=     F    determine dielectric tensor
   LRPA    =     F    only Hartree local field effects (RPA)
   LNABLA  =     F    use nabla operator in PAW spheres
   LVEL    =     F    velocity operator in full k-point grid
   LINTERFAST=   F  fast interpolation
   KINTER  =     0    interpolate to denser k-point grid
   CSHIFT  =0.1000    complex shift for real part using Kramers Kronig
   OMEGAMAX=  -1.0    maximum frequency
   DEG_THRESHOLD= 0.2000000E-02 threshold for treating states as degnerate
   RTIME   =   -0.100 relaxation time in fs
  (WPLASMAI=    0.000 imaginary part of plasma frequency in eV, 0.658/RTIME)
   DFIELD  = 0.0000000 0.0000000 0.0000000 field for delta impulse in time
 
 Orbital magnetization related:
   ORBITALMAG=     F  switch on orbital magnetization
   LCHIMAG   =     F  perturbation theory with respect to B field
   DQ        =  0.001000  dq finite difference perturbation B field
   LLRAUG    =     F  two centre corrections for induced B field



--------------------------------------------------------------------------------------------------------


 Static calculation
 charge density and potential will be updated during run
 spin polarized calculation
 RMM-DIIS sequential band-by-band
 perform sub-space diagonalisation
    before iterative eigenvector-optimisation
 modified Broyden-mixing scheme, WC =      100.0
 initial mixing is a Kerker type mixing with AMIX =  0.4000 and BMIX =      1.0000
 Hartree-type preconditioning will be used
 using additional bands          112
 real space projection scheme for non local part
 use partial core corrections
 calculate Harris-corrections to forces 
   (improved forces if not selfconsistent)
 use gradient corrections 
 use of overlap-Matrix (Vanderbilt PP)
 Gauss-broadening in eV      SIGMA  =   0.05


--------------------------------------------------------------------------------------------------------


  energy-cutoff  :      400.00
  volume of cell :      975.20
      direct lattice vectors                 reciprocal lattice vectors
    10.019000053  0.000000000  0.000000000     0.099810360  0.057625538 -0.000000000
    -5.009500027  8.676708567  0.000000000     0.000000000  0.115251076  0.000000000
     0.000000000  0.000000000 11.218000412     0.000000000  0.000000000  0.089142446

  length of vectors
    10.019000053 10.019000053 11.218000412     0.115251076  0.115251076  0.089142446


 
 k-points in units of 2pi/SCALE and weight: read from INCAR                         
   0.00000000  0.00000000  0.00000000       0.125
   0.04990518  0.02881277 -0.00000000       0.125
   0.00000000  0.05762554  0.00000000       0.125
   0.04990518  0.08643831 -0.00000000       0.125
   0.00000000  0.00000000  0.04457122       0.125
   0.04990518  0.02881277  0.04457122       0.125
   0.00000000  0.05762554  0.04457122       0.125
   0.04990518  0.08643831  0.04457122       0.125
 
 k-points in reciprocal lattice and weights: read from INCAR                         
   0.00000000  0.00000000  0.00000000       0.125
   0.50000000 -0.00000000 -0.00000000       0.125
   0.00000000  0.50000000  0.00000000       0.125
   0.50000000  0.50000000 -0.00000000       0.125
   0.00000000  0.00000000  0.50000000       0.125
   0.50000000 -0.00000000  0.50000000       0.125
   0.00000000  0.50000000  0.50000000       0.125
   0.50000000  0.50000000  0.50000000       0.125
 
 position of ions in fractional coordinates (direct lattice) 
   0.14493109  0.21992507  0.23830539
   0.30084920  0.68226530  0.75876267
   0.47656423  0.51002635  0.76800586
   0.06663250  0.28115401  0.73473076
   0.27556584  0.01735385  0.23580406
   0.65680713  0.21518726  0.24605633
   0.62143722  0.95669820  0.75559188
   0.10496421  0.97809291  0.74190851
   0.94454492  0.68472014  0.24991976
   0.43687292  0.81559630  0.26179710
   0.11700998  0.50498313  0.24458191
   0.78836330  0.71246865  0.74364590
   0.47558671  0.19005956  0.75150737
   0.92981524  0.47949272  0.75210997
   0.79407608  0.99297100  0.25770636
   0.59920411  0.51468727  0.25435995
   0.79228702  0.34797757  0.99744577
   0.43689798  0.14779337  0.49490193
   0.29928153  0.36373124  0.99987516
   0.94454946  0.15905801  0.49733641
   0.28710365  0.85054026  0.99237048
   0.93567044  0.65264840  0.50563913
   0.79679929  0.85383414  0.01213157
   0.44107419  0.65651508  0.50351398
   0.12727917  0.02003195  0.99980993
   0.45974650  0.18381279  0.00997237
   0.10301165  0.98683775  0.48768941
   0.77769946  0.32595886  0.49956497
   0.61610565  0.01435123  0.01273034
   0.95887954  0.18375171  0.99691563
   0.61212097  0.99162591  0.49579335
   0.27878019  0.32538952  0.50401852
   0.62919725  0.51737245  0.99492729
   0.95887049  0.68795557  0.99495846
   0.60129262  0.47712563  0.49724281
   0.26469365  0.81939827  0.50172489
   0.12661620  0.52205165  0.99556761
   0.45752294  0.68370742  0.00296818
   0.10706878  0.49024696  0.50894721
   0.77092581  0.81350548  0.49268406
   0.30235218  0.18449277  0.09051346
   0.46102774  0.02305160  0.10789802
   0.62323660  0.34921998  0.09035211
   0.25470999  0.97428074  0.59804954
   0.43595315  0.32238838  0.59337491
   0.61244390  0.15889320  0.59270189
   0.28926670  0.02641843  0.90619537
   0.46896345  0.34485773  0.91047420
   0.61149659  0.17538563  0.91482436
   0.25971198  0.15753554  0.40026296
   0.43398426  0.96935029  0.40379300
   0.62439671  0.33907789  0.39842930
   0.78971650  0.17693576  0.10045017
   0.97972135  0.04187210  0.09253521
   0.11075985  0.35152270  0.09026832
   0.75749611  0.96938487  0.59005703
   0.93933491  0.33588313  0.59374218
   0.11806027  0.15628622  0.58551968
   0.78188183  0.02921730  0.92126044
   0.96737084  0.34968329  0.90826347
   0.11771381  0.17995303  0.90532177
   0.77186188  0.16092508  0.40491797
   0.93770341  0.97833527  0.40181493
   0.11521767  0.33982010  0.41625244
   0.78878030  0.66166680  0.09611784
   0.97969268  0.53788023  0.08665395
   0.11266882  0.85421677  0.09784007
   0.76700910  0.47730196  0.59469600
   0.93891127  0.83120113  0.58420215
   0.11450151  0.65420314  0.59403367
   0.79157855  0.53007197  0.90070419
   0.97283569  0.85180572  0.90386875
   0.11161359  0.67522840  0.89842215
   0.75834615  0.64938219  0.40452129
   0.94348479  0.47927621  0.41370564
   0.11263514  0.83519343  0.40545639
   0.29640146  0.66863603  0.09372348
   0.47377188  0.51824145  0.09109645
   0.61634557  0.84612961  0.09990640
   0.25881079  0.47654822  0.60356478
   0.44127913  0.83827640  0.59027097
   0.62246953  0.65773674  0.58832143
   0.29771119  0.53608692  0.89911746
   0.45910640  0.84523526  0.92184878
   0.62152128  0.68530825  0.90159562
   0.25809181  0.64874716  0.41329023
   0.43325519  0.46753443  0.41228203
   0.60990529  0.83354649  0.40549383
 
 position of ions in cartesian coordinates  (Angst):
   0.35034997  1.90822570  2.67331000
  -0.40359984  5.91981713  8.51180000
   2.21972005  4.42535000  8.61549000
  -0.74084997  2.43949143  8.24221000
   2.67396003  0.15057430  2.64525000
   5.50257005  1.86711713  2.76026000
   1.43359992  8.30099143  8.47623000
  -3.84812005  8.48662713  8.32273000
   6.03329000  5.94111713  2.80360000
   0.29130008  7.07669143  2.93684000
  -1.35739003  4.38159143  2.74372000
   4.32950016  6.18188287  8.34222000
   3.81279987  1.64909143  8.43041000
   6.91380019  4.16041857  8.43717000
   2.98156005  8.61572000  2.89095000
   3.42510008  4.46579143  2.85341000
   6.19473000  3.01930000 11.18934701
   3.63691000  1.28236000  5.55181000
   1.17639000  3.15599000 11.21660000
   8.66664000  1.38010000  5.57912000
  -1.38429000  7.37989000 11.13241241
   6.10504000  5.66284000  5.67226000
   3.70585000  7.40847000  0.13609200
   1.13031000  5.69639000  5.64842000
   1.17485997  0.17381143 11.21586825
   3.68539000  1.59489000  0.11187000
  -3.91149003  8.56250357  5.47090000
   6.15888000  2.82825000  5.60412000
   6.10087003  0.12452143  0.14280900
   8.68651000  1.59436000 11.18340000
   1.16528997  8.60404907  5.56181000
   1.16306000  2.82331000  5.65408000
   3.71215000  4.48909000 11.16109471
   6.16061000  5.96919000 11.16144441
   3.63419000  4.13988000  5.57807000
  -1.45281000  7.10968000  5.62835000
  -1.34665000  4.52969000 11.16827781
   1.15889000  5.93233000  0.03329700
  -1.38317000  4.25373000  5.70937000
   3.64865000  7.05855000  5.52693000
   2.10505000  1.60079000  1.01538000
   4.50356000  0.20001200  1.21040000
   4.49479000  3.03008000  1.01357000
  -2.32872000  8.45355000  6.70892000
   2.75281000  2.79727000  6.65648000
   5.34010000  1.37867000  6.64893000
   2.76582000  0.22922500 10.16570000
   2.97098000  2.99223000 10.21370000
   5.24799000  1.52177000 10.26250000
   1.81288000  1.36689000  4.49015000
  -0.50787200  8.41077000  4.52975000
   4.55722000  2.94208000  4.46958000
   7.02581000  1.53522000  1.12685000
   9.60607000  0.36331200  1.03806000
  -0.65125005  3.05006000  1.01263000
   2.73322000  8.41107000  6.61926000
   7.72859000  2.91436000  6.66060000
   0.39993000  1.35605000  6.56836000
   7.68731000  0.25351000 10.33470000
   7.94035000  3.03410000 10.18890000
   0.27789995  1.56140000 10.15590000
   6.92713000  1.39630000  4.54237000
   4.49388000  8.48873000  4.50756000
  -0.54796300  2.94852000  4.66952000
   4.58817000  5.74109000  1.07825000
   7.12103000  4.66703000  0.97208400
  -3.15037005  7.41179000  1.09757000
   5.29362000  4.14141000  6.67130000
   5.24305000  7.21209000  6.55358000
  -2.13004000  5.67633000  6.66387000
   5.27543000  4.59928000 10.10410000
   5.47972000  7.39087000 10.13960000
  -2.26430005  5.85876000 10.07850000
   4.34479000  5.63450000  4.53792000
   7.05184000  4.15854000  4.64095000
  -3.05541000  7.24673000  4.54841000
  -0.37988600  5.80156000  1.05139000
   2.15059000  4.49663000  1.02192000
   1.93648000  7.34162000  1.12075000
   0.20575700  4.13487000  6.77079000
   0.22183000  7.27348000  6.62166000
   2.94159000  5.70699000  6.59979000
   0.29724100  4.65147000 10.08630000
   0.36558100  7.33386000 10.34130000
   2.79397000  5.94622000 10.11410000
  -0.66407700  5.62899000  4.63629000
   1.99867000  4.05666000  4.62498000
   1.93499000  7.23244000  4.54883000
 


--------------------------------------------------------------------------------------------------------


 k-point  1 :   0.0000 0.0000 0.0000  plane waves:   17725
 k-point  2 :   0.5000-0.0000-0.0000  plane waves:   17736
 k-point  3 :   0.0000 0.5000 0.0000  plane waves:   17736
 k-point  4 :   0.5000 0.5000-0.0000  plane waves:   17736
 k-point  5 :   0.0000 0.0000 0.5000  plane waves:   17676
 k-point  6 :   0.5000-0.0000 0.5000  plane waves:   17700
 k-point  7 :   0.0000 0.5000 0.5000  plane waves:   17700
 k-point  8 :   0.5000 0.5000 0.5000  plane waves:   17700

 maximum and minimum number of plane-waves per node :     17736    17676

 maximum number of plane-waves:     17736
 maximum index in each direction: 
   IXMAX=   16   IYMAX=   16   IZMAX=   18
   IXMIN=  -16   IYMIN=  -16   IZMIN=  -18


 serial   3D FFT for wavefunctions
 parallel 3D FFT for charge:
    minimum data exchange during FFTs selected (reduces bandwidth)


 total amount of memory used by VASP MPI-rank0    88177. kBytes
=======================================================================

   base      :      30000. kBytes
   nonlr-proj:      13668. kBytes
   fftplans  :        992. kBytes
   grid      :      21513. kBytes
   one-center:       2737. kBytes
   wavefun   :      19267. kBytes
 
     INWAV:  cpu time    0.0000: real time    0.0001
 Broyden mixing: mesh for mixing (old mesh)
   NGX = 33   NGY = 33   NGZ = 37
  (NGX  =100   NGY  =100   NGZ  =112)
  gives a total of  40293 points

 initial charge density was supplied:
 charge density of overlapping atoms calculated
 number of electron     672.0000000 magnetization      48.0000000
 keeping initial charge density in first step


--------------------------------------------------------------------------------------------------------


 Maximum index for non-local projection operator         1548
 Maximum index for augmentation-charges          250 (set IRDMAX)


--------------------------------------------------------------------------------------------------------


 First call to EWALD:  gamma=   0.179
 Maximum number of real-space cells 3x 3x 2
 Maximum number of reciprocal cells 3x 3x 3

    FEWALD:  cpu time    0.0027: real time    0.0029


--------------------------------------- Iteration      1(   1)  ---------------------------------------


    POTLOK:  cpu time    0.2042: real time    0.2053
    SETDIJ:  cpu time    3.1340: real time    3.1349
    EDDIAG:  cpu time    3.7760: real time    3.7797
  RMM-DIIS:  cpu time    6.6027: real time    6.6090
    ORTHCH:  cpu time    1.1464: real time    1.1487
       DOS:  cpu time    0.0021: real time    0.0021
    --------------------------------------------
      LOOP:  cpu time   14.8654: real time   14.8797

 eigenvalue-minimisations  :  7168
 total energy-change (2. order) : 0.1869345E+04  (-0.3595024E+05)
 number of electron     672.0000000 magnetization      48.0000000
 augmentation part      672.0000000 magnetization      48.0000000

 Free energy of the ion-electron system (eV)
  ---------------------------------------------------
  alpha Z        PSCENC =      2652.81237852
  Ewald energy   TEWEN  =    -41864.96930879
  -Hartree energ DENC   =    -25749.18149599
  -exchange      EXHF   =         0.00000000
  -V(xc)+E(xc)   XCENC  =      3605.92855204
  PAW double counting   =     55594.23204139   -59034.67079123
  entropy T*S    EENTRO =        -0.04160900
  eigenvalues    EBANDS =     -7196.96261644
  atomic energy  EATOM  =     73862.19814772
  Solvation  Ediel_sol  =         0.00000000
  ---------------------------------------------------
  free energy    TOTEN  =      1869.34529823 eV

  energy without entropy =     1869.38690723  energy(sigma->0) =     1869.36610273


--------------------------------------------------------------------------------------------------------




--------------------------------------- Iteration      1(   2)  ---------------------------------------


    EDDIAG:  cpu time    3.7088: real time    3.7125
  RMM-DIIS:  cpu time    6.5863: real time    6.6077
    ORTHCH:  cpu time    1.1500: real time    1.1524
       DOS:  cpu time    0.0014: real time    0.0014
    --------------------------------------------
      LOOP:  cpu time   11.4464: real time   11.4739

 eigenvalue-minimisations  :  7168
 total energy-change (2. order) :-0.2720368E+04  (-0.8698678E+04)
 number of electron     672.0000000 magnetization      48.0000000
 augmentation part      672.0000000 magnetization      48.0000000

 Free energy of the ion-electron system (eV)
  ---------------------------------------------------
  alpha Z        PSCENC =      2652.81237852
  Ewald energy   TEWEN  =    -41864.96930879
  -Hartree energ DENC   =    -25749.18149599
  -exchange      EXHF   =         0.00000000
  -V(xc)+E(xc)   XCENC  =      3605.92855204
  PAW double counting   =     55594.23204139   -59034.67079123
  entropy T*S    EENTRO =        -0.03210682
  eigenvalues    EBANDS =     -9917.34004881
  atomic energy  EATOM  =     73862.19814772
  Solvation  Ediel_sol  =         0.00000000
  ---------------------------------------------------
  free energy    TOTEN  =      -851.02263197 eV

  energy without entropy =     -850.99052514  energy(sigma->0) =     -851.00657855


--------------------------------------------------------------------------------------------------------




--------------------------------------- Iteration      1(   3)  ---------------------------------------


    EDDIAG:  cpu time    3.7383: real time    3.7425
  RMM-DIIS:  cpu time    6.6134: real time    6.6160
    ORTHCH:  cpu time    1.1498: real time    1.1526
       DOS:  cpu time    0.0015: real time    0.0015
    --------------------------------------------
      LOOP:  cpu time   11.5030: real time   11.5127

 eigenvalue-minimisations  :  7168
 total energy-change (2. order) : 0.3143035E+03  (-0.1563446E+04)
 number of electron     672.0000000 magnetization      48.0000000
 augmentation part      672.0000000 magnetization      48.0000000

 Free energy of the ion-electron system (eV)
  ---------------------------------------------------
  alpha Z        PSCENC =      2652.81237852
  Ewald energy   TEWEN  =    -41864.96930879
  -Hartree energ DENC   =    -25749.18149599
  -exchange      EXHF   =         0.00000000
  -V(xc)+E(xc)   XCENC  =      3605.92855204
  PAW double counting   =     55594.23204139   -59034.67079123
  entropy T*S    EENTRO =        -0.03668337
  eigenvalues    EBANDS =     -9603.03198293
  atomic energy  EATOM  =     73862.19814772
  Solvation  Ediel_sol  =         0.00000000
  ---------------------------------------------------
  free energy    TOTEN  =      -536.71914263 eV

  energy without entropy =     -536.68245926  energy(sigma->0) =     -536.70080095


--------------------------------------------------------------------------------------------------------




--------------------------------------- Iteration      1(   4)  ---------------------------------------


    EDDIAG:  cpu time    3.7206: real time    3.7255
  RMM-DIIS:  cpu time    6.6096: real time    6.6128
    ORTHCH:  cpu time    1.1535: real time    1.1557
       DOS:  cpu time    0.0012: real time    0.0012
    --------------------------------------------
      LOOP:  cpu time   11.4848: real time   11.4952

 eigenvalue-minimisations  :  7168
 total energy-change (2. order) :-0.5221449E+03  (-0.5067091E+03)
 number of electron     672.0000000 magnetization      48.0000000
 augmentation part      672.0000000 magnetization      48.0000000

 Free energy of the ion-electron system (eV)
  ---------------------------------------------------
  alpha Z        PSCENC =      2652.81237852
  Ewald energy   TEWEN  =    -41864.96930879
  -Hartree energ DENC   =    -25749.18149599
  -exchange      EXHF   =         0.00000000
  -V(xc)+E(xc)   XCENC  =      3605.92855204
  PAW double counting   =     55594.23204139   -59034.67079123
  entropy T*S    EENTRO =        -0.00131365
  eigenvalues    EBANDS =    -10125.21221365
  atomic energy  EATOM  =     73862.19814772
  Solvation  Ediel_sol  =         0.00000000
  ---------------------------------------------------
  free energy    TOTEN  =     -1058.86400363 eV

  energy without entropy =    -1058.86268998  energy(sigma->0) =    -1058.86334680


--------------------------------------------------------------------------------------------------------




--------------------------------------- Iteration      1(   5)  ---------------------------------------


    EDDIAG:  cpu time    3.7411: real time    3.7537
  RMM-DIIS:  cpu time    6.6125: real time    6.6181
    ORTHCH:  cpu time    1.1484: real time    1.1506
       DOS:  cpu time    0.0010: real time    0.0010
    --------------------------------------------
      LOOP:  cpu time   11.5031: real time   11.5234

 eigenvalue-minimisations  :  7168
 total energy-change (2. order) :-0.1468499E+03  (-0.2117518E+03)
 number of electron     672.0000000 magnetization      48.0000000
 augmentation part      672.0000000 magnetization      48.0000000

 Free energy of the ion-electron system (eV)
  ---------------------------------------------------
  alpha Z        PSCENC =      2652.81237852
  Ewald energy   TEWEN  =    -41864.96930879
  -Hartree energ DENC   =    -25749.18149599
  -exchange      EXHF   =         0.00000000
  -V(xc)+E(xc)   XCENC  =      3605.92855204
  PAW double counting   =     55594.23204139   -59034.67079123
  entropy T*S    EENTRO =        -0.00000000
  eigenvalues    EBANDS =    -10272.06339895
  atomic energy  EATOM  =     73862.19814772
  Solvation  Ediel_sol  =         0.00000000
  ---------------------------------------------------
  free energy    TOTEN  =     -1205.71387529 eV

  energy without entropy =    -1205.71387529  energy(sigma->0) =    -1205.71387529


--------------------------------------------------------------------------------------------------------




--------------------------------------- Iteration      1(   6)  ---------------------------------------


    EDDIAG:  cpu time    3.7424: real time    3.7448
  RMM-DIIS:  cpu time    6.5945: real time    6.6002
    ORTHCH:  cpu time    1.1625: real time    1.1649
       DOS:  cpu time    0.0011: real time    0.0011
    --------------------------------------------
      LOOP:  cpu time   11.5006: real time   11.5110

 eigenvalue-minimisations  :  7168
 total energy-change (2. order) :-0.2168517E+02  (-0.1148999E+03)
 number of electron     672.0000000 magnetization      48.0000000
 augmentation part      672.0000000 magnetization      48.0000000

 Free energy of the ion-electron system (eV)
  ---------------------------------------------------
  alpha Z        PSCENC =      2652.81237852
  Ewald energy   TEWEN  =    -41864.96930879
  -Hartree energ DENC   =    -25749.18149599
  -exchange      EXHF   =         0.00000000
  -V(xc)+E(xc)   XCENC  =      3605.92855204
  PAW double counting   =     55594.23204139   -59034.67079123
  entropy T*S    EENTRO =        -0.00000000
  eigenvalues    EBANDS =    -10293.74857025
  atomic energy  EATOM  =     73862.19814772
  Solvation  Ediel_sol  =         0.00000000
  ---------------------------------------------------
  free energy    TOTEN  =     -1227.39904659 eV

  energy without entropy =    -1227.39904659  energy(sigma->0) =    -1227.39904659


--------------------------------------------------------------------------------------------------------




--------------------------------------- Iteration      1(   7)  ---------------------------------------


    EDDIAG:  cpu time    3.7331: real time    3.7362
  RMM-DIIS:  cpu time    6.5939: real time    6.6091
    ORTHCH:  cpu time    1.1587: real time    1.1621
       DOS:  cpu time    0.0010: real time    0.0010
    --------------------------------------------
      LOOP:  cpu time   11.4868: real time   11.5085

 eigenvalue-minimisations  :  7168
 total energy-change (2. order) :-0.6516710E+01  (-0.7579135E+02)
 number of electron     672.0000000 magnetization      48.0000000
 augmentation part      672.0000000 magnetization      48.0000000

 Free energy of the ion-electron system (eV)
  ---------------------------------------------------
  alpha Z        PSCENC =      2652.81237852
  Ewald energy   TEWEN  =    -41864.96930879
  -Hartree energ DENC   =    -25749.18149599
  -exchange      EXHF   =         0.00000000
  -V(xc)+E(xc)   XCENC  =      3605.92855204
  PAW double counting   =     55594.23204139   -59034.67079123
  entropy T*S    EENTRO =        -0.00000000
  eigenvalues    EBANDS =    -10300.26528021
  atomic energy  EATOM  =     73862.19814772
  Solvation  Ediel_sol  =         0.00000000
  ---------------------------------------------------
  free energy    TOTEN  =     -1233.91575654 eV

  energy without entropy =    -1233.91575654  energy(sigma->0) =    -1233.91575654


--------------------------------------------------------------------------------------------------------




--------------------------------------- Iteration      1(   8)  ---------------------------------------


    EDDIAG:  cpu time    3.7482: real time    3.7519
  RMM-DIIS:  cpu time    6.6043: real time    6.6149
    ORTHCH:  cpu time    1.1782: real time    1.1804
       DOS:  cpu time    0.0012: real time    0.0012
    --------------------------------------------
      LOOP:  cpu time   11.5318: real time   11.5483

 eigenvalue-minimisations  :  7168
 total energy-change (2. order) : 0.4619312E+01  (-0.5253841E+02)
 number of electron     672.0000000 magnetization      48.0000000
 augmentation part      672.0000000 magnetization      48.0000000

 Free energy of the ion-electron system (eV)
  ---------------------------------------------------
  alpha Z        PSCENC =      2652.81237852
  Ewald energy   TEWEN  =    -41864.96930879
  -Hartree energ DENC   =    -25749.18149599
  -exchange      EXHF   =         0.00000000
  -V(xc)+E(xc)   XCENC  =      3605.92855204
  PAW double counting   =     55594.23204139   -59034.67079123
  entropy T*S    EENTRO =        -0.00000000
  eigenvalues    EBANDS =    -10295.64596775
  atomic energy  EATOM  =     73862.19814772
  Solvation  Ediel_sol  =         0.00000000
  ---------------------------------------------------
  free energy    TOTEN  =     -1229.29644409 eV

  energy without entropy =    -1229.29644409  energy(sigma->0) =    -1229.29644409


--------------------------------------------------------------------------------------------------------




--------------------------------------- Iteration      1(   9)  ---------------------------------------


    EDDIAG:  cpu time    3.7481: real time    3.7522
  RMM-DIIS:  cpu time   13.7511: real time   13.8449
    ORTHCH:  cpu time    1.1834: real time    1.1869
       DOS:  cpu time    0.0010: real time    0.0010
    --------------------------------------------
      LOOP:  cpu time   18.6837: real time   18.7850

 eigenvalue-minimisations  : 20247
 total energy-change (2. order) : 0.1804638E+02  (-0.2355670E+02)
 number of electron     672.0000000 magnetization      48.0000000
 augmentation part      672.0000000 magnetization      48.0000000

 Free energy of the ion-electron system (eV)
  ---------------------------------------------------
  alpha Z        PSCENC =      2652.81237852
  Ewald energy   TEWEN  =    -41864.96930879
  -Hartree energ DENC   =    -25749.18149599
  -exchange      EXHF   =         0.00000000
  -V(xc)+E(xc)   XCENC  =      3605.92855204
  PAW double counting   =     55594.23204139   -59034.67079123
  entropy T*S    EENTRO =        -0.00000000
  eigenvalues    EBANDS =    -10277.59959155
  atomic energy  EATOM  =     73862.19814772
  Solvation  Ediel_sol  =         0.00000000
  ---------------------------------------------------
  free energy    TOTEN  =     -1211.25006788 eV

  energy without entropy =    -1211.25006788  energy(sigma->0) =    -1211.25006788


--------------------------------------------------------------------------------------------------------




--------------------------------------- Iteration      1(  10)  ---------------------------------------


    EDDIAG:  cpu time    3.7189: real time    3.7230
  RMM-DIIS:  cpu time   15.7833: real time   15.7920
    ORTHCH:  cpu time    1.1535: real time    1.1557
       DOS:  cpu time    0.0011: real time    0.0011
    --------------------------------------------
      LOOP:  cpu time   20.6568: real time   20.6717

 eigenvalue-minimisations  : 20182
 total energy-change (2. order) :-0.3075832E+01  (-0.1029804E+01)
 number of electron     672.0000000 magnetization      48.0000000
 augmentation part      672.0000000 magnetization      48.0000000

 Free energy of the ion-electron system (eV)
  ---------------------------------------------------
  alpha Z        PSCENC =      2652.81237852
  Ewald energy   TEWEN  =    -41864.96930879
  -Hartree energ DENC   =    -25749.18149599
  -exchange      EXHF   =         0.00000000
  -V(xc)+E(xc)   XCENC  =      3605.92855204
  PAW double counting   =     55594.23204139   -59034.67079123
  entropy T*S    EENTRO =        -0.00000001
  eigenvalues    EBANDS =    -10280.67542372
  atomic energy  EATOM  =     73862.19814772
  Solvation  Ediel_sol  =         0.00000000
  ---------------------------------------------------
  free energy    TOTEN  =     -1214.32590006 eV

  energy without entropy =    -1214.32590005  energy(sigma->0) =    -1214.32590005


--------------------------------------------------------------------------------------------------------




--------------------------------------- Iteration      1(  11)  ---------------------------------------


    EDDIAG:  cpu time    3.7337: real time    3.7373
  RMM-DIIS:  cpu time   15.1991: real time   15.2499
    ORTHCH:  cpu time    1.2124: real time    1.2147
       DOS:  cpu time    0.0011: real time    0.0011
    --------------------------------------------
      LOOP:  cpu time   20.1463: real time   20.2030

 eigenvalue-minimisations  : 21719
 total energy-change (2. order) : 0.1044887E+00  (-0.9710217E-01)
 number of electron     672.0000000 magnetization      48.0000000
 augmentation part      672.0000000 magnetization      48.0000000

 Free energy of the ion-electron system (eV)
  ---------------------------------------------------
  alpha Z        PSCENC =      2652.81237852
  Ewald energy   TEWEN  =    -41864.96930879
  -Hartree energ DENC   =    -25749.18149599
  -exchange      EXHF   =         0.00000000
  -V(xc)+E(xc)   XCENC  =      3605.92855204
  PAW double counting   =     55594.23204139   -59034.67079123
  entropy T*S    EENTRO =        -0.00000003
  eigenvalues    EBANDS =    -10280.57093505
  atomic energy  EATOM  =     73862.19814772
  Solvation  Ediel_sol  =         0.00000000
  ---------------------------------------------------
  free energy    TOTEN  =     -1214.22141141 eV

  energy without entropy =    -1214.22141138  energy(sigma->0) =    -1214.22141140


--------------------------------------------------------------------------------------------------------




--------------------------------------- Iteration      1(  12)  ---------------------------------------


    EDDIAG:  cpu time    3.7714: real time    3.7775
  RMM-DIIS:  cpu time   16.0914: real time   16.1151
    ORTHCH:  cpu time    1.1454: real time    1.1476
       DOS:  cpu time    0.0012: real time    0.0012
    CHARGE:  cpu time    1.3395: real time    1.3412
    MIXING:  cpu time    0.0013: real time    0.0016
    --------------------------------------------
      LOOP:  cpu time   22.3502: real time   22.3841

 eigenvalue-minimisations  : 22826
 total energy-change (2. order) : 0.6867413E-02  (-0.6734307E-02)
 number of electron     672.0000122 magnetization      48.0000021
 augmentation part      239.0565322 magnetization      29.0449848

 Broyden mixing:
  rms(total) = 0.12546E+02    rms(broyden)= 0.12537E+02
  rms(prec ) = 0.14397E+02
  weight for this iteration     100.00

 Free energy of the ion-electron system (eV)
  ---------------------------------------------------
  alpha Z        PSCENC =      2652.81237852
  Ewald energy   TEWEN  =    -41864.96930879
  -Hartree energ DENC   =    -25749.18149599
  -exchange      EXHF   =         0.00000000
  -V(xc)+E(xc)   XCENC  =      3605.92855204
  PAW double counting   =     55594.23204139   -59034.67079123
  entropy T*S    EENTRO =        -0.00000002
  eigenvalues    EBANDS =    -10280.56406764
  atomic energy  EATOM  =     73862.19814772
  Solvation  Ediel_sol  =         0.00000000
  ---------------------------------------------------
  free energy    TOTEN  =     -1214.21454400 eV

  energy without entropy =    -1214.21454397  energy(sigma->0) =    -1214.21454399


--------------------------------------------------------------------------------------------------------




--------------------------------------- Iteration      1(  13)  ---------------------------------------


    POTLOK:  cpu time    0.1978: real time    0.1989
    SETDIJ:  cpu time    3.3042: real time    3.3050
    EDDIAG:  cpu time    3.7475: real time    3.7505
  RMM-DIIS:  cpu time   13.0332: real time   13.0429
    ORTHCH:  cpu time    1.1974: real time    1.2001
       DOS:  cpu time    0.0013: real time    0.0013
    CHARGE:  cpu time    1.3409: real time    1.3412
    MIXING:  cpu time    0.0009: real time    0.0009
    --------------------------------------------
      LOOP:  cpu time   22.8231: real time   22.8408

 eigenvalue-minimisations  : 17315
 total energy-change (2. order) : 0.2250056E+03  (-0.1376979E+03)
 number of electron     672.0000109 magnetization      48.0000025
 augmentation part      268.8334719 magnetization      26.6749873

 Broyden mixing:
  rms(total) = 0.13882E+02    rms(broyden)= 0.13879E+02
  rms(prec ) = 0.15593E+02
  weight for this iteration     100.00

 eigenvalues of (default mixing * dielectric matrix)
  average eigenvalue GAMMA=   0.3178
  0.3178

 Free energy of the ion-electron system (eV)
  ---------------------------------------------------
  alpha Z        PSCENC =      2652.81237852
  Ewald energy   TEWEN  =    -41864.96930879
  -Hartree energ DENC   =    -25076.75169839
  -exchange      EXHF   =         0.00000000
  -V(xc)+E(xc)   XCENC  =      3696.19085752
  PAW double counting   =     59884.04964899   -63309.05042448
  entropy T*S    EENTRO =        -0.07603421
  eigenvalues    EBANDS =    -10833.61253528
  atomic energy  EATOM  =     73862.19814772
  Solvation  Ediel_sol  =         0.00000000
  ---------------------------------------------------
  free energy    TOTEN  =      -989.20896840 eV

  energy without entropy =     -989.13293419  energy(sigma->0) =     -989.17095129


--------------------------------------------------------------------------------------------------------




--------------------------------------- Iteration      1(  14)  ---------------------------------------


    POTLOK:  cpu time    0.2065: real time    0.2069
    SETDIJ:  cpu time    3.2820: real time    3.2979
    EDDIAG:  cpu time    3.7529: real time    3.7561
  RMM-DIIS:  cpu time   13.6855: real time   13.6941
    ORTHCH:  cpu time    1.1684: real time    1.1708
       DOS:  cpu time    0.0010: real time    0.0010
    CHARGE:  cpu time    1.3401: real time    1.3405
    MIXING:  cpu time    0.0008: real time    0.0008
    --------------------------------------------
      LOOP:  cpu time   23.4371: real time   23.4681

 eigenvalue-minimisations  : 17802
 total energy-change (2. order) : 0.7418171E+02  (-0.1836431E+02)
 number of electron     672.0000122 magnetization      48.0000040
 augmentation part      246.6747372 magnetization      32.2307845

 Broyden mixing:
  rms(total) = 0.52425E+01    rms(broyden)= 0.52382E+01
  rms(prec ) = 0.56485E+01
  weight for this iteration     100.00

 eigenvalues of (default mixing * dielectric matrix)
  average eigenvalue GAMMA=   0.7296
  1.0990  0.3602

 Free energy of the ion-electron system (eV)
  ---------------------------------------------------
  alpha Z        PSCENC =      2652.81237852
  Ewald energy   TEWEN  =    -41864.96930879
  -Hartree energ DENC   =    -25685.15330403
  -exchange      EXHF   =         0.00000000
  -V(xc)+E(xc)   XCENC  =      3673.96922211
  PAW double counting   =     63296.69951451   -66778.72009465
  entropy T*S    EENTRO =        -0.00000000
  eigenvalues    EBANDS =    -10071.86381156
  atomic energy  EATOM  =     73862.19814772
  Solvation  Ediel_sol  =         0.00000000
  ---------------------------------------------------
  free energy    TOTEN  =      -915.02725616 eV

  energy without entropy =     -915.02725616  energy(sigma->0) =     -915.02725616


--------------------------------------------------------------------------------------------------------




--------------------------------------- Iteration      1(  15)  ---------------------------------------


    POTLOK:  cpu time    0.2010: real time    0.2020
    SETDIJ:  cpu time    3.3009: real time    3.3017
    EDDIAG:  cpu time    3.8046: real time    3.8184
  RMM-DIIS:  cpu time   13.6647: real time   13.6774
    ORTHCH:  cpu time    1.1825: real time    1.1848
       DOS:  cpu time    0.0012: real time    0.0012
    CHARGE:  cpu time    1.3452: real time    1.3456
    MIXING:  cpu time    0.0006: real time    0.0006
    --------------------------------------------
      LOOP:  cpu time   23.5008: real time   23.5318

 eigenvalue-minimisations  : 18409
 total energy-change (2. order) : 0.1327494E+02  (-0.1983581E+01)
 number of electron     672.0000112 magnetization      48.0000050
 augmentation part      249.6767273 magnetization      33.8258637

 Broyden mixing:
  rms(total) = 0.21435E+01    rms(broyden)= 0.21432E+01
  rms(prec ) = 0.22239E+01
  weight for this iteration     100.00

 eigenvalues of (default mixing * dielectric matrix)
  average eigenvalue GAMMA=   0.9543
  0.3859  0.7562  1.7206

 Free energy of the ion-electron system (eV)
  ---------------------------------------------------
  alpha Z        PSCENC =      2652.81237852
  Ewald energy   TEWEN  =    -41864.96930879
  -Hartree energ DENC   =    -25605.80940826
  -exchange      EXHF   =         0.00000000
  -V(xc)+E(xc)   XCENC  =      3706.30248036
  PAW double counting   =     67377.77909604   -70900.28061593
  entropy T*S    EENTRO =        -0.00000000
  eigenvalues    EBANDS =    -10129.78508177
  atomic energy  EATOM  =     73862.19814772
  Solvation  Ediel_sol  =         0.00000000
  ---------------------------------------------------
  free energy    TOTEN  =      -901.75231211 eV

  energy without entropy =     -901.75231211  energy(sigma->0) =     -901.75231211


--------------------------------------------------------------------------------------------------------




--------------------------------------- Iteration      1(  16)  ---------------------------------------


    POTLOK:  cpu time    0.2067: real time    0.2077
    SETDIJ:  cpu time    3.3347: real time    3.3364
    EDDIAG:  cpu time    3.7294: real time    3.7318
  RMM-DIIS:  cpu time   13.2049: real time   13.2313
    ORTHCH:  cpu time    1.1695: real time    1.1718
       DOS:  cpu time    0.0010: real time    0.0010
    CHARGE:  cpu time    1.3485: real time    1.3490
    MIXING:  cpu time    0.0008: real time    0.0008
    --------------------------------------------
      LOOP:  cpu time   22.9955: real time   23.0298

 eigenvalue-minimisations  : 17389
 total energy-change (2. order) :-0.1528399E+01  (-0.7004705E+00)
 number of electron     672.0000113 magnetization      48.0000053
 augmentation part      251.1782906 magnetization      33.9203299

 Broyden mixing:
  rms(total) = 0.14028E+01    rms(broyden)= 0.14023E+01
  rms(prec ) = 0.14927E+01
  weight for this iteration     100.00

 eigenvalues of (default mixing * dielectric matrix)
  average eigenvalue GAMMA=   0.9747
  2.0765  0.9019  0.3930  0.5275

 Free energy of the ion-electron system (eV)
  ---------------------------------------------------
  alpha Z        PSCENC =      2652.81237852
  Ewald energy   TEWEN  =    -41864.96930879
  -Hartree energ DENC   =    -25555.03064762
  -exchange      EXHF   =         0.00000000
  -V(xc)+E(xc)   XCENC  =      3707.63517269
  PAW double counting   =     70353.81068541   -73906.53954774
  entropy T*S    EENTRO =        -0.00000000
  eigenvalues    EBANDS =    -10153.19759170
  atomic energy  EATOM  =     73862.19814772
  Solvation  Ediel_sol  =         0.00000000
  ---------------------------------------------------
  free energy    TOTEN  =      -903.28071151 eV

  energy without entropy =     -903.28071151  energy(sigma->0) =     -903.28071151


--------------------------------------------------------------------------------------------------------




--------------------------------------- Iteration      1(  17)  ---------------------------------------


    POTLOK:  cpu time    0.2102: real time    0.2105
    SETDIJ:  cpu time    3.3392: real time    3.3400
    EDDIAG:  cpu time    3.7937: real time    3.7971
  RMM-DIIS:  cpu time   13.6895: real time   13.7064
    ORTHCH:  cpu time    1.1521: real time    1.1543
       DOS:  cpu time    0.0010: real time    0.0010
    CHARGE:  cpu time    1.3487: real time    1.3513
    MIXING:  cpu time    0.0015: real time    0.0015
    --------------------------------------------
      LOOP:  cpu time   23.5359: real time   23.5620

 eigenvalue-minimisations  : 18410
 total energy-change (2. order) : 0.1833193E+00  (-0.6356117E-01)
 number of electron     672.0000112 magnetization      48.0000055
 augmentation part      251.0664561 magnetization      33.9135085

 Broyden mixing:
  rms(total) = 0.75053E+00    rms(broyden)= 0.75044E+00
  rms(prec ) = 0.84387E+00
  weight for this iteration     100.00

 eigenvalues of (default mixing * dielectric matrix)
  average eigenvalue GAMMA=   1.0055
  2.2436  1.1331  0.3833  0.7046  0.5629

 Free energy of the ion-electron system (eV)
  ---------------------------------------------------
  alpha Z        PSCENC =      2652.81237852
  Ewald energy   TEWEN  =    -41864.96930879
  -Hartree energ DENC   =    -25547.64278472
  -exchange      EXHF   =         0.00000000
  -V(xc)+E(xc)   XCENC  =      3704.69469142
  PAW double counting   =     71179.13656573   -74739.98035089
  entropy T*S    EENTRO =        -0.00000000
  eigenvalues    EBANDS =    -10149.34673123
  atomic energy  EATOM  =     73862.19814772
  Solvation  Ediel_sol  =         0.00000000
  ---------------------------------------------------
  free energy    TOTEN  =      -903.09739223 eV

  energy without entropy =     -903.09739223  energy(sigma->0) =     -903.09739223


--------------------------------------------------------------------------------------------------------




--------------------------------------- Iteration      1(  18)  ---------------------------------------


    POTLOK:  cpu time    0.1993: real time    0.2003
    SETDIJ:  cpu time    3.3455: real time    3.3469
    EDDIAG:  cpu time    3.7414: real time    3.7437
  RMM-DIIS:  cpu time   13.2942: real time   13.3026
    ORTHCH:  cpu time    1.1664: real time    1.1686
       DOS:  cpu time    0.0012: real time    0.0012
    CHARGE:  cpu time    1.3465: real time    1.3471
    MIXING:  cpu time    0.0012: real time    0.0012
    --------------------------------------------
      LOOP:  cpu time   23.0955: real time   23.1115

 eigenvalue-minimisations  : 17720
 total energy-change (2. order) : 0.3862793E+00  (-0.7097089E-01)
 number of electron     672.0000114 magnetization      48.0000056
 augmentation part      250.5724474 magnetization      33.8756597

 Broyden mixing:
  rms(total) = 0.26187E+00    rms(broyden)= 0.26157E+00
  rms(prec ) = 0.27523E+00
  weight for this iteration     100.00

 eigenvalues of (default mixing * dielectric matrix)
  average eigenvalue GAMMA=   1.0225
  2.4769  1.3506  0.8527  0.3849  0.5853  0.4845

 Free energy of the ion-electron system (eV)
[...]
   4      -0.795    -0.628     1.423    -0.128    -0.330    -0.331
   5      -0.698    -0.899     1.597     0.085    -0.038    -0.562
   6      -0.846    -0.617     1.463    -0.084     0.470     0.347
   7      -0.945    -0.804     1.749    -0.004    -0.065    -0.012
   8      -1.069    -0.803     1.872    -0.092    -0.025    -0.035
   9      -0.732    -0.645     1.377     0.090    -0.069     0.127
  10      -0.807    -0.777     1.584     0.115    -0.375     0.276
  11      -0.954    -0.852     1.805     0.023    -0.034    -0.055
  12      -0.870    -0.678     1.547     0.089     0.439    -0.214
  13      -0.690    -0.640     1.330    -0.048    -0.051    -0.103
  14      -0.687    -0.874     1.561     0.037    -0.004     0.522
  15      -0.482    -0.857     1.339    -0.046     0.007    -0.500
  16      -1.063    -0.846     1.909    -0.022     0.083    -0.040
  17       1.572     1.378    -2.950     0.199    -0.090    -0.144
  18       1.336     1.439    -2.775    -0.067     0.022     0.085
  19       1.441     1.500    -2.940     0.050     0.157    -0.010
  20       1.495     1.450    -2.946     0.002     0.020     0.205
  21       1.712     1.226    -2.938    -0.148     0.137     0.164
  22       1.388     1.601    -2.990    -0.037     0.132    -0.174
  23       1.398     1.439    -2.837    -0.048    -0.063     0.057
  24       1.463     1.401    -2.865    -0.038    -0.083    -0.058
  25       0.116     0.383    -0.499     0.581     1.104     0.414
  26      -1.902     0.698     1.204    -0.913     0.837     0.752
  27       0.664    -1.805     1.141     0.724    -0.443     0.008
  28      -0.069     0.324    -0.255    -0.570     0.472    -0.548
  29      -1.397    -0.627     2.024    -0.818     0.323     0.382
  30      -1.156    -0.295     1.451    -0.907    -0.685     0.670
  31      -0.856    -0.578     1.434     0.403     0.436     0.176
  32      -0.723     0.710     0.013    -0.936     0.853     0.789
  33      -0.498     0.135     0.363    -0.997     0.407    -0.158
  34       1.238     0.822    -2.060     0.056     0.298     0.890
  35      -0.855     0.967    -0.112    -0.305     1.412     0.163
  36      -0.440     0.170     0.270    -0.008     1.213    -0.135
  37      -0.398     1.000    -0.602     0.321     0.322    -0.310
  38      -0.808     0.580     0.228     0.193    -0.184    -0.001
  39       0.124    -0.736     0.612     0.154     0.407     0.470
  40      -0.056    -0.714     0.770    -0.029    -0.339     0.166
  41      -4.779     2.019     2.759    -4.589     1.651    -4.681
  42      -2.537     1.229     1.308     4.933     2.899     3.630
  43       3.061    -5.713     2.652    -1.492    -5.194     0.658
  44      -0.478     2.119    -1.640     5.931    -2.252    -4.463
  45      -4.095     3.890     0.205    -4.561    -2.067     5.442
  46       3.489    -5.397     1.908     0.438     5.958     0.219
  47      -3.475     4.144    -0.668    -3.925     3.530    -3.562
  48       3.775    -5.289     1.515    -0.808    -3.637     0.751
  49      -1.453     2.014    -0.561     4.456     2.535     4.076
  50       5.896    -6.387     0.491    -1.827     4.504    -0.369
  51      -2.837     3.088    -0.251    -4.755    -0.730     2.965
  52      -3.854     4.944    -1.090     5.171     0.517    -4.172
  53      -1.754     1.276     0.478    -4.922     1.915    -5.817
  54      -2.955     3.405    -0.449     5.202     1.144     3.573
  55       6.330    -5.250    -1.081     1.723    -4.086    -0.114
  56      -2.803     3.636    -0.834     6.251    -3.698    -2.738
  57      -3.438     1.885     1.553    -4.717    -2.806     3.169
  58       4.472    -5.233     0.761    -1.776     3.418    -1.199
  59      -4.725     2.780     1.945    -6.034     3.947    -3.366
  60       5.077    -6.828     1.751    -0.080    -3.971    -0.888
  61      -5.083     3.137     1.946     4.371     3.062     5.227
  62       5.164    -6.434     1.271    -0.205     4.239     0.651
  63      -4.806     0.795     4.011    -4.024    -2.555     4.426
  64      -3.457     2.723     0.735     3.285    -1.197    -3.932
  65      -2.088     4.278    -2.190    -5.558     1.677    -2.775
  66      -4.446     4.996    -0.550     5.741     3.277     3.388
  67       6.376    -5.262    -1.114     0.829    -4.257     0.823
  68      -2.619     2.235     0.384     4.204    -1.618    -4.645
  69      -2.502     3.104    -0.602    -4.409    -2.686     2.718
  70       5.296    -7.282     1.987     0.764     4.975     0.948
  71      -2.810     1.738     1.072    -5.894     2.311    -4.387
  72       7.005    -6.734    -0.271    -0.203    -4.246     0.084
  73      -3.113     3.089     0.024     6.060     1.940     4.874
  74       5.735    -6.859     1.124     0.241     5.393    -0.563
  75      -2.541     1.552     0.989    -5.276    -2.375     4.509
  76      -2.511     1.142     1.369     6.671    -2.704    -3.364
  77      -5.283     5.955    -0.672    -5.082     2.312    -3.723
  78      -3.984     2.729     1.254     4.350     3.559     3.378
  79       2.772    -5.880     3.108     0.421    -4.831    -0.347
  80      -3.252     2.805     0.447     4.656    -1.375    -3.062
  81      -3.606     3.484     0.122    -4.673    -1.741     3.695
  82       5.201    -5.498     0.297    -1.057     4.311     1.191
  83      -1.570     2.090    -0.520    -4.833     1.166    -3.822
  84       3.814    -5.098     1.284     0.951    -4.182     0.473
  85      -1.971     1.453     0.519     4.492     1.949     3.916
  86       4.981    -5.481     0.500     1.600     4.930     0.768
  87      -6.117     5.214     0.903    -4.480    -2.119     5.757
  88      -1.383     0.097     1.285     5.165    -1.977    -4.771
 ---------------------------------------------------------------------


 Total hyperfine coupling parameters after diagonalization (MHz)
 (convention: |A_zz| > |A_xx| > |A_yy|)
 ----------------------------------------------------------------------
  ion      A_xx      A_yy      A_zz     asymmetry (A_yy - A_xx)/ A_zz 
 ----------------------------------------------------------------------
   1       2.276     1.964     4.374      -0.071
   2       2.556     2.211     5.066      -0.068
   3       1.414     1.031     3.708      -0.103
   4       1.973     1.588     4.054      -0.095
   5       1.914     1.561     4.316      -0.082
   6       1.330     0.928     3.533      -0.114
   7       0.733     0.590     3.288      -0.043
   8       0.471     0.148     3.119      -0.104
   9       1.039     0.834     3.016      -0.068
  10       2.232     1.918     4.578      -0.069
  11       0.485     0.375     3.141      -0.035
  12       2.161     1.806     4.446      -0.080
  13       0.795     0.685     2.744      -0.040
  14       2.534     2.230     4.885      -0.062
  15       2.056     1.564     3.982      -0.123
  16       0.296     0.074     3.053      -0.073
  17      14.800    10.589    15.246      -0.276
  18      12.309     8.228    12.478      -0.327
  19      14.012     9.650    14.126      -0.309
  20      15.033    10.618    15.069      -0.293
  21      13.403     9.261    13.964      -0.297
  22      15.932    11.547    16.163      -0.271
  23      13.658     9.453    13.763      -0.306
  24      14.715    10.463    14.812      -0.287
  25      98.965    97.727   100.502      -0.012
  26      94.986    91.777    96.009      -0.033
  27      95.406    92.844    96.302      -0.027
  28      94.333    94.136    95.901      -0.002
  29      98.520    96.665   100.729      -0.018
  30      95.693    94.176    97.899      -0.015
  31      94.615    93.819    96.532      -0.008
  32      97.325    94.912    98.082      -0.025
  33      96.560    95.098    97.426      -0.015
  34      99.300    95.964    99.627      -0.033
  35     102.822    99.906   102.939      -0.028
  36      97.301    95.787    98.331      -0.015
  37      97.017    96.245    98.288      -0.008
  38      94.700    93.578    95.051      -0.012
  39      94.945    94.156    96.022      -0.008
  40      95.386    94.829    96.470      -0.006
  41       7.035     1.293    16.977      -0.338
  42       7.770     3.751    17.597      -0.228
  43       2.850    -0.860    13.329      -0.278
  44       4.559     2.198    17.070      -0.138
  45       6.136     3.303    19.071      -0.149
  46       3.412     1.296    15.442      -0.137
  47       5.277     1.376    15.768      -0.247
  48       4.027    -0.207    11.742      -0.361
  49       5.171     3.925    16.263      -0.077
  50       3.515    -1.164    14.158      -0.330
  51       4.719     0.430    12.990      -0.330
  52       7.563     1.871    17.742      -0.321
  53      -2.205     1.490    13.147       0.281
  54       6.127     2.071    16.009      -0.253
  55       3.504     0.693    14.601      -0.193
  56       4.309    -0.812    15.668      -0.327
  57       5.139     0.078    13.921      -0.364
  58       5.838     1.493    13.990      -0.311
  59       7.409    -0.109    17.733      -0.424
  60       6.276     0.124    14.797      -0.416
  61       4.149    -0.270    16.499      -0.268
  62       6.552     1.392    15.797      -0.327
  63       5.710     0.474    15.979      -0.328
  64       3.734     0.738    12.541      -0.239
  65       4.829     2.691    16.487      -0.130
  66       5.238    -0.203    17.039      -0.319
  67       5.466     2.342    16.374      -0.191
  68       6.208     3.434    16.562      -0.167
  69       4.183     0.954    13.464      -0.240
  70       7.453     1.651    18.005      -0.322
  71       6.614     1.689    17.490      -0.282
  72       7.135     2.622    18.321      -0.246
  73       5.624     1.274    17.851      -0.244
  74       5.237     0.651    16.887      -0.272
  75       4.352     0.465    15.249      -0.255
  76       8.122     1.670    18.026      -0.358
  77       6.391     1.370    18.438      -0.272
  78       6.410     1.270    15.945      -0.322
  79       4.756     0.747    14.445      -0.278
  80       5.299     0.754    13.576      -0.335
  81      -1.970     1.949    11.897       0.329
  82       5.389     0.850    14.694      -0.309
  83       5.729     2.373    15.013      -0.224
  84       5.470     1.669    13.975      -0.272
  85       3.765     0.748    13.234      -0.228
  86       3.992     0.930    15.031      -0.204
  87       8.986     4.271    22.583      -0.209
  88       5.102     0.566    15.081      -0.301
 ---------------------------------------------------------------------



--------------------------------------------------------------------------------------------------------


 stress matrix after NEB project (eV)
    -44.77257     -0.24250     -6.39496
     -0.23607    -47.61103      0.28205
     -6.39583      0.28128    -62.01698
  FORCES: max atom, RMS     2.205647    1.032374
  FORCE total and by dimension    9.684528    2.026363
  Stress total and by dimension   90.551503   62.016979
     LOOP+:  cpu time  632.5142: real time  633.7232
    4ORBIT:  cpu time    0.0000: real time    0.0000
 


 total charge     
 
# of ion       s       p       d       tot
------------------------------------------
    1        0.050   5.991   0.000   6.041
    2        0.053   5.995   0.000   6.048
    3        0.052   5.994   0.000   6.046
    4        0.052   5.994   0.000   6.046
    5        0.053   5.997   0.000   6.051
    6        0.054   5.998   0.000   6.053
    7        0.047   5.989   0.000   6.037
    8        0.053   5.997   0.000   6.050
    9        0.048   5.991   0.000   6.039
   10        0.052   5.995   0.000   6.047
   11        0.049   5.993   0.000   6.042
   12        0.051   5.993   0.000   6.045
   13        0.047   5.990   0.000   6.036
   14        0.050   5.992   0.000   6.042
   15        0.050   5.992   0.000   6.042
   16        0.053   5.998   0.000   6.050
   17        0.149   6.129   0.085   6.363
   18        0.144   6.119   0.076   6.340
   19        0.150   6.129   0.085   6.363
   20        0.150   6.129   0.085   6.364
   21        0.150   6.129   0.084   6.363
   22        0.153   6.135   0.089   6.377
   23        0.141   6.115   0.074   6.330
   24        0.144   6.120   0.078   6.342
   25        0.367   6.438   4.814  11.619
   26        0.385   6.476   4.854  11.715
   27        0.382   6.466   4.845  11.693
   28        0.376   6.457   4.826  11.659
   29        0.369   6.441   4.815  11.625
   30        0.380   6.464   4.834  11.678
   31        0.371   6.441   4.816  11.628
   32        0.381   6.471   4.843  11.696
   33        0.373   6.452   4.826  11.650
   34        0.371   6.447   4.825  11.643
   35        0.369   6.439   4.826  11.635
   36        0.367   6.438   4.805  11.610
   37        0.373   6.447   4.829  11.648
   38        0.377   6.456   4.829  11.662
   39        0.399   6.507   4.881  11.787
   40        0.378   6.459   4.829  11.666
   41        1.601   3.524   0.000   5.125
   42        1.595   3.497   0.000   5.093
   43        1.601   3.508   0.000   5.109
   44        1.601   3.465   0.000   5.066
   45        1.601   3.500   0.000   5.100
   46        1.598   3.477   0.000   5.075
   47        1.599   3.490   0.000   5.090
   48        1.598   3.515   0.000   5.113
   49        1.602   3.499   0.000   5.101
   50        1.597   3.491   0.000   5.089
   51        1.595   3.505   0.000   5.100
   52        1.600   3.492   0.000   5.092
   53        1.598   3.478   0.000   5.076
   54        1.599   3.522   0.000   5.121
   55        1.598   3.514   0.000   5.112
   56        1.601   3.476   0.000   5.077
   57        1.599   3.534   0.000   5.134
   58        1.597   3.528   0.000   5.124
   59        1.601   3.506   0.000   5.107
   60        1.597   3.523   0.000   5.120
   61        1.599   3.480   0.000   5.080
   62        1.597   3.506   0.000   5.104
   63        1.598   3.509   0.000   5.107
   64        1.599   3.523   0.000   5.122
   65        1.600   3.498   0.000   5.097
   66        1.601   3.505   0.000   5.107
   67        1.598   3.487   0.000   5.085
   68        1.599   3.496   0.000   5.095
   69        1.599   3.533   0.000   5.132
   70        1.600   3.522   0.000   5.122
   71        1.600   3.492   0.000   5.091
   72        1.600   3.503   0.000   5.103
   73        1.600   3.487   0.000   5.087
   74        1.599   3.515   0.000   5.114
   75        1.601   3.509   0.000   5.110
   76        1.600   3.517   0.000   5.117
   77        1.601   3.501   0.000   5.102
   78        1.602   3.504   0.000   5.105
   79        1.598   3.497   0.000   5.095
   80        1.595   3.492   0.000   5.087
   81        1.596   3.495   0.000   5.091
   82        1.598   3.517   0.000   5.114
   83        1.597   3.513   0.000   5.110
   84        1.600   3.554   0.000   5.154
   85        1.595   3.483   0.000   5.078
   86        1.598   3.514   0.000   5.113
   87        1.605   3.514   0.000   5.119
   88        1.598   3.514   0.000   5.112
--------------------------------------------------
tot         84.763 416.432  77.953 579.148
 


 magnetization (x)
 
# of ion       s       p       d       tot
------------------------------------------
    1        0.002   0.000   0.000   0.003
    2        0.002   0.000   0.000   0.003
    3        0.001  -0.000   0.000   0.001
    4        0.002   0.000   0.000   0.002
    5        0.002  -0.000   0.000   0.002
    6        0.001  -0.000   0.000   0.001
    7        0.001   0.001   0.000   0.002
    8        0.001   0.000   0.000   0.001
    9        0.001   0.001   0.000   0.002
   10        0.002   0.000   0.000   0.002
   11        0.001   0.000   0.000   0.002
   12        0.002   0.000   0.000   0.002
   13        0.001   0.001   0.000   0.002
   14        0.002   0.000   0.000   0.003
   15        0.002   0.000   0.000   0.002
   16        0.001   0.000   0.000   0.001
   17        0.007   0.003   0.001   0.011
   18        0.006   0.001   0.001   0.009
   19        0.007   0.003   0.001   0.011
   20        0.008   0.003   0.001   0.011
   21        0.007   0.002   0.001   0.010
   22        0.008   0.003   0.001   0.012
   23        0.007   0.002   0.001   0.010
   24        0.007   0.002   0.001   0.011
   25        0.016   0.030   2.777   2.823
   26        0.015   0.030   2.730   2.775
   27        0.015   0.030   2.735   2.780
   28        0.015   0.029   2.751   2.795
   29        0.016   0.030   2.783   2.828
   30        0.015   0.031   2.742   2.789
   31        0.015   0.030   2.771   2.815
   32        0.015   0.031   2.739   2.785
   33        0.015   0.030   2.758   2.803
   34        0.016   0.031   2.755   2.801
   35        0.017   0.030   2.765   2.812
   36        0.015   0.030   2.777   2.823
   37        0.015   0.030   2.757   2.803
   38        0.015   0.029   2.754   2.798
   39        0.015   0.032   2.712   2.759
   40        0.015   0.030   2.751   2.796
   41        0.002   0.045   0.000   0.048
   42        0.002   0.051   0.000   0.053
   43        0.002   0.015   0.000   0.017
   44        0.002   0.025   0.000   0.028
   45        0.002   0.045   0.000   0.048
   46        0.002   0.028   0.000   0.030
   47        0.002   0.027   0.000   0.029
   48        0.001   0.022   0.000   0.023
   49        0.002   0.031   0.000   0.034
   50        0.002   0.018   0.000   0.020
   51        0.002   0.019   0.000   0.021
   52        0.002   0.047   0.000   0.049
   53        0.002  -0.003   0.000  -0.002
   54        0.002   0.041   0.000   0.043
   55        0.002   0.021   0.000   0.023
   56        0.002   0.024   0.000   0.026
   57        0.002   0.037   0.000   0.039
   58        0.002   0.038   0.000   0.039
   59        0.002   0.049   0.000   0.051
   60        0.002   0.035   0.000   0.037
   61        0.002   0.027   0.000   0.029
   62        0.002   0.034   0.000   0.036
   63        0.002   0.044   0.000   0.046
   64        0.002   0.025   0.000   0.027
   65        0.002   0.033   0.000   0.035
   66        0.002   0.040   0.000   0.042
   67        0.002   0.029   0.000   0.031
   68        0.002   0.036   0.000   0.038
   69        0.002   0.021   0.000   0.023
   70        0.002   0.053   0.000   0.055
   71        0.002   0.041   0.000   0.043
   72        0.002   0.048   0.000   0.051
   73        0.002   0.032   0.000   0.035
   74        0.002   0.036   0.000   0.038
   75        0.002   0.032   0.000   0.034
   76        0.002   0.055   0.000   0.057
   77        0.002   0.046   0.000   0.048
   78        0.002   0.034   0.000   0.036
   79        0.002   0.024   0.000   0.026
   80        0.002   0.027   0.000   0.029
   81        0.001   0.006   0.000   0.007
   82        0.002   0.030   0.000   0.032
   83        0.002   0.033   0.000   0.035
   84        0.002   0.035   0.000   0.037
   85        0.002   0.016   0.000   0.018
   86        0.002   0.031   0.000   0.032
   87        0.003   0.068   0.000   0.071
   88        0.002   0.029   0.000   0.031
--------------------------------------------------
tot          0.423   2.089  44.067  46.579
 

 total amount of memory used by VASP MPI-rank0    88177. kBytes
=======================================================================

   base      :      30000. kBytes
   nonlr-proj:      13668. kBytes
   fftplans  :        992. kBytes
   grid      :      21513. kBytes
   one-center:       2737. kBytes
   wavefun   :      19267. kBytes
 
  
  
 General timing and accounting informations for this job:
 ========================================================
  
                  Total CPU time used (sec):      651.571
                            User time (sec):      645.574
                          System time (sec):        5.997
                         Elapsed time (sec):      655.466
  
                   Maximum memory used (kb):      182488.
                   Average memory used (kb):           0.
  
                          Minor page faults:       331103
                          Major page faults:            0
                 Voluntary context switches:         4533
