 vasp.5.4.4.18Apr17-6-g9f103f2a35 (build Dec 02 2020 12:53:39) complex          
  
 executed on             LinuxIFC date 2021.08.02  17:34:34
 running on   96 total cores
 distrk:  each k-point on   96 cores,    1 groups
 distr:  one band on NCORES_PER_BAND=   1 cores,   96 groups


--------------------------------------------------------------------------------------------------------


 INCAR:
 POTCAR:    PAW_PBE Na_pv 19Sep2006               
 POTCAR:    PAW_PBE Mg_pv 13Apr2007               
 POTCAR:    PAW_PBE Mn_pv 02Aug2007               
 POTCAR:    PAW_PBE O 08Apr2002                   

 ----------------------------------------------------------------------------- 
|                                                                             |
|           W    W    AA    RRRRR   N    N  II  N    N   GGGG   !!!           |
|           W    W   A  A   R    R  NN   N  II  NN   N  G    G  !!!           |
|           W    W  A    A  R    R  N N  N  II  N N  N  G       !!!           |
|           W WW W  AAAAAA  RRRRR   N  N N  II  N  N N  G  GGG   !            |
|           WW  WW  A    A  R   R   N   NN  II  N   NN  G    G                |
|           W    W  A    A  R    R  N    N  II  N    N   GGGG   !!!           |
|                                                                             |
|      For optimal performance we recommend to set                            |
|        NCORE= 4 - approx SQRT( number of cores)                             |
|      NCORE specifies how many cores store one orbital (NPAR=cpu/NCORE).     |
|      This setting can  greatly improve the performance of VASP for DFT.     |
|      The default,   NCORE=1            might be grossly inefficient         |
|      on modern multi-core architectures or massively parallel machines.     |
|      Do your own testing !!!!                                               |
|      Unfortunately you need to use the default for GW and RPA calculations. |
|      (for HF NCORE is supported but not extensively tested yet)             |
|                                                                             |
 ----------------------------------------------------------------------------- 

 POTCAR:    PAW_PBE Na_pv 19Sep2006               
   VRHFIN =Na: p6s1                                                             
   LEXCH  = PE                                                                  
   EATOM  =   766.0439 eV,   56.3026 Ry                                         
                                                                                
   TITEL  = PAW_PBE Na_pv 19Sep2006                                             
   LULTRA =        F    use ultrasoft PP ?                                      
   IUNSCR =        1    unscreen: 0-lin 1-nonlin 2-no                           
   RPACOR =    1.800    partial core radius                                     
   POMASS =   22.990; ZVAL   =    7.000    mass and valenz                      
   RCORE  =    2.200    outmost cutoff radius                                   
   RWIGS  =    2.200; RWIGS  =    1.164    wigner-seitz radius (au A)           
   ENMAX  =  259.561; ENMIN  =  194.671 eV                                      
   ICORE  =        2    local potential                                         
   LCOR   =        T    correct aug charges                                     
   LPAW   =        T    paw PP                                                  
   EAUG   =  368.056                                                            
   DEXC   =    0.000                                                            
   RMAX   =    2.245    core radius for proj-oper                               
   RAUG   =    1.300    factor for augmentation sphere                          
   RDEP   =    2.259    radius for radial grids                                 
   RDEPT  =    1.738    core radius for aug-charge                              
                                                                                
   Atomic configuration                                                         
    5 entries                                                                   
     n  l   j            E        occ.                                          
     1  0  0.50     -1033.6933   2.0000                                         
     2  0  0.50       -56.7526   2.0000                                         
     2  1  1.50       -28.6721   6.0000                                         
     3  0  0.50        -2.7440   1.0000                                         
     3  2  1.50        -1.3606   0.0000                                         
   Description                                                                  
     l       E           TYP  RCUT    TYP  RCUT                                 
     1    -28.6720912     23  2.000                                             
     1      6.8029130     23  2.000                                             
     0     -2.7439560     23  2.200                                             
     0     34.0145650     23  2.200                                             
     2     -1.3605826     23  2.200                                             
  local pseudopotential read in
  partial core-charges read in
  partial kinetic energy density read in
  atomic valenz-charges read in
  non local Contribution for L=           1  read in
    real space projection operators read in
  non local Contribution for L=           1  read in
    real space projection operators read in
  non local Contribution for L=           0  read in
    real space projection operators read in
  non local Contribution for L=           0  read in
    real space projection operators read in
    PAW grid and wavefunctions read in
 
   number of l-projection  operators is LMAX  =           4
   number of lm-projection operators is LMMAX =           8
 
 POTCAR:    PAW_PBE Mg_pv 13Apr2007               
   VRHFIN =Mg: p6s2                                                             
   LEXCH  = PE                                                                  
   EATOM  =  1056.7344 eV,   77.6678 Ry                                         
                                                                                
   TITEL  = PAW_PBE Mg_pv 13Apr2007                                             
   LULTRA =        F    use ultrasoft PP ?                                      
   IUNSCR =        1    unscreen: 0-lin 1-nonlin 2-no                           
   RPACOR =    1.500    partial core radius                                     
   POMASS =   24.305; ZVAL   =    8.000    mass and valenz                      
   RCORE  =    2.000    outmost cutoff radius                                   
   RWIGS  =    2.000; RWIGS  =    1.058    wigner-seitz radius (au A)           
   ENMAX  =  403.929; ENMIN  =  302.947 eV                                      
   RCLOC  =    1.506    cutoff for local pot                                    
   LCOR   =        T    correct aug charges                                     
   LPAW   =        T    paw PP                                                  
   EAUG   =  758.780                                                            
   DEXC   =    0.000                                                            
   RMAX   =    2.045    core radius for proj-oper                               
   RAUG   =    1.300    factor for augmentation sphere                          
   RDEP   =    2.025    radius for radial grids                                 
   RDEPT  =    1.557    core radius for aug-charge                              
                                                                                
   Atomic configuration                                                         
    5 entries                                                                   
     n  l   j            E        occ.                                          
     1  0  0.50     -1259.6230   2.0000                                         
     2  0  0.50       -79.8442   2.0000                                         
     2  1  1.50       -46.6121   6.0000                                         
     3  0  0.50        -4.7055   2.0000                                         
     3  2  1.50        -1.3606   0.0000                                         
   Description                                                                  
     l       E           TYP  RCUT    TYP  RCUT                                 
     1    -46.6121073     23  1.600                                             
     1      2.7211652     23  1.600                                             
     0     -4.7054661     23  2.000                                             
     0     61.2262170     23  2.000                                             
     2     -1.3605826     23  2.000                                             
  local pseudopotential read in
  partial core-charges read in
  partial kinetic energy density read in
  atomic valenz-charges read in
  non local Contribution for L=           1  read in
    real space projection operators read in
  non local Contribution for L=           1  read in
    real space projection operators read in
  non local Contribution for L=           0  read in
    real space projection operators read in
  non local Contribution for L=           0  read in
    real space projection operators read in
  non local Contribution for L=           2  read in
    real space projection operators read in
    PAW grid and wavefunctions read in
 
   number of l-projection  operators is LMAX  =           5
   number of lm-projection operators is LMMAX =          13
 
 POTCAR:    PAW_PBE Mn_pv 02Aug2007               
   VRHFIN =Mn: 3p4s3d                                                           
   LEXCH  = PE                                                                  
   EATOM  =  2025.2664 eV,  148.8529 Ry                                         
                                                                                
   TITEL  = PAW_PBE Mn_pv 02Aug2007                                             
   LULTRA =        F    use ultrasoft PP ?                                      
   IUNSCR =        1    unscreen: 0-lin 1-nonlin 2-no                           
   RPACOR =    2.080    partial core radius                                     
   POMASS =   54.938; ZVAL   =   13.000    mass and valenz                      
   RCORE  =    2.300    outmost cutoff radius                                   
   RWIGS  =    2.500; RWIGS  =    1.323    wigner-seitz radius (au A)           
   ENMAX  =  269.864; ENMIN  =  202.398 eV                                      
   ICORE  =        3    local potential                                         
   LCOR   =        T    correct aug charges                                     
   LPAW   =        T    paw PP                                                  
   EAUG   =  569.085                                                            
   DEXC   =    0.000                                                            
   RMAX   =    2.343    core radius for proj-oper                               
   RAUG   =    1.300    factor for augmentation sphere                          
   RDEP   =    2.338    radius for radial grids                                 
   RDEPT  =    1.798    core radius for aug-charge                              
                                                                                
   Atomic configuration                                                         
    8 entries                                                                   
     n  l   j            E        occ.                                          
     1  0  0.50     -6424.8287   2.0000                                         
     2  0  0.50      -739.1154   2.0000                                         
     2  1  1.50      -625.3949   6.0000                                         
     3  0  0.50       -81.6100   2.0000                                         
     3  1  1.50       -50.4667   6.0000                                         
     3  2  2.50        -3.3745   6.0000                                         
     4  0  0.50        -4.1331   1.0000                                         
     4  3  2.50        -1.3606   0.0000                                         
   Description                                                                  
     l       E           TYP  RCUT    TYP  RCUT                                 
     1    -50.4666628     23  2.000                                             
     1     -1.3605826     23  2.000                                             
     2     -3.3744729     23  2.300                                             
     2     -4.7350555     23  2.300                                             
     0     -4.1331431     23  2.300                                             
     0      7.6656591     23  2.300                                             
     3      9.5240782     23  2.300                                             
  local pseudopotential read in
  partial core-charges read in
  partial kinetic energy density read in
  atomic valenz-charges read in
  non local Contribution for L=           1  read in
    real space projection operators read in
  non local Contribution for L=           1  read in
    real space projection operators read in
  non local Contribution for L=           2  read in
    real space projection operators read in
  non local Contribution for L=           2  read in
    real space projection operators read in
  non local Contribution for L=           0  read in
    real space projection operators read in
  non local Contribution for L=           0  read in
    real space projection operators read in
    PAW grid and wavefunctions read in
 
   number of l-projection  operators is LMAX  =           6
   number of lm-projection operators is LMMAX =          18
 
 POTCAR:    PAW_PBE O 08Apr2002                   
   VRHFIN =O: s2p4                                                              
   LEXCH  = PE                                                                  
   EATOM  =   432.3788 eV,   31.7789 Ry                                         
                                                                                
   TITEL  = PAW_PBE O 08Apr2002                                                 
   LULTRA =        F    use ultrasoft PP ?                                      
   IUNSCR =        1    unscreen: 0-lin 1-nonlin 2-no                           
   RPACOR =    1.200    partial core radius                                     
   POMASS =   16.000; ZVAL   =    6.000    mass and valenz                      
   RCORE  =    1.520    outmost cutoff radius                                   
   RWIGS  =    1.550; RWIGS  =    0.820    wigner-seitz radius (au A)           
   ENMAX  =  400.000; ENMIN  =  300.000 eV                                      
   ICORE  =        2    local potential                                         
   LCOR   =        T    correct aug charges                                     
   LPAW   =        T    paw PP                                                  
   EAUG   =  605.392                                                            
   DEXC   =    0.000                                                            
   RMAX   =    1.553    core radius for proj-oper                               
   RAUG   =    1.300    factor for augmentation sphere                          
   RDEP   =    1.550    radius for radial grids                                 
   RDEPT  =    1.329    core radius for aug-charge                              
                                                                                
   Atomic configuration                                                         
    4 entries                                                                   
     n  l   j            E        occ.                                          
     1  0  0.50      -514.6923   2.0000                                         
     2  0  0.50       -23.9615   2.0000                                         
     2  1  0.50        -9.0305   4.0000                                         
     3  2  1.50        -9.5241   0.0000                                         
   Description                                                                  
     l       E           TYP  RCUT    TYP  RCUT                                 
     0    -23.9615318     23  1.200                                             
     0     -9.5240782     23  1.200                                             
     1     -9.0304911     23  1.520                                             
     1      8.1634956     23  1.520                                             
     2     -9.5240782      7  1.500                                             
  local pseudopotential read in
  partial core-charges read in
  partial kinetic energy density read in
  kinetic energy density of atom read in
  atomic valenz-charges read in
  non local Contribution for L=           0  read in
    real space projection operators read in
  non local Contribution for L=           0  read in
    real space projection operators read in
  non local Contribution for L=           1  read in
    real space projection operators read in
  non local Contribution for L=           1  read in
    real space projection operators read in
    PAW grid and wavefunctions read in
 
   number of l-projection  operators is LMAX  =           4
   number of lm-projection operators is LMMAX =           8
 
 Optimization of the real space projectors (new method)

 maximal supplied QI-value         = 17.01
 optimisation between [QCUT,QGAM] = [ 10.20, 20.41] = [ 29.16,116.64] Ry 
 Optimized for a Real-space Cutoff    1.30 Angstroem

   l    n(q)    QCUT    max X(q) W(low)/X(q) W(high)/X(q)  e(spline) 
   1      7    10.205     4.940    0.23E-03    0.84E-03    0.11E-06
   1      7    10.205     6.253    0.40E-03    0.13E-02    0.18E-06
   0      8    10.205    37.438    0.23E-03    0.37E-03    0.42E-07
   0      8    10.205     9.606    0.16E-03    0.26E-03    0.31E-07
 Optimization of the real space projectors (new method)

 maximal supplied QI-value         = 18.90
 optimisation between [QCUT,QGAM] = [ 10.20, 20.41] = [ 29.16,116.64] Ry 
 Optimized for a Real-space Cutoff    1.26 Angstroem

   l    n(q)    QCUT    max X(q) W(low)/X(q) W(high)/X(q)  e(spline) 
   1      7    10.205     2.974    0.63E-04    0.14E-03    0.13E-06
   1      7    10.205     4.279    0.11E-03    0.45E-03    0.24E-06
   0      8    10.205    16.381    0.44E-03    0.15E-03    0.55E-07
   0      8    10.205     5.611    0.31E-03    0.11E-03    0.40E-07
   2      7    10.205     4.652    0.50E-03    0.47E-03    0.57E-07
 Optimization of the real space projectors (new method)

 maximal supplied QI-value         = 16.25
 optimisation between [QCUT,QGAM] = [ 10.24, 20.48] = [ 29.35,117.42] Ry 
 Optimized for a Real-space Cutoff    1.34 Angstroem

   l    n(q)    QCUT    max X(q) W(low)/X(q) W(high)/X(q)  e(spline) 
   1      8    10.239     3.658    0.23E-03    0.30E-03    0.98E-07
   1      8    10.239     5.612    0.32E-03    0.65E-03    0.21E-06
   2      7    10.239    55.373    0.42E-03    0.45E-03    0.65E-07
   2      7    10.239    50.863    0.43E-03    0.48E-03    0.67E-07
   0      8    10.239    79.536    0.11E-03    0.21E-03    0.56E-07
   0      8    10.239    38.668    0.96E-04    0.19E-03    0.52E-07
 Optimization of the real space projectors (new method)

 maximal supplied QI-value         = 24.76
 optimisation between [QCUT,QGAM] = [ 10.15, 20.30] = [ 28.85,115.39] Ry 
 Optimized for a Real-space Cutoff    1.38 Angstroem

   l    n(q)    QCUT    max X(q) W(low)/X(q) W(high)/X(q)  e(spline) 
   0      8    10.150    20.381    0.22E-03    0.32E-03    0.29E-06
   0      8    10.150    15.268    0.23E-03    0.35E-03    0.30E-06
   1      8    10.150     5.964    0.46E-03    0.53E-03    0.21E-06
   1      8    10.150     5.382    0.38E-03    0.45E-03    0.19E-06
  PAW_PBE Na_pv 19Sep2006               :
 energy of atom  1       EATOM= -766.0439
 kinetic energy error for atom=    0.0103 (will be added to EATOM!!)
  PAW_PBE Mg_pv 13Apr2007               :
 energy of atom  2       EATOM=-1056.7344
 kinetic energy error for atom=    0.0820 (will be added to EATOM!!)
  PAW_PBE Mn_pv 02Aug2007               :
 energy of atom  3       EATOM=-2025.2664
 kinetic energy error for atom=    0.0284 (will be added to EATOM!!)
  PAW_PBE O 08Apr2002                   :
 energy of atom  4       EATOM= -432.3788
 kinetic energy error for atom=    0.1156 (will be added to EATOM!!)
 
 
 POSCAR: Na Mg Mn  O                             
  positions in cartesian coordinates
  No initial velocities read in

 METAGGA = SCAN     LMAXTAU =  6    LMIXTAU =  F

 exchange correlation table for  LEXCH =        8
   RHO(1)=    0.500       N(1)  =     2000
   RHO(2)=  100.500       N(2)  =     4000

 VTST: version 3.2, (02/03/18)

 CHAIN: initializing optimizer
 
 OPT: Using VASP Dynamics algorithm
 CHAIN: Read ICHAIN            0
 
 POSCAR: Na Mg Mn  O                             
  positions in cartesian coordinates
  No initial velocities read in
 


--------------------------------------------------------------------------------------------------------


 ion  position               nearest neighbor table
   1  0.695  0.736  0.252-  74 2.18  65 2.21  35 2.87  33 2.93
   2  0.315  0.969  0.758-  73 2.30  70 2.34  36 2.86
   3  0.673  0.155  0.742-  56 2.23  81 2.37  31 2.78  29 2.88
   4  0.492  0.711  0.750-  83 2.27  82 2.33  85 2.34
   5  0.040  0.849  0.258-  67 2.32  34 2.91
   6  0.622  0.335  0.257-  52 2.32  42 2.34
   7  0.134  0.638  0.747-  57 2.24  60 2.34  80 2.35  39 2.87  37 2.90
   8  0.739  0.506  0.750-  68 2.18  71 2.26  46 2.36  28 2.94
   9  0.360  0.652  0.238-  78 2.17  87 2.29  77 2.33  16 2.78
  10  0.984  0.501  0.255-  75 2.27  62 2.34
  11  0.847  0.166  0.249-  63 2.30  53 2.30
  12  0.003  0.175  0.751-  69 2.25  61 2.33
  13  0.340  0.341  0.747-  47 2.32
  14  0.848  0.838  0.751-  72 2.29  68 2.35  69 2.35
  15  0.166  0.178  0.262-  76 2.29  50 2.32  54 2.36  27 2.77
  16  0.460  0.966  0.259-  86 2.18  77 2.30   9 2.78
  17  0.841  0.492  0.996-  71 1.96  60 2.00  49 2.05  53 2.08  43 2.08  66 2.12
  18  0.493  0.335  0.514-  44 2.02  46 2.02  52 2.06  50 2.09  45 2.13  51 2.19
  19  0.335  0.487  0.994-  61 1.96  41 2.02  83 2.05  78 2.08  48 2.08  55 2.10  30 2.84
  20  0.993  0.338  0.492-  63 1.97  58 2.04  64 2.05  57 2.07  56 2.10  62 2.16  28 2.84  27 2.85

  21  0.346  0.002  0.016-  42 1.96  67 1.98  73 2.03  77 2.09  84 2.18  47 2.24  26 2.83  29 2.83

  22  0.994  0.845  0.512-  74 2.00  69 2.05  68 2.07  70 2.08  76 2.10  75 2.23  27 2.82
  23  0.839  0.993  0.000-  85 1.97  59 2.02  54 2.04  65 2.07  72 2.14  79 2.15  38 2.85
  24  0.488  0.831  0.507-  81 1.99  87 2.00  80 2.02  82 2.05  88 2.12  32 2.80
  25  0.168  0.158  0.989-  61 1.89  41 1.90  72 1.91  54 1.94  67 1.97  47 2.04  34 2.84  30 2.87
                            26 2.91
  26  0.504  0.326  0.990-  43 1.85  41 1.86  47 1.90  42 1.90  49 1.94  48 2.01  21 2.83  33 2.89
                            29 2.90  25 2.91
  27  0.152  0.170  0.508-  76 1.82  69 1.91  58 1.92  63 1.96  44 2.00  50 2.00  15 2.77  22 2.82
                            40 2.84  20 2.85  32 2.94  36 2.96
  28  0.834  0.506  0.502-  57 1.82  75 1.85  62 1.90  46 1.91  68 2.01  52 2.04  39 2.78  20 2.84
                            31 2.94   8 2.94  35 2.95
  29  0.672  0.160  0.998-  49 1.85  42 1.87  84 1.88  59 1.90  79 1.97  53 1.99  21 2.83   3 2.88
                            38 2.89  26 2.90  30 2.92
  30  0.008  0.327  0.005-  60 1.86  53 1.92  55 1.93  61 1.93  54 1.96  59 1.97  19 2.84  25 2.87
                            37 2.92  29 2.92
  31  0.656  0.167  0.495-  46 1.90  56 1.92  88 1.92  81 1.92  51 1.93  62 1.97   3 2.78  40 2.85
                            36 2.89  28 2.94
  32  0.330  0.509  0.492-  87 1.84  50 1.87  64 1.95  58 2.01  80 2.03  45 2.06  24 2.80  35 2.86
                            39 2.93  27 2.94
  33  0.671  0.659  0.998-  48 1.89  43 1.89  65 1.90  78 1.97  71 2.04  85 2.10  38 2.84  26 2.89
                             1 2.93  34 2.99
  34  0.016  0.831  0.999-  73 1.87  66 1.91  67 1.91  71 1.97  65 1.97  72 1.98  25 2.84  37 2.89
                             5 2.91  33 2.99
  35  0.659  0.671  0.503-  45 1.84  68 1.89  52 1.95  82 1.96  87 1.97  74 1.97  32 2.86   1 2.87
                            40 2.93  28 2.95
  36  0.323  1.000  0.504-  51 1.84  86 1.87  70 1.92  81 1.93  44 1.94  76 1.97   2 2.86  39 2.86
                            31 2.89  27 2.96
  37  0.180  0.663  0.002-  83 1.86  77 1.89  73 1.90  60 1.95  55 1.96  66 1.98  38 2.87  34 2.89
                             7 2.90  30 2.92
  38  0.510  0.826  1.000-  85 1.82  78 1.88  79 1.90  84 1.91  77 1.93  83 2.02  33 2.84  23 2.85
                            37 2.87  29 2.89
  39  0.154  0.670  0.492-  75 1.86  70 1.88  86 1.88  64 1.89  57 1.92  80 1.95  28 2.78  36 2.86
                             7 2.87  32 2.93
  40  0.825  0.008  0.501-  56 1.82  69 1.87  63 1.88  74 1.93  82 1.96  88 1.97  27 2.84  31 2.85
                            35 2.93
  41  0.338  0.310  0.077-  26 1.86  25 1.90  19 2.02
  42  0.525  0.181  0.086-  29 1.87  26 1.90  21 1.96   6 2.34
  43  0.653  0.486  0.081-  26 1.85  33 1.89  17 2.08
  44  0.317  0.158  0.600-  36 1.94  27 2.00  18 2.02
  45  0.506  0.530  0.601-  35 1.84  32 2.06  18 2.13
  46  0.677  0.335  0.588-  31 1.90  28 1.91  18 2.02   8 2.36
  47  0.348  0.177  0.889-  26 1.90  25 2.04  21 2.24  13 2.32
  48  0.521  0.506  0.897-  33 1.89  26 2.01  19 2.08
  49  0.666  0.311  0.907-  29 1.85  26 1.94  17 2.05
  50  0.320  0.340  0.413-  32 1.87  27 2.00  18 2.09  15 2.32
  51  0.477  0.143  0.410-  36 1.84  31 1.93  18 2.19
  52  0.660  0.507  0.409-  35 1.95  28 2.04  18 2.06   6 2.32
  53  0.841  0.318  0.097-  30 1.92  29 1.99  17 2.08  11 2.30
  54  0.018  0.164  0.094-  25 1.94  30 1.96  23 2.04  15 2.36
  55  0.165  0.493  0.099-  30 1.93  37 1.96  19 2.10
  56  0.812  0.157  0.586-  40 1.82  31 1.92  20 2.10   3 2.23
  57  0.992  0.514  0.587-  28 1.82  39 1.92  20 2.07   7 2.24
  58  0.164  0.342  0.593-  27 1.92  32 2.01  20 2.04
  59  0.838  0.168  0.911-  29 1.90  30 1.97  23 2.02
  60  0.017  0.488  0.917-  30 1.86  37 1.95  17 2.00   7 2.34
  61  0.163  0.320  0.908-  25 1.89  30 1.93  19 1.96  12 2.33
  62  0.807  0.343  0.399-  28 1.90  31 1.97  20 2.16  10 2.34
  63  0.986  0.161  0.410-  40 1.88  27 1.96  20 1.97  11 2.30
  64  0.168  0.519  0.402-  39 1.89  32 1.95  20 2.05
  65  0.837  0.812  0.089-  33 1.90  34 1.97  23 2.07   1 2.21
  66  0.018  0.676  0.095-  34 1.91  37 1.98  17 2.12
  67  0.167  0.998  0.093-  34 1.91  25 1.97  21 1.98   5 2.32
  68  0.810  0.662  0.598-  35 1.89  28 2.01  22 2.07   8 2.18  14 2.35
  69  0.982  0.019  0.599-  40 1.87  27 1.91  22 2.05  12 2.25  14 2.35
  70  0.170  0.827  0.593-  39 1.88  36 1.92  22 2.08   2 2.34
  71  0.849  0.664  0.907-  17 1.96  34 1.97  33 2.04   8 2.26
  72  0.017  0.992  0.895-  25 1.91  34 1.98  23 2.14  14 2.29
  73  0.177  0.827  0.920-  34 1.87  37 1.90  21 2.03   2 2.30
  74  0.825  0.843  0.414-  40 1.93  35 1.97  22 2.00   1 2.18
  75  0.987  0.653  0.406-  28 1.85  39 1.86  22 2.23  10 2.27
  76  0.170  0.030  0.416-  27 1.82  36 1.97  22 2.10  15 2.29
  77  0.343  0.813  0.095-  37 1.89  38 1.93  21 2.09  16 2.30   9 2.33
  78  0.508  0.668  0.091-  38 1.88  33 1.97  19 2.08   9 2.17
  79  0.653  0.991  0.098-  38 1.90  29 1.97  23 2.15
  80  0.306  0.662  0.595-  39 1.95  24 2.02  32 2.03   7 2.35
  81  0.495  0.010  0.590-  31 1.92  36 1.93  24 1.99   3 2.37
  82  0.670  0.840  0.598-  35 1.96  40 1.96  24 2.05   4 2.33
  83  0.330  0.664  0.905-  37 1.86  38 2.02  19 2.05   4 2.27
  84  0.523  0.994  0.908-  29 1.88  38 1.91  21 2.18
  85  0.664  0.838  0.906-  38 1.82  23 1.97  33 2.10   4 2.34
  86  0.301  0.841  0.403-  36 1.87  39 1.88  16 2.18
  87  0.490  0.664  0.409-  32 1.84  35 1.97  24 2.00   9 2.29
  88  0.663  0.010  0.403-  31 1.92  40 1.97  24 2.12
 
  LATTYP: Found a hexagonal cell.
 ALAT       =    10.0190000534
 C/A-ratio  =     1.1196726572
  
  Lattice vectors:
  
 A1 = (  10.0190000534,   0.0000000000,   0.0000000000)
 A2 = (  -5.0095000267,   8.6767085668,   0.0000000000)
 A3 = (   0.0000000000,   0.0000000000,  11.2180004120)


Analysis of symmetry for initial positions (statically):
=====================================================================
 Subroutine PRICEL returns:
 Original cell was already a primitive cell.
 

 Routine SETGRP: Setting up the symmetry group for a 
 hexagonal supercell.


 Subroutine GETGRP returns: Found  1 space group operations
 (whereof  1 operations were pure point group operations)
 out of a pool of 24 trial point group operations.


The static configuration has the point symmetry C_1 .


Analysis of symmetry for dynamics (positions and initial velocities):
=====================================================================
 Subroutine PRICEL returns:
 Original cell was already a primitive cell.
 

 Routine SETGRP: Setting up the symmetry group for a 
 hexagonal supercell.


 Subroutine GETGRP returns: Found  1 space group operations
 (whereof  1 operations were pure point group operations)
 out of a pool of 24 trial point group operations.


The dynamic configuration has the point symmetry C_1 .


Analysis of structural, dynamic, and magnetic symmetry:
=====================================================================
 Subroutine PRICEL returns:
 Original cell was already a primitive cell.
 

 Routine SETGRP: Setting up the symmetry group for a 
 hexagonal supercell.


 Subroutine GETGRP returns: Found  1 space group operations
 (whereof  1 operations were pure point group operations)
 out of a pool of 24 trial point group operations.


The magnetic configuration has the point symmetry C_1 .


 Subroutine INISYM returns: Found  1 space group operations
 (whereof  1 operations are pure point group operations),
 and found     1 'primitive' translations

 
 

Automatic generation of k-mesh.
 generate k-points for:    2    2    2
Space group operators:
 irot       det(A)        alpha          n_x          n_y          n_z        tau_x        tau_y        tau_z
    1     1.000000     0.000000     1.000000     0.000000     0.000000     0.000000     0.000000     0.000000
 
 Subroutine IBZKPT returns following result:
 ===========================================
 
 Found      8 irreducible k-points:
 
 Following reciprocal coordinates:
            Coordinates               Weight
  0.000000  0.000000  0.000000      1.000000
  0.500000 -0.000000 -0.000000      1.000000
  0.000000  0.500000  0.000000      1.000000
  0.500000  0.500000 -0.000000      1.000000
  0.000000  0.000000  0.500000      1.000000
  0.500000 -0.000000  0.500000      1.000000
  0.000000  0.500000  0.500000      1.000000
  0.500000  0.500000  0.500000      1.000000
 
 Following cartesian coordinates:
            Coordinates               Weight
  0.000000  0.000000  0.000000      1.000000
  0.049905  0.028813 -0.000000      1.000000
  0.000000  0.057626  0.000000      1.000000
  0.049905  0.086438 -0.000000      1.000000
  0.000000  0.000000  0.044571      1.000000
  0.049905  0.028813  0.044571      1.000000
  0.000000  0.057626  0.044571      1.000000
  0.049905  0.086438  0.044571      1.000000
 


--------------------------------------------------------------------------------------------------------




 Dimension of arrays:
   k-points           NKPTS =      8   k-points in BZ     NKDIM =      8   number of bands    NBANDS=    480
   number of dos      NEDOS =    301   number of ions     NIONS =     88
   non local maximal  LDIM  =      6   non local SUM 2l+1 LMDIM =     18
   total plane-waves  NPLWV = 140000
   max r-space proj   IRMAX =   1632   max aug-charges    IRDMAX=   4555
   dimension x,y,z NGX =    50 NGY =   50 NGZ =   56
   dimension x,y,z NGXF=   100 NGYF=  100 NGZF=  112
   support grid    NGXF=   100 NGYF=  100 NGZF=  112
   ions per type =              16   8  16  48
   NGX,Y,Z   is equivalent  to a cutoff of   8.30,  8.30,  8.30 a.u.
   NGXF,Y,Z  is equivalent  to a cutoff of  16.59, 16.59, 16.60 a.u.

 SYSTEM =  unknown system                          
 POSCAR =  Na Mg Mn  O                             

 Startparameter for this run:
   NWRITE =      2    write-flag & timer
   PREC   = normal    normal or accurate (medium, high low for compatibility)
   ISTART =      0    job   : 0-new  1-cont  2-samecut
   ICHARG =      1    charge: 1-file 2-atom 10-const
   ISPIN  =      2    spin polarized calculation?
   LNONCOLLINEAR =      F non collinear calculations
   LSORBIT =      F    spin-orbit coupling
   INIWAV =      1    electr: 0-lowe 1-rand  2-diag
   LASPH  =      T    aspherical Exc in radial PAW
   METAGGA=      F    non-selfconsistent MetaGGA calc.

 Electronic Relaxation 1
   ENCUT  =  400.0 eV  29.40 Ry    5.42 a.u.  16.34 16.34 18.29*2*pi/ulx,y,z
   ENINI  =  400.0     initial cutoff
   ENAUG  =  758.8 eV  augmentation charge cutoff
   NELM   =    200;   NELMIN=  6; NELMDL=-12     # of ELM steps 
   EDIFF  = 0.1E-04   stopping-criterion for ELM
   LREAL  =      T    real-space projection
   NLSPLINE    = F    spline interpolate recip. space projectors
   LCOMPAT=      F    compatible to vasp.4.4
   GGA_COMPAT  = T    GGA compatible to vasp.4.4-vasp.4.6
   LMAXPAW     = -100 max onsite density
   LMAXMIX     =    4 max onsite mixed and CHGCAR
   VOSKOWN=      0    Vosko Wilk Nusair interpolation
   ROPT   =   -0.00050  -0.00050  -0.00050  -0.00050
 Ionic relaxation
   EDIFFG = 0.1E-03   stopping-criterion for IOM
   NSW    =      1    number of steps for IOM
   NBLOCK =      1;   KBLOCK =      1    inner block; outer block 
   IBRION =     -1    ionic relax: 0-MD 1-quasi-New 2-CG
   NFREE  =      0    steps in history (QN), initial steepest desc. (CG)
   ISIF   =      2    stress and relaxation
   IWAVPR =     10    prediction:  0-non 1-charg 2-wave 3-comb
   ISYM   =      2    0-nonsym 1-usesym 2-fastsym
   LCORR  =      T    Harris-Foulkes like correction to forces

   POTIM  = 0.5000    time-step for ionic-motion
   TEIN   =    0.0    initial temperature
   TEBEG  =    0.0;   TEEND  =   0.0 temperature during run
   SMASS  =  -3.00    Nose mass-parameter (am)
   estimated Nose-frequenzy (Omega)   =  0.10E-29 period in steps =****** mass=  -0.229E-26a.u.
   SCALEE = 1.0000    scale energy and forces
   NPACO  =    256;   APACO  = 16.0  distance and # of slots for P.C.
   PSTRESS=    0.0 pullay stress

  Mass of Ions in am
   POMASS =  22.99 24.30 54.94 16.00
  Ionic Valenz
   ZVAL   =   7.00  8.00 13.00  6.00
  Atomic Wigner-Seitz radii
   RWIGS  =  -1.00 -1.00 -1.00 -1.00
  virtual crystal weights 
   VCA    =   1.00  1.00  1.00  1.00
   NELECT =     672.0000    total number of electrons
   NUPDOWN=      48.0000    fix difference up-down

 DOS related values:
   EMIN   =  10.00;   EMAX   =-10.00  energy-range for DOS
   EFERMI =   0.00
   ISMEAR =     0;   SIGMA  =   0.05  broadening in eV -4-tet -1-fermi 0-gaus

 Electronic relaxation 2 (details)
   IALGO  =     48    algorithm
   LDIAG  =      T    sub-space diagonalisation (order eigenvalues)
   LSUBROT=      F    optimize rotation matrix (better conditioning)
   TURBO    =      0    0=normal 1=particle mesh
   IRESTART =      0    0=no restart 2=restart with 2 vectors
   NREBOOT  =      0    no. of reboots
   NMIN     =      0    reboot dimension
   EREF     =   0.00    reference energy to select bands
   IMIX   =      4    mixing-type and parameters
     AMIX     =   0.40;   BMIX     =  1.00
     AMIX_MAG =   1.60;   BMIX_MAG =  1.00
     AMIN     =   0.10
     WC   =   100.;   INIMIX=   1;  MIXPRE=   1;  MAXMIX= -45

 Intra band minimization:
   WEIMIN = 0.0000     energy-eigenvalue tresh-hold
   EBREAK =  0.52E-08  absolut break condition
   DEPER  =   0.30     relativ break condition  

   TIME   =   0.40     timestep for ELM

  volume/ion in A,a.u.               =      11.08        74.78
  Fermi-wavevector in a.u.,A,eV,Ry     =   1.445993  2.732531 28.448379  2.090897
  Thomas-Fermi vector in A             =   2.564112
 
 Write flags
   LWAVE        =      F    write WAVECAR
   LDOWNSAMPLE  =      F    k-point downsampling of WAVECAR
   LCHARG       =      F    write CHGCAR
   LVTOT        =      F    write LOCPOT, total local potential
   LVHAR        =      F    write LOCPOT, Hartree potential only
   LELF         =      F    write electronic localiz. function (ELF)
   LORBIT       =     11    0 simple, 1 ext, 2 COOP (PROOUT), +10 PAW based schemes


 Dipole corrections
   LMONO  =      F    monopole corrections only (constant potential shift)
   LDIPOL =      F    correct potential (dipole corrections)
   IDIPOL =      0    1-x, 2-y, 3-z, 4-all directions 
   EPSILON=  1.0000000 bulk dielectric constant

 Exchange correlation treatment:
   GGA     =    --    GGA type
   LEXCH   =     8    internal setting for exchange type
   VOSKOWN=      0    Vosko Wilk Nusair interpolation
   LHFCALC =     F    Hartree Fock is set to
   LHFONE  =     F    Hartree Fock one center treatment
   AEXX    =    0.0000 exact exchange contribution

 Linear response parameters
   LEPSILON=     F    determine dielectric tensor
   LRPA    =     F    only Hartree local field effects (RPA)
   LNABLA  =     F    use nabla operator in PAW spheres
   LVEL    =     F    velocity operator in full k-point grid
   LINTERFAST=   F  fast interpolation
   KINTER  =     0    interpolate to denser k-point grid
   CSHIFT  =0.1000    complex shift for real part using Kramers Kronig
   OMEGAMAX=  -1.0    maximum frequency
   DEG_THRESHOLD= 0.2000000E-02 threshold for treating states as degnerate
   RTIME   =   -0.100 relaxation time in fs
  (WPLASMAI=    0.000 imaginary part of plasma frequency in eV, 0.658/RTIME)
   DFIELD  = 0.0000000 0.0000000 0.0000000 field for delta impulse in time
 
 Orbital magnetization related:
   ORBITALMAG=     F  switch on orbital magnetization
   LCHIMAG   =     F  perturbation theory with respect to B field
   DQ        =  0.001000  dq finite difference perturbation B field
   LLRAUG    =     F  two centre corrections for induced B field



--------------------------------------------------------------------------------------------------------


 Static calculation
 charge density and potential will be updated during run
 spin polarized calculation
 RMM-DIIS sequential band-by-band
 perform sub-space diagonalisation
    before iterative eigenvector-optimisation
 modified Broyden-mixing scheme, WC =      100.0
 initial mixing is a Kerker type mixing with AMIX =  0.4000 and BMIX =      1.0000
 Hartree-type preconditioning will be used
 using additional bands          144
 real space projection scheme for non local part
 use partial core corrections
 calculate Harris-corrections to forces 
   (improved forces if not selfconsistent)
 use gradient corrections 
 use of overlap-Matrix (Vanderbilt PP)
 Gauss-broadening in eV      SIGMA  =   0.05


--------------------------------------------------------------------------------------------------------


  energy-cutoff  :      400.00
  volume of cell :      975.20
      direct lattice vectors                 reciprocal lattice vectors
    10.019000053  0.000000000  0.000000000     0.099810360  0.057625538 -0.000000000
    -5.009500027  8.676708567  0.000000000     0.000000000  0.115251076  0.000000000
     0.000000000  0.000000000 11.218000412     0.000000000  0.000000000  0.089142446

  length of vectors
    10.019000053 10.019000053 11.218000412     0.115251076  0.115251076  0.089142446


 
 k-points in units of 2pi/SCALE and weight: read from INCAR                         
   0.00000000  0.00000000  0.00000000       0.125
   0.04990518  0.02881277 -0.00000000       0.125
   0.00000000  0.05762554  0.00000000       0.125
   0.04990518  0.08643831 -0.00000000       0.125
   0.00000000  0.00000000  0.04457122       0.125
   0.04990518  0.02881277  0.04457122       0.125
   0.00000000  0.05762554  0.04457122       0.125
   0.04990518  0.08643831  0.04457122       0.125
 
 k-points in reciprocal lattice and weights: read from INCAR                         
   0.00000000  0.00000000  0.00000000       0.125
   0.50000000 -0.00000000 -0.00000000       0.125
   0.00000000  0.50000000  0.00000000       0.125
   0.50000000  0.50000000 -0.00000000       0.125
   0.00000000  0.00000000  0.50000000       0.125
   0.50000000 -0.00000000  0.50000000       0.125
   0.00000000  0.50000000  0.50000000       0.125
   0.50000000  0.50000000  0.50000000       0.125
 
 position of ions in fractional coordinates (direct lattice) 
   0.69465893  0.73645833  0.25232126
   0.31507435  0.96944398  0.75791760
   0.67321931  0.15492247  0.74157869
   0.49185402  0.71082451  0.74960151
   0.03974371  0.84893745  0.25757175
   0.62209102  0.33512922  0.25681761
   0.13395341  0.63806355  0.74667496
   0.73869346  0.50581294  0.74993044
   0.36010520  0.65241922  0.23761721
   0.98356635  0.50061906  0.25493937
   0.84685268  0.16626351  0.24907202
   0.00290353  0.17531698  0.75094132
   0.34033547  0.34147544  0.74727400
   0.84796455  0.83825861  0.75052502
   0.16592091  0.17795820  0.26204759
   0.46044957  0.96553235  0.25905151
   0.84116623  0.49212786  0.99627580
   0.49265081  0.33528267  0.51362362
   0.33526974  0.48741063  0.99403633
   0.99327130  0.33822042  0.49158493
   0.34606319  0.00209543  0.01562409
   0.99354981  0.84530902  0.51179353
   0.83875660  0.99327526  0.00012195
   0.48787539  0.83057302  0.50701104
   0.16839625  0.15775469  0.98864397
   0.50397546  0.32638990  0.98991398
   0.15243102  0.17017974  0.50831875
   0.83380751  0.50558688  0.50194329
   0.67157483  0.15996751  0.99803570
   0.00807115  0.32734302  0.00512565
   0.65576495  0.16722009  0.49493134
   0.32957225  0.50860991  0.49244605
   0.67066127  0.65918660  0.99844493
   0.01550930  0.83136594  0.99913244
   0.65850325  0.67059069  0.50306648
   0.32267798  0.99963482  0.50442412
   0.17988887  0.66327110  0.00239282
   0.51019062  0.82649543  0.99991549
   0.15418835  0.67043280  0.49190317
   0.82488865  0.00842387  0.50137991
   0.33799250  0.30961510  0.07685122
   0.52454699  0.18143055  0.08632296
   0.65307579  0.48588010  0.08061089
   0.31652769  0.15806586  0.60046976
   0.50564290  0.53025176  0.60114724
   0.67659405  0.33475712  0.58761809
   0.34819640  0.17696572  0.88938399
   0.52115087  0.50631411  0.89712067
   0.66587382  0.31103499  0.90697091
   0.32001215  0.33987658  0.41275627
   0.47742118  0.14312702  0.40962024
   0.65983771  0.50716121  0.40913709
   0.84149646  0.31813216  0.09707969
   0.01754769  0.16351938  0.09376716
   0.16473723  0.49330918  0.09866464
   0.81226009  0.15698250  0.58582633
   0.99206791  0.51425261  0.58701371
   0.16421207  0.34228532  0.59285610
   0.83786817  0.16759581  0.91073272
   0.01744111  0.48836261  0.91650023
   0.16339516  0.32022281  0.90755033
   0.80651699  0.34261379  0.39918433
   0.98638306  0.16080884  0.40986003
   0.16836071  0.51877852  0.40189070
   0.83740220  0.81152662  0.08917454
   0.01784756  0.67563523  0.09535924
   0.16655604  0.99833018  0.09285434
   0.81020349  0.66231336  0.59763146
   0.98163591  0.01892209  0.59896593
   0.16966146  0.82681468  0.59336600
   0.84912987  0.66396491  0.90699765
   0.01676154  0.99210777  0.89501690
   0.17744160  0.82735751  0.92004810
   0.82471717  0.84253147  0.41410321
   0.98698273  0.65330073  0.40624263
   0.16950300  0.02991128  0.41588339
   0.34348831  0.81255581  0.09511588
   0.50791787  0.66779701  0.09096452
   0.65308190  0.99051154  0.09848547
   0.30637823  0.66181086  0.59542340
   0.49458760  0.00950377  0.58981189
   0.66954749  0.83951419  0.59847564
   0.33021750  0.66355922  0.90549114
   0.52335683  0.99362793  0.90811193
   0.66422257  0.83806088  0.90622211
   0.30056860  0.84088568  0.40329915
   0.48978952  0.66441784  0.40936618
   0.66293083  0.00957061  0.40326349
 
 position of ions in cartesian coordinates  (Angst):
   3.27049984  6.39003427  2.83054000
  -1.69969973  8.41158287  8.50232000
   5.96890016  1.34421713  8.31903000
   1.36701000  6.16761713  8.40903000
  -3.85456000  7.36598287  2.88944000
   4.55390013  2.90781857  2.88098000
  -1.85430013  5.53629143  8.37620000
   4.86709992  4.38879143  8.41272000
   0.33959995  5.66085140  2.66559000
   7.34650008  4.34372570  2.85991000
   7.65172000  1.44262000  2.79409000
  -0.84915997  1.52117430  8.42406000
   1.69919989  2.96288287  8.38292000
   4.29650029  7.27332570  8.41939000
   0.77088003  1.54409143  2.93965000
  -0.22359003  8.37764283  2.90604000
   5.96233000  4.27005000 11.17622231
   3.25627000  2.90915000  5.76183000
   0.91738400  4.22912000 11.15110000
   8.25727000  2.93464000  5.51460000
   3.45671003  0.01818143  0.17527100
   5.71980000  7.33450000  5.74130000
   3.42769000  8.61836000  0.00136802
   0.72726800  7.20664000  5.68765000
   0.89688997  1.36879143 11.09060841
   3.41428000  2.83199000 11.10485541
   0.67469100  1.47660000  5.70232000
   5.82118000  4.38683000  5.63080000
   5.92715103  1.38799143 11.19596491
  -1.55896005  2.84026000  0.05749959
   5.73242000  1.45092000  5.55214000
   0.75410300  4.41306000  5.52426000
   3.41716000  5.71957000 11.20055561
  -4.00934005  7.21352000 11.20826807
   3.23822000  5.81852000  5.64340000
  -1.77476000  8.67354000  5.65863000
  -1.52035000  5.75501000  0.02684260
   0.97127100  7.17126000 11.21705233
  -1.81372000  5.81715000  5.51817000
   8.22236003  0.07309143  5.62448000
   1.83533000  2.68644000  0.86211700
   4.34656000  1.57422000  0.96837100
   4.10915000  4.21584000  0.90429300
   2.37946003  1.37149143  6.73607000
   2.40974000  4.60084000  6.74367000
   5.10183000  2.90459000  6.59190000
   2.60207000  1.53548000  9.97711000
   2.68503000  4.39314000 10.06390000
   5.11326000  2.69876000 10.17440000
   1.50359000  2.94901000  4.63030000
   4.06628803  1.24187143  4.59512000
   4.07029000  4.40049000  4.58970000
   6.83727000  2.76034000  1.08904000
  -0.64334005  1.41881000  1.05188000
  -0.82073005  4.28030000  1.10682000
   7.35163003  1.36209143  6.57180000
   7.36338000  4.46202000  6.58512000
  -0.06943760  2.96991000  6.65066000
   7.55503000  1.45418000 10.21660000
  -2.27171005  4.23738000 10.28130000
   0.03289995  2.77848000 10.18090000
   6.36417000  2.97276000  4.47805000
   9.07700003  1.39529143  4.59781000
  -0.91201500  4.50129000  4.50841000
   4.32459000  7.04138000  1.00036000
  -3.20578005  5.86229000  1.06974000
  -3.33241005  8.66222000  1.04164000
   4.79957000  5.74670000  6.70423000
   9.74022003  0.16418143  6.71920000
  -2.44209000  7.17403000  6.65638000
   5.18130000  5.76103000 10.17470000
  -4.80203005  8.60823000 10.04030000
  -2.36686005  7.17874000 10.32110000
   4.04218000  7.31040000  4.64541000
   6.61587000  5.66850000  4.55723000
   1.54841003  0.25953143  4.66538000
  -0.62908900  7.05031000  1.06701000
   1.74350000  5.79428000  1.02044000
   1.58126000  8.59438000  1.10481000
  -0.24573800  5.74234000  6.67946000
   4.90766403  0.08246143  6.61651000
   2.50265000  7.28422000  6.71370000
  -0.01565080  5.75751000 10.15780000
   0.26593300  8.62142000 10.18720000
   2.45658000  7.27161000 10.16600000
  -1.20102000  7.29612000  4.52421000
   1.57880000  5.76496000  4.59227000
   6.59396003  0.08304143  4.52381000
 


--------------------------------------------------------------------------------------------------------


 k-point  1 :   0.0000 0.0000 0.0000  plane waves:   17725
 k-point  2 :   0.5000-0.0000-0.0000  plane waves:   17736
 k-point  3 :   0.0000 0.5000 0.0000  plane waves:   17736
 k-point  4 :   0.5000 0.5000-0.0000  plane waves:   17736
 k-point  5 :   0.0000 0.0000 0.5000  plane waves:   17676
 k-point  6 :   0.5000-0.0000 0.5000  plane waves:   17700
 k-point  7 :   0.0000 0.5000 0.5000  plane waves:   17700
 k-point  8 :   0.5000 0.5000 0.5000  plane waves:   17700

 maximum and minimum number of plane-waves per node :     17736    17676

 maximum number of plane-waves:     17736
 maximum index in each direction: 
   IXMAX=   16   IYMAX=   16   IZMAX=   18
   IXMIN=  -16   IYMIN=  -16   IZMIN=  -18


 serial   3D FFT for wavefunctions
 parallel 3D FFT for charge:
    minimum data exchange during FFTs selected (reduces bandwidth)


 total amount of memory used by VASP MPI-rank0    94428. kBytes
=======================================================================

   base      :      30000. kBytes
   nonlr-proj:      13669. kBytes
   fftplans  :       1275. kBytes
   grid      :      22786. kBytes
   one-center:       2737. kBytes
   wavefun   :      23961. kBytes
 
     INWAV:  cpu time    0.0000: real time    0.0001
 Broyden mixing: mesh for mixing (old mesh)
   NGX = 33   NGY = 33   NGZ = 37
  (NGX  =100   NGY  =100   NGZ  =112)
  gives a total of  40293 points

 initial charge density was supplied:
 charge density of overlapping atoms calculated
 number of electron     672.0000000 magnetization      48.0000000
 keeping initial charge density in first step


--------------------------------------------------------------------------------------------------------


 Maximum index for non-local projection operator         1548
 Maximum index for augmentation-charges          520 (set IRDMAX)


--------------------------------------------------------------------------------------------------------


 First call to EWALD:  gamma=   0.179
 Maximum number of real-space cells 3x 3x 2
 Maximum number of reciprocal cells 3x 3x 3

    FEWALD:  cpu time    0.0034: real time    0.0034


--------------------------------------- Iteration      1(   1)  ---------------------------------------


    POTLOK:  cpu time    0.1919: real time    0.1932
    SETDIJ:  cpu time    4.6177: real time    4.6268
    EDDIAG:  cpu time    4.3788: real time    4.7866
  RMM-DIIS:  cpu time    9.0477: real time    9.0519
    ORTHCH:  cpu time    1.1518: real time    1.2377
       DOS:  cpu time    0.0024: real time    0.0025
    --------------------------------------------
      LOOP:  cpu time   19.3903: real time   19.8988

 eigenvalue-minimisations  :  7680
 total energy-change (2. order) : 0.1594947E+04  (-0.3498319E+05)
 number of electron     672.0000000 magnetization      48.0000000
 augmentation part      672.0000000 magnetization      48.0000000

 Free energy of the ion-electron system (eV)
  ---------------------------------------------------
  alpha Z        PSCENC =      2652.81237852
  Ewald energy   TEWEN  =    -41833.49616035
  -Hartree energ DENC   =    -25778.74890800
  -exchange      EXHF   =         0.00000000
  -V(xc)+E(xc)   XCENC  =      3606.18558154
  PAW double counting   =     55594.23204139   -59034.67079123
  entropy T*S    EENTRO =        -0.05465447
  eigenvalues    EBANDS =     -7473.51051451
  atomic energy  EATOM  =     73862.19814772
  Solvation  Ediel_sol  =         0.00000000
  ---------------------------------------------------
  free energy    TOTEN  =      1594.94712061 eV

  energy without entropy =     1595.00177508  energy(sigma->0) =     1594.97444785


--------------------------------------------------------------------------------------------------------




--------------------------------------- Iteration      1(   2)  ---------------------------------------


    EDDIAG:  cpu time    4.4580: real time    4.8533
  RMM-DIIS:  cpu time    9.0677: real time    9.0721
    ORTHCH:  cpu time    1.2224: real time    1.3139
       DOS:  cpu time    0.0019: real time    0.0019
    --------------------------------------------
      LOOP:  cpu time   14.7500: real time   15.2412

 eigenvalue-minimisations  :  7680
 total energy-change (2. order) :-0.2324786E+04  (-0.8042348E+04)
 number of electron     672.0000000 magnetization      48.0000000
 augmentation part      672.0000000 magnetization      48.0000000

 Free energy of the ion-electron system (eV)
  ---------------------------------------------------
  alpha Z        PSCENC =      2652.81237852
  Ewald energy   TEWEN  =    -41833.49616035
  -Hartree energ DENC   =    -25778.74890800
  -exchange      EXHF   =         0.00000000
  -V(xc)+E(xc)   XCENC  =      3606.18558154
  PAW double counting   =     55594.23204139   -59034.67079123
  entropy T*S    EENTRO =        -0.04432594
  eigenvalues    EBANDS =     -9798.30658475
  atomic energy  EATOM  =     73862.19814772
  Solvation  Ediel_sol  =         0.00000000
  ---------------------------------------------------
  free energy    TOTEN  =      -729.83862110 eV

  energy without entropy =     -729.79429516  energy(sigma->0) =     -729.81645813


--------------------------------------------------------------------------------------------------------




--------------------------------------- Iteration      1(   3)  ---------------------------------------


    EDDIAG:  cpu time    4.4113: real time    4.8106
  RMM-DIIS:  cpu time    9.0330: real time    9.0527
    ORTHCH:  cpu time    1.1793: real time    1.2605
       DOS:  cpu time    0.0018: real time    0.0018
    --------------------------------------------
      LOOP:  cpu time   14.6255: real time   15.1255

 eigenvalue-minimisations  :  7680
 total energy-change (2. order) : 0.8521041E+02  (-0.1425407E+04)
 number of electron     672.0000000 magnetization      48.0000000
 augmentation part      672.0000000 magnetization      48.0000000

 Free energy of the ion-electron system (eV)
  ---------------------------------------------------
  alpha Z        PSCENC =      2652.81237852
  Ewald energy   TEWEN  =    -41833.49616035
  -Hartree energ DENC   =    -25778.74890800
  -exchange      EXHF   =         0.00000000
  -V(xc)+E(xc)   XCENC  =      3606.18558154
  PAW double counting   =     55594.23204139   -59034.67079123
  entropy T*S    EENTRO =        -0.03711958
  eigenvalues    EBANDS =     -9713.10337711
  atomic energy  EATOM  =     73862.19814772
  Solvation  Ediel_sol  =         0.00000000
  ---------------------------------------------------
  free energy    TOTEN  =      -644.62820710 eV

  energy without entropy =     -644.59108752  energy(sigma->0) =     -644.60964731


--------------------------------------------------------------------------------------------------------




--------------------------------------- Iteration      1(   4)  ---------------------------------------


    EDDIAG:  cpu time    4.4067: real time    4.8101
  RMM-DIIS:  cpu time    8.9980: real time    9.0672
    ORTHCH:  cpu time    1.1739: real time    1.2596
       DOS:  cpu time    0.0012: real time    0.0012
    --------------------------------------------
      LOOP:  cpu time   14.5798: real time   15.1381

 eigenvalue-minimisations  :  7680
 total energy-change (2. order) :-0.4662034E+03  (-0.4305200E+03)
 number of electron     672.0000000 magnetization      48.0000000
 augmentation part      672.0000000 magnetization      48.0000000

 Free energy of the ion-electron system (eV)
  ---------------------------------------------------
  alpha Z        PSCENC =      2652.81237852
  Ewald energy   TEWEN  =    -41833.49616035
  -Hartree energ DENC   =    -25778.74890800
  -exchange      EXHF   =         0.00000000
  -V(xc)+E(xc)   XCENC  =      3606.18558154
  PAW double counting   =     55594.23204139   -59034.67079123
  entropy T*S    EENTRO =        -0.00000000
  eigenvalues    EBANDS =    -10179.34389739
  atomic energy  EATOM  =     73862.19814772
  Solvation  Ediel_sol  =         0.00000000
  ---------------------------------------------------
  free energy    TOTEN  =     -1110.83160780 eV

  energy without entropy =    -1110.83160780  energy(sigma->0) =    -1110.83160780


--------------------------------------------------------------------------------------------------------




--------------------------------------- Iteration      1(   5)  ---------------------------------------


    EDDIAG:  cpu time    4.3967: real time    4.8021
  RMM-DIIS:  cpu time    9.0452: real time    9.0563
    ORTHCH:  cpu time    1.1570: real time    1.2399
       DOS:  cpu time    0.0013: real time    0.0013
    --------------------------------------------
      LOOP:  cpu time   14.6003: real time   15.0997

 eigenvalue-minimisations  :  7680
 total energy-change (2. order) :-0.1041741E+03  (-0.1597723E+03)
 number of electron     672.0000000 magnetization      48.0000000
 augmentation part      672.0000000 magnetization      48.0000000

 Free energy of the ion-electron system (eV)
  ---------------------------------------------------
  alpha Z        PSCENC =      2652.81237852
  Ewald energy   TEWEN  =    -41833.49616035
  -Hartree energ DENC   =    -25778.74890800
  -exchange      EXHF   =         0.00000000
  -V(xc)+E(xc)   XCENC  =      3606.18558154
  PAW double counting   =     55594.23204139   -59034.67079123
  entropy T*S    EENTRO =        -0.00000000
  eigenvalues    EBANDS =    -10283.51802538
  atomic energy  EATOM  =     73862.19814772
  Solvation  Ediel_sol  =         0.00000000
  ---------------------------------------------------
  free energy    TOTEN  =     -1215.00573579 eV

  energy without entropy =    -1215.00573579  energy(sigma->0) =    -1215.00573579


--------------------------------------------------------------------------------------------------------




--------------------------------------- Iteration      1(   6)  ---------------------------------------


    EDDIAG:  cpu time    4.4124: real time    4.8151
  RMM-DIIS:  cpu time    9.0255: real time    9.0606
    ORTHCH:  cpu time    1.2307: real time    1.3140
       DOS:  cpu time    0.0014: real time    0.0014
    --------------------------------------------
      LOOP:  cpu time   14.6700: real time   15.1912

 eigenvalue-minimisations  :  7680
 total energy-change (2. order) :-0.9157309E+01  (-0.7947410E+02)
 number of electron     672.0000000 magnetization      48.0000000
 augmentation part      672.0000000 magnetization      48.0000000

 Free energy of the ion-electron system (eV)
  ---------------------------------------------------
  alpha Z        PSCENC =      2652.81237852
  Ewald energy   TEWEN  =    -41833.49616035
  -Hartree energ DENC   =    -25778.74890800
  -exchange      EXHF   =         0.00000000
  -V(xc)+E(xc)   XCENC  =      3606.18558154
  PAW double counting   =     55594.23204139   -59034.67079123
  entropy T*S    EENTRO =        -0.00000000
  eigenvalues    EBANDS =    -10292.67533395
  atomic energy  EATOM  =     73862.19814772
  Solvation  Ediel_sol  =         0.00000000
  ---------------------------------------------------
  free energy    TOTEN  =     -1224.16304436 eV

  energy without entropy =    -1224.16304436  energy(sigma->0) =    -1224.16304436


--------------------------------------------------------------------------------------------------------




--------------------------------------- Iteration      1(   7)  ---------------------------------------


    EDDIAG:  cpu time    4.3733: real time    4.7955
  RMM-DIIS:  cpu time    9.0623: real time    9.0744
    ORTHCH:  cpu time    1.1581: real time    1.2449
       DOS:  cpu time    0.0014: real time    0.0014
    --------------------------------------------
      LOOP:  cpu time   14.5951: real time   15.1162

 eigenvalue-minimisations  :  7680
 total energy-change (2. order) :-0.1806537E+01  (-0.4871546E+02)
 number of electron     672.0000000 magnetization      48.0000000
 augmentation part      672.0000000 magnetization      48.0000000

 Free energy of the ion-electron system (eV)
  ---------------------------------------------------
  alpha Z        PSCENC =      2652.81237852
  Ewald energy   TEWEN  =    -41833.49616035
  -Hartree energ DENC   =    -25778.74890800
  -exchange      EXHF   =         0.00000000
  -V(xc)+E(xc)   XCENC  =      3606.18558154
  PAW double counting   =     55594.23204139   -59034.67079123
  entropy T*S    EENTRO =        -0.00000000
  eigenvalues    EBANDS =    -10294.48187069
  atomic energy  EATOM  =     73862.19814772
  Solvation  Ediel_sol  =         0.00000000
  ---------------------------------------------------
  free energy    TOTEN  =     -1225.96958110 eV

  energy without entropy =    -1225.96958110  energy(sigma->0) =    -1225.96958110


--------------------------------------------------------------------------------------------------------




--------------------------------------- Iteration      1(   8)  ---------------------------------------


    EDDIAG:  cpu time    4.4179: real time    4.8267
  RMM-DIIS:  cpu time    9.0376: real time    9.0671
    ORTHCH:  cpu time    1.1558: real time    1.2409
       DOS:  cpu time    0.0015: real time    0.0015
    --------------------------------------------
      LOOP:  cpu time   14.6128: real time   15.1363

 eigenvalue-minimisations  :  7680
 total energy-change (2. order) : 0.5044243E+01  (-0.3040561E+02)
 number of electron     672.0000000 magnetization      48.0000000
 augmentation part      672.0000000 magnetization      48.0000000

 Free energy of the ion-electron system (eV)
  ---------------------------------------------------
  alpha Z        PSCENC =      2652.81237852
  Ewald energy   TEWEN  =    -41833.49616035
  -Hartree energ DENC   =    -25778.74890800
  -exchange      EXHF   =         0.00000000
  -V(xc)+E(xc)   XCENC  =      3606.18558154
  PAW double counting   =     55594.23204139   -59034.67079123
  entropy T*S    EENTRO =        -0.00000000
  eigenvalues    EBANDS =    -10289.43762794
  atomic energy  EATOM  =     73862.19814772
  Solvation  Ediel_sol  =         0.00000000
  ---------------------------------------------------
  free energy    TOTEN  =     -1220.92533835 eV

  energy without entropy =    -1220.92533835  energy(sigma->0) =    -1220.92533835


--------------------------------------------------------------------------------------------------------




--------------------------------------- Iteration      1(   9)  ---------------------------------------


    EDDIAG:  cpu time    4.3866: real time    4.7984
  RMM-DIIS:  cpu time   19.1122: real time   19.1452
    ORTHCH:  cpu time    1.1585: real time    1.2397
       DOS:  cpu time    0.0012: real time    0.0012
    --------------------------------------------
      LOOP:  cpu time   24.6586: real time   25.1845

 eigenvalue-minimisations  : 21819
 total energy-change (2. order) : 0.9516236E+01  (-0.1344878E+02)
 number of electron     672.0000000 magnetization      48.0000000
 augmentation part      672.0000000 magnetization      48.0000000

 Free energy of the ion-electron system (eV)
  ---------------------------------------------------
  alpha Z        PSCENC =      2652.81237852
  Ewald energy   TEWEN  =    -41833.49616035
  -Hartree energ DENC   =    -25778.74890800
  -exchange      EXHF   =         0.00000000
  -V(xc)+E(xc)   XCENC  =      3606.18558154
  PAW double counting   =     55594.23204139   -59034.67079123
  entropy T*S    EENTRO =        -0.00000001
  eigenvalues    EBANDS =    -10279.92139154
  atomic energy  EATOM  =     73862.19814772
  Solvation  Ediel_sol  =         0.00000000
  ---------------------------------------------------
  free energy    TOTEN  =     -1211.40910196 eV

  energy without entropy =    -1211.40910195  energy(sigma->0) =    -1211.40910196


--------------------------------------------------------------------------------------------------------




--------------------------------------- Iteration      1(  10)  ---------------------------------------


    EDDIAG:  cpu time    4.4009: real time    4.8354
  RMM-DIIS:  cpu time   17.4960: real time   17.5464
    ORTHCH:  cpu time    1.1602: real time    1.2547
       DOS:  cpu time    0.0013: real time    0.0013
    --------------------------------------------
      LOOP:  cpu time   23.0585: real time   23.6378

 eigenvalue-minimisations  : 19509
 total energy-change (2. order) :-0.1945778E+01  (-0.5363301E+00)
 number of electron     672.0000000 magnetization      48.0000000
 augmentation part      672.0000000 magnetization      48.0000000

 Free energy of the ion-electron system (eV)
  ---------------------------------------------------
  alpha Z        PSCENC =      2652.81237852
  Ewald energy   TEWEN  =    -41833.49616035
  -Hartree energ DENC   =    -25778.74890800
  -exchange      EXHF   =         0.00000000
  -V(xc)+E(xc)   XCENC  =      3606.18558154
  PAW double counting   =     55594.23204139   -59034.67079123
  entropy T*S    EENTRO =        -0.00000013
  eigenvalues    EBANDS =    -10281.86716893
  atomic energy  EATOM  =     73862.19814772
  Solvation  Ediel_sol  =         0.00000000
  ---------------------------------------------------
  free energy    TOTEN  =     -1213.35487946 eV

  energy without entropy =    -1213.35487934  energy(sigma->0) =    -1213.35487940


--------------------------------------------------------------------------------------------------------




--------------------------------------- Iteration      1(  11)  ---------------------------------------


    EDDIAG:  cpu time    4.3837: real time    4.8098
  RMM-DIIS:  cpu time   19.5226: real time   19.6491
    ORTHCH:  cpu time    1.1596: real time    1.2459
       DOS:  cpu time    0.0014: real time    0.0014
    --------------------------------------------
      LOOP:  cpu time   25.0673: real time   25.7061

 eigenvalue-minimisations  : 22578
 total energy-change (2. order) : 0.7194229E-01  (-0.4385489E-01)
 number of electron     672.0000000 magnetization      48.0000000
 augmentation part      672.0000000 magnetization      48.0000000

 Free energy of the ion-electron system (eV)
  ---------------------------------------------------
  alpha Z        PSCENC =      2652.81237852
  Ewald energy   TEWEN  =    -41833.49616035
  -Hartree energ DENC   =    -25778.74890800
  -exchange      EXHF   =         0.00000000
  -V(xc)+E(xc)   XCENC  =      3606.18558154
  PAW double counting   =     55594.23204139   -59034.67079123
  entropy T*S    EENTRO =        -0.00000011
  eigenvalues    EBANDS =    -10281.79522666
  atomic energy  EATOM  =     73862.19814772
  Solvation  Ediel_sol  =         0.00000000
  ---------------------------------------------------
  free energy    TOTEN  =     -1213.28293717 eV

  energy without entropy =    -1213.28293706  energy(sigma->0) =    -1213.28293712


--------------------------------------------------------------------------------------------------------




--------------------------------------- Iteration      1(  12)  ---------------------------------------


    EDDIAG:  cpu time    4.4089: real time    4.8247
  RMM-DIIS:  cpu time   21.2492: real time   21.3153
    ORTHCH:  cpu time    1.1579: real time    1.2421
       DOS:  cpu time    0.0013: real time    0.0013
    CHARGE:  cpu time    1.7818: real time    1.7827
    MIXING:  cpu time    0.0010: real time    0.0012
    --------------------------------------------
      LOOP:  cpu time   28.6001: real time   29.1673

 eigenvalue-minimisations  : 24349
 total energy-change (2. order) :-0.9839892E-03  (-0.4400010E-02)
 number of electron     672.0000220 magnetization      47.9999991
 augmentation part      239.1027581 magnetization      29.0543634

 Broyden mixing:
  rms(total) = 0.12632E+02    rms(broyden)= 0.12623E+02
  rms(prec ) = 0.14468E+02
  weight for this iteration     100.00

 Free energy of the ion-electron system (eV)
  ---------------------------------------------------
  alpha Z        PSCENC =      2652.81237852
  Ewald energy   TEWEN  =    -41833.49616035
  -Hartree energ DENC   =    -25778.74890800
  -exchange      EXHF   =         0.00000000
  -V(xc)+E(xc)   XCENC  =      3606.18558154
  PAW double counting   =     55594.23204139   -59034.67079123
  entropy T*S    EENTRO =        -0.00000011
  eigenvalues    EBANDS =    -10281.79621064
  atomic energy  EATOM  =     73862.19814772
  Solvation  Ediel_sol  =         0.00000000
  ---------------------------------------------------
  free energy    TOTEN  =     -1213.28392116 eV

  energy without entropy =    -1213.28392105  energy(sigma->0) =    -1213.28392111


--------------------------------------------------------------------------------------------------------




--------------------------------------- Iteration      1(  13)  ---------------------------------------


    POTLOK:  cpu time    0.1705: real time    0.1718
    SETDIJ:  cpu time    4.9912: real time    4.9955
    EDDIAG:  cpu time    4.3953: real time    4.8136
  RMM-DIIS:  cpu time   17.2696: real time   17.3104
    ORTHCH:  cpu time    1.1573: real time    1.2418
       DOS:  cpu time    0.0014: real time    0.0014
    CHARGE:  cpu time    1.7765: real time    1.7802
    MIXING:  cpu time    0.0009: real time    0.0009
    --------------------------------------------
      LOOP:  cpu time   29.7626: real time   30.3156

 eigenvalue-minimisations  : 18753
 total energy-change (2. order) : 0.2286323E+03  (-0.1214185E+03)
 number of electron     672.0000238 magnetization      47.9999989
 augmentation part      268.9099058 magnetization      26.4541054

 Broyden mixing:
  rms(total) = 0.13942E+02    rms(broyden)= 0.13939E+02
  rms(prec ) = 0.15682E+02
  weight for this iteration     100.00

 eigenvalues of (default mixing * dielectric matrix)
  average eigenvalue GAMMA=   0.3195
  0.3195

 Free energy of the ion-electron system (eV)
  ---------------------------------------------------
  alpha Z        PSCENC =      2652.81237852
  Ewald energy   TEWEN  =    -41833.49616035
  -Hartree energ DENC   =    -25110.75957201
  -exchange      EXHF   =         0.00000000
  -V(xc)+E(xc)   XCENC  =      3696.55866106
  PAW double counting   =     59945.28180348   -63370.44286622
  entropy T*S    EENTRO =        -0.07565094
  eigenvalues    EBANDS =    -10826.72837053
  atomic energy  EATOM  =     73862.19814772
  Solvation  Ediel_sol  =         0.00000000
  ---------------------------------------------------
  free energy    TOTEN  =      -984.65162927 eV

  energy without entropy =     -984.57597833  energy(sigma->0) =     -984.61380380


--------------------------------------------------------------------------------------------------------




--------------------------------------- Iteration      1(  14)  ---------------------------------------


    POTLOK:  cpu time    0.1739: real time    0.1740
    SETDIJ:  cpu time    4.9746: real time    4.9791
    EDDIAG:  cpu time    4.4035: real time    4.7917
  RMM-DIIS:  cpu time   17.5594: real time   17.6151
    ORTHCH:  cpu time    1.1684: real time    1.2546
       DOS:  cpu time    0.0013: real time    0.0013
    CHARGE:  cpu time    1.7820: real time    1.7838
    MIXING:  cpu time    0.0010: real time    0.0010
    --------------------------------------------
      LOOP:  cpu time   30.0641: real time   30.6006

 eigenvalue-minimisations  : 19360
 total energy-change (2. order) : 0.6900894E+02  (-0.1780565E+02)
 number of electron     672.0000228 magnetization      47.9999982
 augmentation part      246.5758975 magnetization      32.1657189

 Broyden mixing:
  rms(total) = 0.53322E+01    rms(broyden)= 0.53279E+01
  rms(prec ) = 0.57674E+01
  weight for this iteration     100.00

 eigenvalues of (default mixing * dielectric matrix)
  average eigenvalue GAMMA=   0.7326
  1.1076  0.3577

 Free energy of the ion-electron system (eV)
  ---------------------------------------------------
  alpha Z        PSCENC =      2652.81237852
  Ewald energy   TEWEN  =    -41833.49616035
  -Hartree energ DENC   =    -25722.09552839
  -exchange      EXHF   =         0.00000000
  -V(xc)+E(xc)   XCENC  =      3673.95424328
  PAW double counting   =     63348.85104286   -66831.30521055
  entropy T*S    EENTRO =        -0.00000000
  eigenvalues    EBANDS =    -10066.56159882
  atomic energy  EATOM  =     73862.19814772
  Solvation  Ediel_sol  =         0.00000000
  ---------------------------------------------------
  free energy    TOTEN  =      -915.64268573 eV

  energy without entropy =     -915.64268573  energy(sigma->0) =     -915.64268573


--------------------------------------------------------------------------------------------------------




--------------------------------------- Iteration      1(  15)  ---------------------------------------


    POTLOK:  cpu time    0.1738: real time    0.1742
    SETDIJ:  cpu time    4.9768: real time    4.9816
    EDDIAG:  cpu time    4.4301: real time    4.8205
  RMM-DIIS:  cpu time   17.8069: real time   17.8652
    ORTHCH:  cpu time    1.1594: real time    1.2415
       DOS:  cpu time    0.0015: real time    0.0015
    CHARGE:  cpu time    1.7774: real time    1.7791
    MIXING:  cpu time    0.0014: real time    0.0014
    --------------------------------------------
      LOOP:  cpu time   30.3272: real time   30.8649

 eigenvalue-minimisations  : 20241
 total energy-change (2. order) : 0.1451410E+02  (-0.2092823E+01)
 number of electron     672.0000229 magnetization      47.9999977
 augmentation part      249.6114073 magnetization      33.7898863

 Broyden mixing:
  rms(total) = 0.22374E+01    rms(broyden)= 0.22371E+01
  rms(prec ) = 0.23265E+01
  weight for this iteration     100.00

 eigenvalues of (default mixing * dielectric matrix)
  average eigenvalue GAMMA=   0.9288
  1.6691  0.3849  0.7322

 Free energy of the ion-electron system (eV)
  ---------------------------------------------------
  alpha Z        PSCENC =      2652.81237852
  Ewald energy   TEWEN  =    -41833.49616035
  -Hartree energ DENC   =    -25644.47383456
  -exchange      EXHF   =         0.00000000
  -V(xc)+E(xc)   XCENC  =      3706.95177143
  PAW double counting   =     67454.95571118   -70977.70509356
  entropy T*S    EENTRO =        -0.00000000
  eigenvalues    EBANDS =    -10122.37150262
  atomic energy  EATOM  =     73862.19814772
  Solvation  Ediel_sol  =         0.00000000
  ---------------------------------------------------
  free energy    TOTEN  =      -901.12858222 eV

  energy without entropy =     -901.12858222  energy(sigma->0) =     -901.12858222


--------------------------------------------------------------------------------------------------------




--------------------------------------- Iteration      1(  16)  ---------------------------------------


    POTLOK:  cpu time    0.1678: real time    0.1702
    SETDIJ:  cpu time    5.0335: real time    5.0376
    EDDIAG:  cpu time    4.4121: real time    4.7887
  RMM-DIIS:  cpu time   17.4727: real time   17.5195
    ORTHCH:  cpu time    1.1546: real time    1.2404
       DOS:  cpu time    0.0014: real time    0.0014
    CHARGE:  cpu time    1.7789: real time    1.7823
    MIXING:  cpu time    0.0010: real time    0.0010
    --------------------------------------------
      LOOP:  cpu time   30.0220: real time   30.5411

 eigenvalue-minimisations  : 19111
 total energy-change (2. order) :-0.1414311E+01  (-0.6638783E+00)
 number of electron     672.0000231 magnetization      47.9999976
 augmentation part      251.1045104 magnetization      33.8806555

 Broyden mixing:
  rms(total) = 0.15096E+01    rms(broyden)= 0.15091E+01
  rms(prec ) = 0.15910E+01
  weight for this iteration     100.00

 eigenvalues of (default mixing * dielectric matrix)
  average eigenvalue GAMMA=   0.9685
  2.0856  0.8916  0.3918  0.5048

 Free energy of the ion-electron system (eV)
  ---------------------------------------------------
  alpha Z        PSCENC =      2652.81237852
  Ewald energy   TEWEN  =    -41833.49616035
  -Hartree energ DENC   =    -25592.15190466
  -exchange      EXHF   =         0.00000000
  -V(xc)+E(xc)   XCENC  =      3707.96113998
  PAW double counting   =     70347.92685892   -73899.63103198
  entropy T*S    EENTRO =        -0.00000000
  eigenvalues    EBANDS =    -10148.16232103
  atomic energy  EATOM  =     73862.19814772
  Solvation  Ediel_sol  =         0.00000000
  ---------------------------------------------------
  free energy    TOTEN  =      -902.54289288 eV

  energy without entropy =     -902.54289288  energy(sigma->0) =     -902.54289288


--------------------------------------------------------------------------------------------------------




--------------------------------------- Iteration      1(  17)  ---------------------------------------


    POTLOK:  cpu time    0.1727: real time    0.1734
    SETDIJ:  cpu time    5.0383: real time    5.0425
    EDDIAG:  cpu time    4.4113: real time    4.8049
  RMM-DIIS:  cpu time   18.3647: real time   18.4109
    ORTHCH:  cpu time    1.1546: real time    1.2406
       DOS:  cpu time    0.0011: real time    0.0011
    CHARGE:  cpu time    1.7987: real time    1.8008
    MIXING:  cpu time    0.0018: real time    0.0018
    --------------------------------------------
      LOOP:  cpu time   30.9431: real time   31.4760

 eigenvalue-minimisations  : 20430
 total energy-change (2. order) : 0.8911256E-01  (-0.7533623E-01)
 number of electron     672.0000231 magnetization      47.9999976
 augmentation part      251.1344013 magnetization      33.8793389

 Broyden mixing:
  rms(total) = 0.79820E+00    rms(broyden)= 0.79803E+00
  rms(prec ) = 0.90202E+00
  weight for this iteration     100.00

 eigenvalues of (default mixing * dielectric matrix)
  average eigenvalue GAMMA=   0.9907
  2.2288  1.1149  0.3801  0.6778  0.5518

 Free energy of the ion-electron system (eV)
  ---------------------------------------------------
  alpha Z        PSCENC =      2652.81237852
  Ewald energy   TEWEN  =    -41833.49616035
  -Hartree energ DENC   =    -25580.44778547
  -exchange      EXHF   =         0.00000000
  -V(xc)+E(xc)   XCENC  =      3705.30305101
  PAW double counting   =     71284.70867240   -74845.48809187
  entropy T*S    EENTRO =        -0.00000000
  eigenvalues    EBANDS =    -10148.04399228
  atomic energy  EATOM  =     73862.19814772
  Solvation  Ediel_sol  =         0.00000000
  ---------------------------------------------------
  free energy    TOTEN  =      -902.45378032 eV

  energy without entropy =     -902.45378032  energy(sigma->0) =     -902.45378032


--------------------------------------------------------------------------------------------------------




--------------------------------------- Iteration      1(  18)  ---------------------------------------


    POTLOK:  cpu time    0.1729: real time    0.1730
    SETDIJ:  cpu time    5.0468: real time    5.0496
    EDDIAG:  cpu time    4.4061: real time    4.7873
  RMM-DIIS:  cpu time   17.8361: real time   17.8657
    ORTHCH:  cpu time    1.1582: real time    1.2436
       DOS:  cpu time    0.0013: real time    0.0013
    CHARGE:  cpu time    1.7820: real time    1.7827
    MIXING:  cpu time    0.0011: real time    0.0011
    --------------------------------------------
      LOOP:  cpu time   30.4043: real time   30.9043

 eigenvalue-minimisations  : 19310
 total energy-change (2. order) : 0.4295766E+00  (-0.7067906E-01)
 number of electron     672.0000231 magnetization      47.9999975
 augmentation part      250.6186237 magnetization      33.8465146

 Broyden mixing:
  rms(total) = 0.29155E+00    rms(broyden)= 0.29128E+00
  rms(prec ) = 0.30757E+00
  weight for this iteration     100.00

 eigenvalues of (default mixing * dielectric matrix)
  average eigenvalue GAMMA=   1.0161
  2.4501  1.3739  0.8366  0.5873  0.3820  0.4665

 Free energy of the ion-electron system (eV)
  ---------------------------------------------------
  alpha Z        PSCENC =      2652.81237852
  Ewald energy   TEWEN  =    -41833.49616035
  -Hartree energ DENC   =    -25585.08914989
  -exchange      EXHF   =         0.00000000
[...]
   4      -0.604    -0.858     1.462    -0.083    -0.063     0.461
   5      -0.705    -0.668     1.374    -0.116     0.167     0.022
   6      -0.766    -0.685     1.451    -0.118     0.428     0.110
   7      -0.935    -0.882     1.816    -0.036     0.214     0.030
   8      -0.680    -0.714     1.394    -0.176    -0.358    -0.209
   9      -0.601    -0.964     1.566     0.024     0.079    -0.549
  10      -0.796    -0.745     1.540     0.078    -0.452     0.350
  11      -0.711    -0.859     1.570     0.044    -0.028    -0.486
  12      -0.684    -1.010     1.694     0.010     0.082     0.530
  13      -0.748    -0.715     1.463     0.087     0.462    -0.272
  14      -0.751    -0.653     1.404     0.120     0.430    -0.192
  15      -0.958    -0.877     1.835    -0.045     0.033     0.053
  16      -0.761    -0.687     1.448     0.121    -0.425     0.288
  17       1.592     1.385    -2.978    -0.028     0.078     0.067
  18       1.384     1.451    -2.834     0.010     0.060    -0.070
  19       1.330     1.643    -2.973     0.028    -0.096     0.093
  20       1.224     1.698    -2.922    -0.132    -0.036    -0.061
  21       1.408     1.496    -2.905     0.256     0.075    -0.050
  22       1.501     1.336    -2.837    -0.074     0.042     0.023
  23       1.390     1.473    -2.863     0.206     0.035     0.049
  24       1.222     1.636    -2.858    -0.090    -0.044     0.088
  25       0.845    -0.778    -0.067    -0.830    -0.281    -0.214
  26      -1.384     1.091     0.294    -0.318    -1.489    -0.308
  27      -1.073     0.006     1.067     0.886     1.590    -0.729
  28       0.555     0.075    -0.629    -1.631    -0.587    -0.797
  29       0.267    -0.726     0.459     0.937     0.514    -0.502
  30       0.097    -1.115     1.019     0.405     0.605     0.908
  31       0.972    -1.350     0.378    -0.295    -0.258    -0.544
  32       0.272    -2.483     2.211    -0.112     0.564     0.344
  33      -0.230    -2.076     2.306    -0.314    -0.170    -1.156
  34      -0.913    -0.380     1.294    -0.730    -0.531     0.216
  35       0.008    -0.020     0.012    -0.569     0.375     0.831
  36       1.049    -0.451    -0.598    -0.233     0.583    -0.070
  37       0.350    -1.641     1.290    -0.143     1.128     0.358
  38       1.831    -0.593    -1.238    -0.863     2.163     0.838
  39       1.708    -0.395    -1.313    -0.269    -1.041     0.100
  40      -0.010    -0.235     0.245     0.716     0.123    -0.043
  41      -4.114     3.523     0.591    -6.678     2.751    -4.436
  42      -2.423     3.262    -0.839     5.200     1.601     3.414
  43       5.622    -8.281     2.659     1.033    -6.629     2.021
  44      -4.622     2.882     1.740     4.114    -2.924    -4.042
  45      -1.058     3.056    -1.998    -5.179    -1.065     3.379
  46       4.914    -6.052     1.138    -1.391     3.929    -1.541
  47      -4.102     4.639    -0.537    -5.071     2.151    -5.530
  48       5.518    -4.973    -0.546    -0.295    -4.799    -2.222
  49      -2.713     1.178     1.535     5.404     1.334     4.441
  50       5.584    -8.810     3.226     1.371     7.001     0.588
  51      -3.588     3.867    -0.280    -5.990    -1.400     4.154
  52      -2.371     1.045     1.327     3.964    -0.699    -5.404
  53      -3.985     3.718     0.267    -3.479     2.511    -2.471
  54      -2.429     2.163     0.267     4.359     3.671     3.091
  55       5.809    -5.332    -0.477    -1.104    -5.270     0.278
  56      -2.483     2.023     0.460     6.053    -2.543    -4.458
  57      -4.855     4.493     0.361    -5.071    -3.999     4.207
  58       4.939    -6.133     1.195     0.745     5.495     0.017
  59      -3.069     1.583     1.486    -4.995     2.003    -4.167
  60       5.030    -6.750     1.719    -0.030    -4.902     1.588
  61      -1.718    -0.614     2.332     5.393     2.444     3.760
  62       6.723    -5.067    -1.656    -1.286     2.847    -1.113
  63      -2.387     1.912     0.475    -3.663    -1.846     2.849
  64      -5.420     2.281     3.139     4.770    -2.510    -3.522
  65      -2.195     0.550     1.645    -5.533     2.307    -4.190
  66      -2.438     0.473     1.965     4.426     1.376     5.858
  67       5.152    -4.543    -0.609    -0.923    -4.086    -1.118
  68      -4.534     3.906     0.628     3.414    -2.925    -2.208
  69      -3.442     2.714     0.728    -4.008    -1.826     3.295
  70       6.451    -5.419    -1.032    -0.965     2.986    -1.234
  71      -3.228     1.833     1.395    -3.828     2.592    -3.799
  72       5.377    -5.854     0.477     1.367    -4.508    -1.110
  73      -4.588     1.355     3.233     4.363     3.492     3.835
  74       3.750    -5.880     2.130    -0.146     3.976    -0.232
  75      -3.722     3.329     0.393    -5.506    -1.484     5.114
  76      -2.915     4.104    -1.188     5.575    -0.589    -4.356
  77      -2.720     2.535     0.185    -3.736     0.414    -4.141
  78      -3.177     1.661     1.516     4.256     3.319     3.882
  79       6.676    -5.216    -1.461     0.061    -2.949    -1.724
  80      -1.390     3.889    -2.499     4.196    -1.323    -3.025
  81      -2.544     2.207     0.337    -5.062    -2.121     4.462
  82       4.726    -5.755     1.029     0.726     4.796     0.277
  83      -3.747     3.378     0.368    -3.955     4.255    -2.741
  84       6.064    -6.672     0.608     0.349    -4.640    -0.800
  85      -3.284     2.481     0.803     3.496     3.614     3.776
  86       8.274    -7.129    -1.145    -0.893     4.629    -1.110
  87      -1.803    -1.196     2.999    -5.012    -2.050     4.490
  88      -3.529     2.294     1.235     4.742    -1.323    -4.751
 ---------------------------------------------------------------------


 Total hyperfine coupling parameters after diagonalization (MHz)
 (convention: |A_zz| > |A_xx| > |A_yy|)
 ----------------------------------------------------------------------
  ion      A_xx      A_yy      A_zz     asymmetry (A_yy - A_xx)/ A_zz 
 ----------------------------------------------------------------------
   1       0.422     0.352     3.115      -0.022
   2       0.667     0.544     2.589      -0.048
   3       0.413     0.184     3.115      -0.073
   4       1.365     0.999     3.512      -0.104
   5       1.462     1.222     3.423      -0.070
   6       1.943     1.629     4.087      -0.077
   7       0.443     0.340     3.141      -0.033
   8       1.332     0.918     3.328      -0.124
   9       2.410     1.928     4.691      -0.103
  10       2.612     2.318     4.970      -0.059
  11       1.803     1.550     4.173      -0.061
  12       2.363     1.940     4.847      -0.087
  13       1.540     1.247     3.768      -0.078
  14       1.987     1.637     4.061      -0.086
  15       0.717     0.596     3.412      -0.035
  16       2.763     2.400     4.917      -0.074
  17      15.231    10.868    15.445      -0.282
  18      14.458    10.238    14.527      -0.290
  19      14.830    10.522    15.147      -0.284
  20      14.829    10.716    15.372      -0.268
  21      14.705    10.605    15.223      -0.269
  22      14.277    10.132    14.498      -0.286
  23      13.188     9.102    13.609      -0.300
  24      13.257     9.194    13.712      -0.296
  25      96.871    95.669    98.099      -0.012
  26      98.586    95.227    98.795      -0.034
  27      98.739    95.806   100.190      -0.029
  28      95.477    93.382    97.377      -0.022
  29      96.540    94.421    96.906      -0.022
  30      95.805    94.537    97.679      -0.013
  31     100.490    98.449   101.077      -0.020
  32      96.880    94.229    99.127      -0.027
  33     100.167    97.929   102.941      -0.022
  34      94.807    93.381    96.339      -0.015
  35      93.229    91.672    93.734      -0.017
  36      96.674    96.377    98.429      -0.003
  37      97.868    96.465   100.249      -0.014
  38      95.033    92.185    98.098      -0.029
  39      96.237    95.028    98.731      -0.012
  40      93.698    92.594    94.068      -0.012
  41       6.744     0.985    19.201      -0.300
  42       3.433     0.296    13.789      -0.228
  43       6.435    -0.747    19.260      -0.373
  44       4.398    -0.483    14.473      -0.337
  45       5.027     2.650    15.481      -0.154
  46       6.411     1.280    15.361      -0.334
  47       4.219     1.519    18.206      -0.148
  48       6.676     2.123    16.721      -0.272
  49       6.520     0.889    15.746      -0.358
  50       5.881    -0.395    20.148      -0.311
  51       6.577     1.686    17.886      -0.273
  52       4.207    -0.333    13.490      -0.337
  53       5.104     0.320    12.763      -0.375
  54       4.606     0.937    14.259      -0.257
  55       3.933     1.894    16.243      -0.126
  56       6.883     2.643    18.589      -0.228
  57       9.174     3.638    21.275      -0.260
  58       5.230     1.709    16.815      -0.209
  59       5.419     0.818    15.131      -0.304
  60       6.329     0.712    16.432      -0.342
  61       6.111     0.638    15.134      -0.362
  62       3.958     0.913    14.118      -0.216
  63       4.483     1.561    12.120      -0.241
  64       6.660    -0.674    15.268      -0.480
  65       5.048     0.083    14.964      -0.332
  66       4.038    -0.576    14.634      -0.315
  67       5.292     1.921    14.524      -0.232
  68       4.999    -1.067    12.065      -0.503
  69       6.182     2.294    14.681      -0.265
  70       6.588     2.728    16.104      -0.240
  71      -2.003     1.284    10.726       0.306
  72       8.545     4.647    19.006      -0.205
  73       5.520    -0.162    15.470      -0.367
  74       5.822     1.051    13.941      -0.342
  75       7.636     3.048    19.408      -0.236
  76       5.837     1.522    16.997      -0.254
  77       5.187     1.460    13.532      -0.275
  78       4.879     1.266    15.136      -0.239
  79       4.966     0.669    14.308      -0.300
  80       3.490     2.902    14.160      -0.041
  81       3.821     0.533    14.793      -0.222
  82       2.857    -0.696    13.168      -0.270
  83       7.433     1.501    16.118      -0.368
  84       5.110     0.338    15.849      -0.301
  85       7.956     4.457    17.861      -0.196
  86       6.346     1.947    19.533      -0.225
  87       7.217     1.550    16.420      -0.345
  88       6.233     1.648    16.331      -0.281
 ---------------------------------------------------------------------



--------------------------------------------------------------------------------------------------------


 stress matrix after NEB project (eV)
    -46.97642      1.40516     -3.53874
      1.40220    -42.63491      2.26998
     -3.56232      2.25341    -57.75476
  FORCES: max atom, RMS     2.998561    1.090893
  FORCE total and by dimension   10.233482    2.784818
  Stress total and by dimension   86.020443   57.754759
     LOOP+:  cpu time  863.4397: real time  879.6815
    4ORBIT:  cpu time    0.0000: real time    0.0000
 


 total charge     
 
# of ion       s       p       d       tot
------------------------------------------
    1        0.052   5.996   0.000   6.048
    2        0.047   5.989   0.000   6.036
    3        0.050   5.994   0.000   6.044
    4        0.051   5.993   0.000   6.044
    5        0.046   5.987   0.000   6.032
    6        0.046   5.988   0.000   6.033
    7        0.049   5.993   0.000   6.041
    8        0.053   5.996   0.000   6.049
    9        0.054   5.998   0.000   6.052
   10        0.052   5.994   0.000   6.046
   11        0.050   5.991   0.000   6.042
   12        0.050   5.993   0.000   6.043
   13        0.049   5.991   0.000   6.041
   14        0.051   5.993   0.000   6.043
   15        0.048   5.992   0.000   6.040
   16        0.053   5.995   0.000   6.047
   17        0.151   6.132   0.087   6.371
   18        0.144   6.119   0.077   6.341
   19        0.151   6.133   0.088   6.372
   20        0.149   6.128   0.084   6.360
   21        0.150   6.127   0.083   6.359
   22        0.146   6.121   0.078   6.344
   23        0.149   6.129   0.084   6.362
   24        0.151   6.129   0.084   6.364
   25        0.369   6.441   4.820  11.630
   26        0.384   6.473   4.851  11.708
   27        0.374   6.453   4.835  11.662
   28        0.384   6.470   4.857  11.711
   29        0.387   6.477   4.857  11.721
   30        0.373   6.450   4.819  11.642
   31        0.376   6.456   4.835  11.666
   32        0.362   6.421   4.806  11.589
   33        0.358   6.414   4.797  11.569
   34        0.370   6.442   4.809  11.621
   35        0.376   6.455   4.828  11.659
   36        0.383   6.471   4.849  11.703
   37        0.379   6.461   4.836  11.676
   38        0.386   6.478   4.859  11.724
   39        0.393   6.494   4.873  11.760
   40        0.389   6.486   4.855  11.730
   41        1.605   3.503   0.000   5.108
   42        1.600   3.536   0.000   5.136
   43        1.603   3.505   0.000   5.108
   44        1.596   3.487   0.000   5.083
   45        1.600   3.482   0.000   5.082
   46        1.597   3.529   0.000   5.127
   47        1.599   3.463   0.000   5.062
   48        1.596   3.488   0.000   5.084
   49        1.598   3.524   0.000   5.122
   50        1.604   3.470   0.000   5.073
   51        1.602   3.503   0.000   5.105
   52        1.598   3.469   0.000   5.066
   53        1.595   3.504   0.000   5.099
   54        1.597   3.498   0.000   5.095
   55        1.599   3.484   0.000   5.082
   56        1.603   3.531   0.000   5.133
   57        1.606   3.520   0.000   5.125
   58        1.597   3.491   0.000   5.088
   59        1.598   3.509   0.000   5.107
   60        1.602   3.513   0.000   5.115
   61        1.600   3.529   0.000   5.129
   62        1.596   3.502   0.000   5.098
   63        1.598   3.534   0.000   5.132
   64        1.598   3.504   0.000   5.102
   65        1.597   3.509   0.000   5.105
   66        1.598   3.486   0.000   5.084
   67        1.599   3.508   0.000   5.107
   68        1.597   3.514   0.000   5.111
   69        1.600   3.531   0.000   5.131
   70        1.598   3.523   0.000   5.121
   71        1.596   3.499   0.000   5.095
   72        1.596   3.489   0.000   5.085
   73        1.600   3.531   0.000   5.131
   74        1.596   3.521   0.000   5.118
   75        1.602   3.524   0.000   5.126
   76        1.600   3.523   0.000   5.123
   77        1.598   3.528   0.000   5.125
   78        1.600   3.513   0.000   5.113
   79        1.598   3.480   0.000   5.079
   80        1.598   3.490   0.000   5.088
   81        1.600   3.511   0.000   5.110
   82        1.598   3.494   0.000   5.092
   83        1.599   3.506   0.000   5.104
   84        1.600   3.494   0.000   5.095
   85        1.602   3.510   0.000   5.111
   86        1.602   3.506   0.000   5.108
   87        1.599   3.531   0.000   5.130
   88        1.598   3.488   0.000   5.086
--------------------------------------------------
tot         84.789 416.525  78.050 579.365
 


 magnetization (x)
 
# of ion       s       p       d       tot
------------------------------------------
    1        0.001   0.001   0.000   0.001
    2        0.001   0.001   0.000   0.001
    3        0.001   0.000   0.000   0.001
    4        0.001   0.000   0.000   0.002
    5        0.002   0.001   0.000   0.002
    6        0.002   0.000   0.000   0.002
    7        0.001   0.000   0.000   0.001
    8        0.001   0.000   0.000   0.001
    9        0.002   0.000   0.000   0.002
   10        0.002   0.000   0.000   0.003
   11        0.002   0.000   0.000   0.002
   12        0.002   0.000   0.000   0.002
   13        0.002  -0.000   0.000   0.002
   14        0.002   0.000   0.000   0.002
   15        0.001   0.001   0.000   0.002
   16        0.002   0.001   0.000   0.003
   17        0.008   0.003   0.001   0.012
   18        0.007   0.003   0.001   0.011
   19        0.008   0.003   0.001   0.012
   20        0.008   0.002   0.001   0.011
   21        0.007   0.002   0.001   0.011
   22        0.007   0.002   0.001   0.010
   23        0.007   0.002   0.001   0.010
   24        0.007   0.002   0.001   0.010
   25        0.015   0.030   2.769   2.814
   26        0.016   0.031   2.726   2.774
   27        0.016   0.031   2.762   2.808
   28        0.015   0.030   2.730   2.775
   29        0.015   0.030   2.718   2.764
   30        0.015   0.029   2.764   2.809
   31        0.016   0.032   2.755   2.803
   32        0.016   0.028   2.777   2.821
   33        0.016   0.028   2.802   2.846
   34        0.015   0.029   2.774   2.817
   35        0.014   0.029   2.757   2.799
   36        0.016   0.032   2.730   2.777
   37        0.016   0.031   2.751   2.797
   38        0.015   0.030   2.728   2.773
   39        0.016   0.032   2.714   2.762
   40        0.014   0.030   2.732   2.776
   41        0.002   0.046   0.000   0.048
   42        0.002   0.023   0.000   0.025
   43        0.002   0.042   0.000   0.045
   44        0.002   0.019   0.000   0.021
   45        0.002   0.023   0.000   0.025
   46        0.002   0.044   0.000   0.046
   47        0.002   0.030   0.000   0.032
   48        0.002   0.035   0.000   0.037
   49        0.002   0.046   0.000   0.048
   50        0.002   0.034   0.000   0.037
   51        0.002   0.047   0.000   0.050
   52        0.002   0.015   0.000   0.017
   53        0.002   0.020   0.000   0.022
   54        0.002   0.026   0.000   0.027
   55        0.002   0.023   0.000   0.025
   56        0.002   0.054   0.000   0.056
   57        0.003   0.065   0.000   0.068
   58        0.002   0.034   0.000   0.036
   59        0.002   0.034   0.000   0.035
   60        0.002   0.039   0.000   0.041
   61        0.002   0.034   0.000   0.036
   62        0.002   0.018   0.000   0.020
   63        0.002   0.025   0.000   0.027
   64        0.002   0.036   0.000   0.037
   65        0.002   0.037   0.000   0.038
   66        0.002   0.022   0.000   0.024
   67        0.002   0.026   0.000   0.028
   68        0.002   0.019   0.000   0.021
   69        0.002   0.035   0.000   0.037
   70        0.002   0.047   0.000   0.049
   71        0.001  -0.005   0.000  -0.004
   72        0.003   0.058   0.000   0.061
   73        0.002   0.040   0.000   0.041
   74        0.002   0.034   0.000   0.036
   75        0.002   0.063   0.000   0.065
   76        0.002   0.041   0.000   0.043
   77        0.002   0.033   0.000   0.035
   78        0.002   0.030   0.000   0.032
   79        0.002   0.022   0.000   0.024
   80        0.002   0.016   0.000   0.018
   81        0.002   0.020   0.000   0.022
   82        0.002   0.016   0.000   0.017
   83        0.002   0.039   0.000   0.042
   84        0.002   0.038   0.000   0.039
   85        0.002   0.047   0.000   0.049
   86        0.002   0.051   0.000   0.054
   87        0.002   0.052   0.000   0.054
   88        0.002   0.038   0.000   0.040
--------------------------------------------------
tot          0.422   2.137  43.998  46.558
 

 total amount of memory used by VASP MPI-rank0    94428. kBytes
=======================================================================

   base      :      30000. kBytes
   nonlr-proj:      13669. kBytes
   fftplans  :       1275. kBytes
   grid      :      22786. kBytes
   one-center:       2737. kBytes
   wavefun   :      23961. kBytes
 
  
  
 General timing and accounting informations for this job:
 ========================================================
  
                  Total CPU time used (sec):      884.219
                            User time (sec):      875.967
                          System time (sec):        8.251
                         Elapsed time (sec):      902.984
  
                   Maximum memory used (kb):      195176.
                   Average memory used (kb):           0.
  
                          Minor page faults:       332707
                          Major page faults:            0
                 Voluntary context switches:       277580
