 vasp.5.4.4.18Apr17-6-g9f103f2a35 (build Dec 02 2020 12:53:39) complex          
  
 executed on             LinuxIFC date 2021.08.05  03:08:10
 running on   96 total cores
 distrk:  each k-point on   96 cores,    1 groups
 distr:  one band on NCORES_PER_BAND=   1 cores,   96 groups


--------------------------------------------------------------------------------------------------------


 INCAR:
 POTCAR:    PAW_PBE Na_pv 19Sep2006               
 POTCAR:    PAW_PBE Mg_pv 13Apr2007               
 POTCAR:    PAW_PBE Mn_pv 02Aug2007               
 POTCAR:    PAW_PBE O 08Apr2002                   

 ----------------------------------------------------------------------------- 
|                                                                             |
|           W    W    AA    RRRRR   N    N  II  N    N   GGGG   !!!           |
|           W    W   A  A   R    R  NN   N  II  NN   N  G    G  !!!           |
|           W    W  A    A  R    R  N N  N  II  N N  N  G       !!!           |
|           W WW W  AAAAAA  RRRRR   N  N N  II  N  N N  G  GGG   !            |
|           WW  WW  A    A  R   R   N   NN  II  N   NN  G    G                |
|           W    W  A    A  R    R  N    N  II  N    N   GGGG   !!!           |
|                                                                             |
|      For optimal performance we recommend to set                            |
|        NCORE= 4 - approx SQRT( number of cores)                             |
|      NCORE specifies how many cores store one orbital (NPAR=cpu/NCORE).     |
|      This setting can  greatly improve the performance of VASP for DFT.     |
|      The default,   NCORE=1            might be grossly inefficient         |
|      on modern multi-core architectures or massively parallel machines.     |
|      Do your own testing !!!!                                               |
|      Unfortunately you need to use the default for GW and RPA calculations. |
|      (for HF NCORE is supported but not extensively tested yet)             |
|                                                                             |
 ----------------------------------------------------------------------------- 

 POTCAR:    PAW_PBE Na_pv 19Sep2006               
   VRHFIN =Na: p6s1                                                             
   LEXCH  = PE                                                                  
   EATOM  =   766.0439 eV,   56.3026 Ry                                         
                                                                                
   TITEL  = PAW_PBE Na_pv 19Sep2006                                             
   LULTRA =        F    use ultrasoft PP ?                                      
   IUNSCR =        1    unscreen: 0-lin 1-nonlin 2-no                           
   RPACOR =    1.800    partial core radius                                     
   POMASS =   22.990; ZVAL   =    7.000    mass and valenz                      
   RCORE  =    2.200    outmost cutoff radius                                   
   RWIGS  =    2.200; RWIGS  =    1.164    wigner-seitz radius (au A)           
   ENMAX  =  259.561; ENMIN  =  194.671 eV                                      
   ICORE  =        2    local potential                                         
   LCOR   =        T    correct aug charges                                     
   LPAW   =        T    paw PP                                                  
   EAUG   =  368.056                                                            
   DEXC   =    0.000                                                            
   RMAX   =    2.245    core radius for proj-oper                               
   RAUG   =    1.300    factor for augmentation sphere                          
   RDEP   =    2.259    radius for radial grids                                 
   RDEPT  =    1.738    core radius for aug-charge                              
                                                                                
   Atomic configuration                                                         
    5 entries                                                                   
     n  l   j            E        occ.                                          
     1  0  0.50     -1033.6933   2.0000                                         
     2  0  0.50       -56.7526   2.0000                                         
     2  1  1.50       -28.6721   6.0000                                         
     3  0  0.50        -2.7440   1.0000                                         
     3  2  1.50        -1.3606   0.0000                                         
   Description                                                                  
     l       E           TYP  RCUT    TYP  RCUT                                 
     1    -28.6720912     23  2.000                                             
     1      6.8029130     23  2.000                                             
     0     -2.7439560     23  2.200                                             
     0     34.0145650     23  2.200                                             
     2     -1.3605826     23  2.200                                             
  local pseudopotential read in
  partial core-charges read in
  partial kinetic energy density read in
  atomic valenz-charges read in
  non local Contribution for L=           1  read in
    real space projection operators read in
  non local Contribution for L=           1  read in
    real space projection operators read in
  non local Contribution for L=           0  read in
    real space projection operators read in
  non local Contribution for L=           0  read in
    real space projection operators read in
    PAW grid and wavefunctions read in
 
   number of l-projection  operators is LMAX  =           4
   number of lm-projection operators is LMMAX =           8
 
 POTCAR:    PAW_PBE Mg_pv 13Apr2007               
   VRHFIN =Mg: p6s2                                                             
   LEXCH  = PE                                                                  
   EATOM  =  1056.7344 eV,   77.6678 Ry                                         
                                                                                
   TITEL  = PAW_PBE Mg_pv 13Apr2007                                             
   LULTRA =        F    use ultrasoft PP ?                                      
   IUNSCR =        1    unscreen: 0-lin 1-nonlin 2-no                           
   RPACOR =    1.500    partial core radius                                     
   POMASS =   24.305; ZVAL   =    8.000    mass and valenz                      
   RCORE  =    2.000    outmost cutoff radius                                   
   RWIGS  =    2.000; RWIGS  =    1.058    wigner-seitz radius (au A)           
   ENMAX  =  403.929; ENMIN  =  302.947 eV                                      
   RCLOC  =    1.506    cutoff for local pot                                    
   LCOR   =        T    correct aug charges                                     
   LPAW   =        T    paw PP                                                  
   EAUG   =  758.780                                                            
   DEXC   =    0.000                                                            
   RMAX   =    2.045    core radius for proj-oper                               
   RAUG   =    1.300    factor for augmentation sphere                          
   RDEP   =    2.025    radius for radial grids                                 
   RDEPT  =    1.557    core radius for aug-charge                              
                                                                                
   Atomic configuration                                                         
    5 entries                                                                   
     n  l   j            E        occ.                                          
     1  0  0.50     -1259.6230   2.0000                                         
     2  0  0.50       -79.8442   2.0000                                         
     2  1  1.50       -46.6121   6.0000                                         
     3  0  0.50        -4.7055   2.0000                                         
     3  2  1.50        -1.3606   0.0000                                         
   Description                                                                  
     l       E           TYP  RCUT    TYP  RCUT                                 
     1    -46.6121073     23  1.600                                             
     1      2.7211652     23  1.600                                             
     0     -4.7054661     23  2.000                                             
     0     61.2262170     23  2.000                                             
     2     -1.3605826     23  2.000                                             
  local pseudopotential read in
  partial core-charges read in
  partial kinetic energy density read in
  atomic valenz-charges read in
  non local Contribution for L=           1  read in
    real space projection operators read in
  non local Contribution for L=           1  read in
    real space projection operators read in
  non local Contribution for L=           0  read in
    real space projection operators read in
  non local Contribution for L=           0  read in
    real space projection operators read in
  non local Contribution for L=           2  read in
    real space projection operators read in
    PAW grid and wavefunctions read in
 
   number of l-projection  operators is LMAX  =           5
   number of lm-projection operators is LMMAX =          13
 
 POTCAR:    PAW_PBE Mn_pv 02Aug2007               
   VRHFIN =Mn: 3p4s3d                                                           
   LEXCH  = PE                                                                  
   EATOM  =  2025.2664 eV,  148.8529 Ry                                         
                                                                                
   TITEL  = PAW_PBE Mn_pv 02Aug2007                                             
   LULTRA =        F    use ultrasoft PP ?                                      
   IUNSCR =        1    unscreen: 0-lin 1-nonlin 2-no                           
   RPACOR =    2.080    partial core radius                                     
   POMASS =   54.938; ZVAL   =   13.000    mass and valenz                      
   RCORE  =    2.300    outmost cutoff radius                                   
   RWIGS  =    2.500; RWIGS  =    1.323    wigner-seitz radius (au A)           
   ENMAX  =  269.864; ENMIN  =  202.398 eV                                      
   ICORE  =        3    local potential                                         
   LCOR   =        T    correct aug charges                                     
   LPAW   =        T    paw PP                                                  
   EAUG   =  569.085                                                            
   DEXC   =    0.000                                                            
   RMAX   =    2.343    core radius for proj-oper                               
   RAUG   =    1.300    factor for augmentation sphere                          
   RDEP   =    2.338    radius for radial grids                                 
   RDEPT  =    1.798    core radius for aug-charge                              
                                                                                
   Atomic configuration                                                         
    8 entries                                                                   
     n  l   j            E        occ.                                          
     1  0  0.50     -6424.8287   2.0000                                         
     2  0  0.50      -739.1154   2.0000                                         
     2  1  1.50      -625.3949   6.0000                                         
     3  0  0.50       -81.6100   2.0000                                         
     3  1  1.50       -50.4667   6.0000                                         
     3  2  2.50        -3.3745   6.0000                                         
     4  0  0.50        -4.1331   1.0000                                         
     4  3  2.50        -1.3606   0.0000                                         
   Description                                                                  
     l       E           TYP  RCUT    TYP  RCUT                                 
     1    -50.4666628     23  2.000                                             
     1     -1.3605826     23  2.000                                             
     2     -3.3744729     23  2.300                                             
     2     -4.7350555     23  2.300                                             
     0     -4.1331431     23  2.300                                             
     0      7.6656591     23  2.300                                             
     3      9.5240782     23  2.300                                             
  local pseudopotential read in
  partial core-charges read in
  partial kinetic energy density read in
  atomic valenz-charges read in
  non local Contribution for L=           1  read in
    real space projection operators read in
  non local Contribution for L=           1  read in
    real space projection operators read in
  non local Contribution for L=           2  read in
    real space projection operators read in
  non local Contribution for L=           2  read in
    real space projection operators read in
  non local Contribution for L=           0  read in
    real space projection operators read in
  non local Contribution for L=           0  read in
    real space projection operators read in
    PAW grid and wavefunctions read in
 
   number of l-projection  operators is LMAX  =           6
   number of lm-projection operators is LMMAX =          18
 
 POTCAR:    PAW_PBE O 08Apr2002                   
   VRHFIN =O: s2p4                                                              
   LEXCH  = PE                                                                  
   EATOM  =   432.3788 eV,   31.7789 Ry                                         
                                                                                
   TITEL  = PAW_PBE O 08Apr2002                                                 
   LULTRA =        F    use ultrasoft PP ?                                      
   IUNSCR =        1    unscreen: 0-lin 1-nonlin 2-no                           
   RPACOR =    1.200    partial core radius                                     
   POMASS =   16.000; ZVAL   =    6.000    mass and valenz                      
   RCORE  =    1.520    outmost cutoff radius                                   
   RWIGS  =    1.550; RWIGS  =    0.820    wigner-seitz radius (au A)           
   ENMAX  =  400.000; ENMIN  =  300.000 eV                                      
   ICORE  =        2    local potential                                         
   LCOR   =        T    correct aug charges                                     
   LPAW   =        T    paw PP                                                  
   EAUG   =  605.392                                                            
   DEXC   =    0.000                                                            
   RMAX   =    1.553    core radius for proj-oper                               
   RAUG   =    1.300    factor for augmentation sphere                          
   RDEP   =    1.550    radius for radial grids                                 
   RDEPT  =    1.329    core radius for aug-charge                              
                                                                                
   Atomic configuration                                                         
    4 entries                                                                   
     n  l   j            E        occ.                                          
     1  0  0.50      -514.6923   2.0000                                         
     2  0  0.50       -23.9615   2.0000                                         
     2  1  0.50        -9.0305   4.0000                                         
     3  2  1.50        -9.5241   0.0000                                         
   Description                                                                  
     l       E           TYP  RCUT    TYP  RCUT                                 
     0    -23.9615318     23  1.200                                             
     0     -9.5240782     23  1.200                                             
     1     -9.0304911     23  1.520                                             
     1      8.1634956     23  1.520                                             
     2     -9.5240782      7  1.500                                             
  local pseudopotential read in
  partial core-charges read in
  partial kinetic energy density read in
  kinetic energy density of atom read in
  atomic valenz-charges read in
  non local Contribution for L=           0  read in
    real space projection operators read in
  non local Contribution for L=           0  read in
    real space projection operators read in
  non local Contribution for L=           1  read in
    real space projection operators read in
  non local Contribution for L=           1  read in
    real space projection operators read in
    PAW grid and wavefunctions read in
 
   number of l-projection  operators is LMAX  =           4
   number of lm-projection operators is LMMAX =           8
 
 Optimization of the real space projectors (new method)

 maximal supplied QI-value         = 17.01
 optimisation between [QCUT,QGAM] = [ 10.20, 20.41] = [ 29.16,116.64] Ry 
 Optimized for a Real-space Cutoff    1.30 Angstroem

   l    n(q)    QCUT    max X(q) W(low)/X(q) W(high)/X(q)  e(spline) 
   1      7    10.205     4.940    0.23E-03    0.84E-03    0.11E-06
   1      7    10.205     6.253    0.40E-03    0.13E-02    0.18E-06
   0      8    10.205    37.438    0.23E-03    0.37E-03    0.42E-07
   0      8    10.205     9.606    0.16E-03    0.26E-03    0.31E-07
 Optimization of the real space projectors (new method)

 maximal supplied QI-value         = 18.90
 optimisation between [QCUT,QGAM] = [ 10.20, 20.41] = [ 29.16,116.64] Ry 
 Optimized for a Real-space Cutoff    1.26 Angstroem

   l    n(q)    QCUT    max X(q) W(low)/X(q) W(high)/X(q)  e(spline) 
   1      7    10.205     2.974    0.63E-04    0.14E-03    0.13E-06
   1      7    10.205     4.279    0.11E-03    0.45E-03    0.24E-06
   0      8    10.205    16.381    0.44E-03    0.15E-03    0.55E-07
   0      8    10.205     5.611    0.31E-03    0.11E-03    0.40E-07
   2      7    10.205     4.652    0.50E-03    0.47E-03    0.57E-07
 Optimization of the real space projectors (new method)

 maximal supplied QI-value         = 16.25
 optimisation between [QCUT,QGAM] = [ 10.24, 20.48] = [ 29.35,117.42] Ry 
 Optimized for a Real-space Cutoff    1.34 Angstroem

   l    n(q)    QCUT    max X(q) W(low)/X(q) W(high)/X(q)  e(spline) 
   1      8    10.239     3.658    0.23E-03    0.30E-03    0.98E-07
   1      8    10.239     5.612    0.32E-03    0.65E-03    0.21E-06
   2      7    10.239    55.373    0.42E-03    0.45E-03    0.65E-07
   2      7    10.239    50.863    0.43E-03    0.48E-03    0.67E-07
   0      8    10.239    79.536    0.11E-03    0.21E-03    0.56E-07
   0      8    10.239    38.668    0.96E-04    0.19E-03    0.52E-07
 Optimization of the real space projectors (new method)

 maximal supplied QI-value         = 24.76
 optimisation between [QCUT,QGAM] = [ 10.15, 20.30] = [ 28.85,115.39] Ry 
 Optimized for a Real-space Cutoff    1.38 Angstroem

   l    n(q)    QCUT    max X(q) W(low)/X(q) W(high)/X(q)  e(spline) 
   0      8    10.150    20.381    0.22E-03    0.32E-03    0.29E-06
   0      8    10.150    15.268    0.23E-03    0.35E-03    0.30E-06
   1      8    10.150     5.964    0.46E-03    0.53E-03    0.21E-06
   1      8    10.150     5.382    0.38E-03    0.45E-03    0.19E-06
  PAW_PBE Na_pv 19Sep2006               :
 energy of atom  1       EATOM= -766.0439
 kinetic energy error for atom=    0.0103 (will be added to EATOM!!)
  PAW_PBE Mg_pv 13Apr2007               :
 energy of atom  2       EATOM=-1056.7344
 kinetic energy error for atom=    0.0820 (will be added to EATOM!!)
  PAW_PBE Mn_pv 02Aug2007               :
 energy of atom  3       EATOM=-2025.2664
 kinetic energy error for atom=    0.0284 (will be added to EATOM!!)
  PAW_PBE O 08Apr2002                   :
 energy of atom  4       EATOM= -432.3788
 kinetic energy error for atom=    0.1156 (will be added to EATOM!!)
 
 
 POSCAR: Na Mg Mn  O                             
  positions in cartesian coordinates
  No initial velocities read in

 METAGGA = SCAN     LMAXTAU =  6    LMIXTAU =  F

 exchange correlation table for  LEXCH =        8
   RHO(1)=    0.500       N(1)  =     2000
   RHO(2)=  100.500       N(2)  =     4000

 VTST: version 3.2, (02/03/18)

 CHAIN: initializing optimizer
 
 OPT: Using VASP Dynamics algorithm
 CHAIN: Read ICHAIN            0
 
 POSCAR: Na Mg Mn  O                             
  positions in cartesian coordinates
  No initial velocities read in
 


--------------------------------------------------------------------------------------------------------


 ion  position               nearest neighbor table
   1  0.903  0.145  0.253-  63 2.29  67 2.36  27 2.79  25 2.92
   2  0.250  0.143  0.759-  47 2.27  84 2.33
   3  0.920  0.972  0.745-  44 2.26  73 2.33
   4  0.965  0.665  0.748-  80 2.18  83 2.23  37 2.93  39 2.96
   5  0.247  0.447  0.260-  50 2.30  52 2.34
   6  0.583  0.643  0.251-  52 2.33
   7  0.442  0.663  0.748-  82 2.26  68 2.26  71 2.31  35 2.75  33 2.83
   8  0.109  0.352  0.744-  45 2.18  58 2.38
   9  0.393  0.152  0.248-  51 2.24  42 2.26  79 2.35  29 2.87  31 2.91
  10  0.471  0.874  0.247-  88 2.28  74 2.32  65 2.35  79 2.36
  11  0.092  0.645  0.252-  55 2.31  64 2.32
  12  0.584  0.442  0.757-  49 2.17  46 2.21  57 2.35  28 2.90
  13  0.414  0.971  0.763-  84 2.21  85 2.24
  14  0.769  0.186  0.752-  61 2.27  59 2.30  58 2.37
  15  0.918  0.837  0.247-  66 2.13  76 2.32  67 2.37
  16  0.751  0.417  0.252-  53 2.23  64 2.26  62 2.29  55 2.34
  17  0.605  0.512  0.003-  60 1.97  71 1.98  43 2.07  53 2.09  49 2.09  66 2.15  33 2.77  34 2.84
                            37 2.85
  18  0.249  0.308  0.501-  45 1.97  50 1.97  51 2.00  44 2.08  52 2.10  46 2.23  27 2.83  35 2.85

  19  0.103  0.508  0.995-  83 2.03  78 2.04  61 2.04  48 2.05  55 2.11  41 2.19  38 2.81
  20  0.749  0.309  0.505-  62 2.04  58 2.06  57 2.07  63 2.10  56 2.10  64 2.13  31 2.79
  21  0.100  0.995  0.014-  77 2.00  42 2.01  73 2.03  67 2.05  84 2.14  47 2.21  37 2.76
  22  0.752  0.815  0.510-  70 1.99  69 2.02  68 2.12  75 2.15  74 2.15  76 2.18  40 2.80
  23  0.608  0.004  0.993-  72 1.96  54 2.10  85 2.11  65 2.13  59 2.14  79 2.17  34 2.77  25 2.86

  24  0.261  0.806  0.509-  82 1.94  81 1.99  88 2.09  87 2.11  80 2.19  86 2.25
  25  0.937  0.168  0.994-  41 1.86  54 1.92  72 1.93  67 1.95  47 1.96  61 1.98  26 2.84  34 2.85
                            23 2.86   1 2.92  30 3.00
  26  0.265  0.330  0.994-  48 1.84  42 1.87  49 1.89  47 1.90  43 1.91  41 1.94  25 2.84  29 2.85
                            33 2.89
  27  0.923  0.147  0.501-  58 1.83  50 1.88  69 1.91  76 1.91  63 1.96  44 2.02   1 2.79  32 2.80
                            18 2.83  40 2.87  36 2.98
  28  0.580  0.469  0.500-  46 1.87  57 1.88  62 1.88  52 1.91  68 1.95  75 2.02  35 2.83  31 2.84
                            12 2.90  39 2.90
  29  0.435  0.173  0.995-  42 1.89  53 1.93  79 1.94  49 1.94  84 1.96  59 1.99  26 2.85  30 2.86
                             9 2.87  38 2.96
  30  0.765  0.341  0.992-  59 1.84  60 1.88  54 1.92  53 1.95  61 2.03  55 2.06  29 2.86  37 2.92
                            25 3.00
  31  0.428  0.142  0.505-  88 1.91  51 1.91  56 1.94  46 1.95  81 1.95  62 1.96  20 2.79  28 2.84
                            40 2.85  36 2.90   9 2.91
  32  0.081  0.470  0.495-  58 1.87  80 1.88  50 1.91  64 1.92  87 1.93  45 1.95  27 2.80  39 2.93
                            35 2.96
  33  0.437  0.663  0.001-  65 1.89  71 1.89  48 1.89  43 1.96  85 1.96  78 1.97  17 2.77   7 2.83
                            34 2.83  26 2.89  38 2.93
  34  0.763  0.840  0.997-  67 1.91  65 1.91  72 1.93  66 1.95  71 1.97  73 1.98  23 2.77  33 2.83
                            17 2.84  25 2.85  37 2.90
  35  0.422  0.636  0.504-  74 1.88  68 1.89  52 1.90  45 1.92  82 1.98  87 1.99   7 2.75  28 2.83
                            18 2.85  40 2.96  32 2.96
  36  0.093  0.973  0.499-  70 1.88  86 1.92  81 1.93  44 1.95  51 1.95  76 2.01  39 2.90  31 2.90
                            27 2.98
  37  0.934  0.677  0.006-  77 1.87  66 1.88  83 1.88  55 1.89  60 1.92  73 1.94  21 2.76  17 2.85
                            38 2.90  34 2.90  30 2.92   4 2.93
  38  0.268  0.832  0.003-  78 1.89  83 1.91  84 1.92  85 1.93  79 2.01  77 2.03  19 2.81  37 2.90
                            33 2.93  29 2.96
  39  0.914  0.640  0.487-  75 1.89  86 1.94  64 1.95  70 1.97  57 1.99  80 2.02  36 2.90  28 2.90
                            32 2.93   4 2.96
  40  0.592  0.977  0.505-  56 1.86  63 1.88  69 1.89  88 1.97  74 1.97  82 1.98  22 2.80  31 2.85
                            27 2.87  35 2.96
  41  0.096  0.313  0.090-  25 1.86  26 1.94  19 2.19
  42  0.281  0.183  0.085-  26 1.87  29 1.89  21 2.01   9 2.26
  43  0.415  0.488  0.094-  26 1.91  33 1.96  17 2.07
  44  0.079  0.125  0.599-  36 1.95  27 2.02  18 2.08   3 2.26
  45  0.248  0.478  0.589-  35 1.92  32 1.95  18 1.97   8 2.18
  46  0.444  0.312  0.601-  28 1.87  31 1.95  12 2.21  18 2.23
  47  0.105  0.176  0.899-  26 1.90  25 1.96  21 2.21   2 2.27
  48  0.281  0.497  0.912-  26 1.84  33 1.89  19 2.05
  49  0.427  0.335  0.906-  26 1.89  29 1.94  17 2.09  12 2.17
  50  0.079  0.304  0.410-  27 1.88  32 1.91  18 1.97   5 2.30
  51  0.265  0.142  0.415-  31 1.91  36 1.95  18 2.00   9 2.24
  52  0.430  0.486  0.406-  35 1.90  28 1.91  18 2.10   6 2.33   5 2.34
  53  0.599  0.326  0.092-  29 1.93  30 1.95  17 2.09  16 2.23
  54  0.787  0.192  0.083-  30 1.92  25 1.92  23 2.10
  55  0.929  0.515  0.096-  37 1.89  30 2.06  19 2.11  11 2.31  16 2.34
  56  0.577  0.121  0.601-  40 1.86  31 1.94  20 2.10
  57  0.746  0.490  0.592-  28 1.88  39 1.99  20 2.07  12 2.35
  58  0.933  0.307  0.586-  27 1.83  32 1.87  20 2.06  14 2.37   8 2.38
  59  0.612  0.192  0.899-  30 1.84  29 1.99  23 2.14  14 2.30
  60  0.776  0.513  0.914-  30 1.88  37 1.92  17 1.97
  61  0.934  0.333  0.898-  25 1.98  30 2.03  19 2.04  14 2.27
  62  0.580  0.312  0.407-  28 1.88  31 1.96  20 2.04  16 2.29
  63  0.748  0.129  0.409-  40 1.88  27 1.96  20 2.10   1 2.29
  64  0.928  0.480  0.398-  32 1.92  39 1.95  20 2.13  16 2.26  11 2.32
  65  0.596  0.818  0.094-  33 1.89  34 1.91  23 2.13  10 2.35
  66  0.790  0.698  0.100-  37 1.88  34 1.95  15 2.13  17 2.15
  67  0.918  1.000  0.093-  34 1.91  25 1.95  21 2.05   1 2.36  15 2.37
  68  0.570  0.624  0.599-  35 1.89  28 1.95  22 2.12   7 2.26
  69  0.759  0.996  0.596-  40 1.89  27 1.91  22 2.02
  70  0.932  0.812  0.584-  36 1.88  39 1.97  22 1.99
  71  0.596  0.672  0.905-  33 1.89  34 1.97  17 1.98   7 2.31
  72  0.776  0.005  0.901-  34 1.93  25 1.93  23 1.96
  73  0.932  0.835  0.908-  37 1.94  34 1.98  21 2.03   3 2.33
  74  0.563  0.800  0.409-  35 1.88  40 1.97  22 2.15  10 2.32
  75  0.750  0.637  0.402-  39 1.89  28 2.02  22 2.15
  76  0.935  0.996  0.405-  27 1.91  36 2.01  22 2.18  15 2.32
  77  0.094  0.819  0.104-  37 1.87  21 2.00  38 2.03
  78  0.277  0.677  0.093-  38 1.89  33 1.97  19 2.04
  79  0.429  0.012  0.095-  29 1.94  38 2.01  23 2.17   9 2.35  10 2.36
  80  0.061  0.612  0.592-  32 1.88  39 2.02   4 2.18  24 2.19
  81  0.257  0.979  0.593-  36 1.93  31 1.95  24 1.99
  82  0.428  0.806  0.598-  24 1.94  40 1.98  35 1.98   7 2.26
  83  0.095  0.684  0.914-  37 1.88  38 1.91  19 2.03   4 2.23
  84  0.277  0.995  0.907-  38 1.92  29 1.96  21 2.14  13 2.21   2 2.33
  85  0.420  0.818  0.906-  38 1.93  33 1.96  23 2.11  13 2.24
  86  0.076  0.810  0.399-  36 1.92  39 1.94  24 2.25
  87  0.252  0.626  0.405-  32 1.93  35 1.99  24 2.11
  88  0.432  0.987  0.410-  31 1.91  40 1.97  24 2.09  10 2.28
 
  LATTYP: Found a hexagonal cell.
 ALAT       =    10.0190000534
 C/A-ratio  =     1.1196726572
  
  Lattice vectors:
  
 A1 = (  10.0190000534,   0.0000000000,   0.0000000000)
 A2 = (  -5.0095000267,   8.6767085668,   0.0000000000)
 A3 = (   0.0000000000,   0.0000000000,  11.2180004120)


Analysis of symmetry for initial positions (statically):
=====================================================================
 Subroutine PRICEL returns:
 Original cell was already a primitive cell.
 

 Routine SETGRP: Setting up the symmetry group for a 
 hexagonal supercell.


 Subroutine GETGRP returns: Found  1 space group operations
 (whereof  1 operations were pure point group operations)
 out of a pool of 24 trial point group operations.


The static configuration has the point symmetry C_1 .


Analysis of symmetry for dynamics (positions and initial velocities):
=====================================================================
 Subroutine PRICEL returns:
 Original cell was already a primitive cell.
 

 Routine SETGRP: Setting up the symmetry group for a 
 hexagonal supercell.


 Subroutine GETGRP returns: Found  1 space group operations
 (whereof  1 operations were pure point group operations)
 out of a pool of 24 trial point group operations.


The dynamic configuration has the point symmetry C_1 .


Analysis of structural, dynamic, and magnetic symmetry:
=====================================================================
 Subroutine PRICEL returns:
 Original cell was already a primitive cell.
 

 Routine SETGRP: Setting up the symmetry group for a 
 hexagonal supercell.


 Subroutine GETGRP returns: Found  1 space group operations
 (whereof  1 operations were pure point group operations)
 out of a pool of 24 trial point group operations.


The magnetic configuration has the point symmetry C_1 .


 Subroutine INISYM returns: Found  1 space group operations
 (whereof  1 operations are pure point group operations),
 and found     1 'primitive' translations

 
 

Automatic generation of k-mesh.
 generate k-points for:    2    2    2
Space group operators:
 irot       det(A)        alpha          n_x          n_y          n_z        tau_x        tau_y        tau_z
    1     1.000000     0.000000     1.000000     0.000000     0.000000     0.000000     0.000000     0.000000
 
 Subroutine IBZKPT returns following result:
 ===========================================
 
 Found      8 irreducible k-points:
 
 Following reciprocal coordinates:
            Coordinates               Weight
  0.000000  0.000000  0.000000      1.000000
  0.500000 -0.000000 -0.000000      1.000000
  0.000000  0.500000  0.000000      1.000000
  0.500000  0.500000 -0.000000      1.000000
  0.000000  0.000000  0.500000      1.000000
  0.500000 -0.000000  0.500000      1.000000
  0.000000  0.500000  0.500000      1.000000
  0.500000  0.500000  0.500000      1.000000
 
 Following cartesian coordinates:
            Coordinates               Weight
  0.000000  0.000000  0.000000      1.000000
  0.049905  0.028813 -0.000000      1.000000
  0.000000  0.057626  0.000000      1.000000
  0.049905  0.086438 -0.000000      1.000000
  0.000000  0.000000  0.044571      1.000000
  0.049905  0.028813  0.044571      1.000000
  0.000000  0.057626  0.044571      1.000000
  0.049905  0.086438  0.044571      1.000000
 


--------------------------------------------------------------------------------------------------------




 Dimension of arrays:
   k-points           NKPTS =      8   k-points in BZ     NKDIM =      8   number of bands    NBANDS=    480
   number of dos      NEDOS =    301   number of ions     NIONS =     88
   non local maximal  LDIM  =      6   non local SUM 2l+1 LMDIM =     18
   total plane-waves  NPLWV = 140000
   max r-space proj   IRMAX =   1632   max aug-charges    IRDMAX=   4555
   dimension x,y,z NGX =    50 NGY =   50 NGZ =   56
   dimension x,y,z NGXF=   100 NGYF=  100 NGZF=  112
   support grid    NGXF=   100 NGYF=  100 NGZF=  112
   ions per type =              16   8  16  48
   NGX,Y,Z   is equivalent  to a cutoff of   8.30,  8.30,  8.30 a.u.
   NGXF,Y,Z  is equivalent  to a cutoff of  16.59, 16.59, 16.60 a.u.

 SYSTEM =  unknown system                          
 POSCAR =  Na Mg Mn  O                             

 Startparameter for this run:
   NWRITE =      2    write-flag & timer
   PREC   = normal    normal or accurate (medium, high low for compatibility)
   ISTART =      0    job   : 0-new  1-cont  2-samecut
   ICHARG =      1    charge: 1-file 2-atom 10-const
   ISPIN  =      2    spin polarized calculation?
   LNONCOLLINEAR =      F non collinear calculations
   LSORBIT =      F    spin-orbit coupling
   INIWAV =      1    electr: 0-lowe 1-rand  2-diag
   LASPH  =      T    aspherical Exc in radial PAW
   METAGGA=      F    non-selfconsistent MetaGGA calc.

 Electronic Relaxation 1
   ENCUT  =  400.0 eV  29.40 Ry    5.42 a.u.  16.34 16.34 18.29*2*pi/ulx,y,z
   ENINI  =  400.0     initial cutoff
   ENAUG  =  758.8 eV  augmentation charge cutoff
   NELM   =    200;   NELMIN=  6; NELMDL=-12     # of ELM steps 
   EDIFF  = 0.1E-04   stopping-criterion for ELM
   LREAL  =      T    real-space projection
   NLSPLINE    = F    spline interpolate recip. space projectors
   LCOMPAT=      F    compatible to vasp.4.4
   GGA_COMPAT  = T    GGA compatible to vasp.4.4-vasp.4.6
   LMAXPAW     = -100 max onsite density
   LMAXMIX     =    4 max onsite mixed and CHGCAR
   VOSKOWN=      0    Vosko Wilk Nusair interpolation
   ROPT   =   -0.00050  -0.00050  -0.00050  -0.00050
 Ionic relaxation
   EDIFFG = 0.1E-03   stopping-criterion for IOM
   NSW    =      1    number of steps for IOM
   NBLOCK =      1;   KBLOCK =      1    inner block; outer block 
   IBRION =     -1    ionic relax: 0-MD 1-quasi-New 2-CG
   NFREE  =      0    steps in history (QN), initial steepest desc. (CG)
   ISIF   =      2    stress and relaxation
   IWAVPR =     10    prediction:  0-non 1-charg 2-wave 3-comb
   ISYM   =      2    0-nonsym 1-usesym 2-fastsym
   LCORR  =      T    Harris-Foulkes like correction to forces

   POTIM  = 0.5000    time-step for ionic-motion
   TEIN   =    0.0    initial temperature
   TEBEG  =    0.0;   TEEND  =   0.0 temperature during run
   SMASS  =  -3.00    Nose mass-parameter (am)
   estimated Nose-frequenzy (Omega)   =  0.10E-29 period in steps =****** mass=  -0.229E-26a.u.
   SCALEE = 1.0000    scale energy and forces
   NPACO  =    256;   APACO  = 16.0  distance and # of slots for P.C.
   PSTRESS=    0.0 pullay stress

  Mass of Ions in am
   POMASS =  22.99 24.30 54.94 16.00
  Ionic Valenz
   ZVAL   =   7.00  8.00 13.00  6.00
  Atomic Wigner-Seitz radii
   RWIGS  =  -1.00 -1.00 -1.00 -1.00
  virtual crystal weights 
   VCA    =   1.00  1.00  1.00  1.00
   NELECT =     672.0000    total number of electrons
   NUPDOWN=      48.0000    fix difference up-down

 DOS related values:
   EMIN   =  10.00;   EMAX   =-10.00  energy-range for DOS
   EFERMI =   0.00
   ISMEAR =     0;   SIGMA  =   0.05  broadening in eV -4-tet -1-fermi 0-gaus

 Electronic relaxation 2 (details)
   IALGO  =     48    algorithm
   LDIAG  =      T    sub-space diagonalisation (order eigenvalues)
   LSUBROT=      F    optimize rotation matrix (better conditioning)
   TURBO    =      0    0=normal 1=particle mesh
   IRESTART =      0    0=no restart 2=restart with 2 vectors
   NREBOOT  =      0    no. of reboots
   NMIN     =      0    reboot dimension
   EREF     =   0.00    reference energy to select bands
   IMIX   =      4    mixing-type and parameters
     AMIX     =   0.40;   BMIX     =  1.00
     AMIX_MAG =   1.60;   BMIX_MAG =  1.00
     AMIN     =   0.10
     WC   =   100.;   INIMIX=   1;  MIXPRE=   1;  MAXMIX= -45

 Intra band minimization:
   WEIMIN = 0.0000     energy-eigenvalue tresh-hold
   EBREAK =  0.52E-08  absolut break condition
   DEPER  =   0.30     relativ break condition  

   TIME   =   0.40     timestep for ELM

  volume/ion in A,a.u.               =      11.08        74.78
  Fermi-wavevector in a.u.,A,eV,Ry     =   1.445993  2.732531 28.448379  2.090897
  Thomas-Fermi vector in A             =   2.564112
 
 Write flags
   LWAVE        =      F    write WAVECAR
   LDOWNSAMPLE  =      F    k-point downsampling of WAVECAR
   LCHARG       =      F    write CHGCAR
   LVTOT        =      F    write LOCPOT, total local potential
   LVHAR        =      F    write LOCPOT, Hartree potential only
   LELF         =      F    write electronic localiz. function (ELF)
   LORBIT       =     11    0 simple, 1 ext, 2 COOP (PROOUT), +10 PAW based schemes


 Dipole corrections
   LMONO  =      F    monopole corrections only (constant potential shift)
   LDIPOL =      F    correct potential (dipole corrections)
   IDIPOL =      0    1-x, 2-y, 3-z, 4-all directions 
   EPSILON=  1.0000000 bulk dielectric constant

 Exchange correlation treatment:
   GGA     =    --    GGA type
   LEXCH   =     8    internal setting for exchange type
   VOSKOWN=      0    Vosko Wilk Nusair interpolation
   LHFCALC =     F    Hartree Fock is set to
   LHFONE  =     F    Hartree Fock one center treatment
   AEXX    =    0.0000 exact exchange contribution

 Linear response parameters
   LEPSILON=     F    determine dielectric tensor
   LRPA    =     F    only Hartree local field effects (RPA)
   LNABLA  =     F    use nabla operator in PAW spheres
   LVEL    =     F    velocity operator in full k-point grid
   LINTERFAST=   F  fast interpolation
   KINTER  =     0    interpolate to denser k-point grid
   CSHIFT  =0.1000    complex shift for real part using Kramers Kronig
   OMEGAMAX=  -1.0    maximum frequency
   DEG_THRESHOLD= 0.2000000E-02 threshold for treating states as degnerate
   RTIME   =   -0.100 relaxation time in fs
  (WPLASMAI=    0.000 imaginary part of plasma frequency in eV, 0.658/RTIME)
   DFIELD  = 0.0000000 0.0000000 0.0000000 field for delta impulse in time
 
 Orbital magnetization related:
   ORBITALMAG=     F  switch on orbital magnetization
   LCHIMAG   =     F  perturbation theory with respect to B field
   DQ        =  0.001000  dq finite difference perturbation B field
   LLRAUG    =     F  two centre corrections for induced B field



--------------------------------------------------------------------------------------------------------


 Static calculation
 charge density and potential will be updated during run
 spin polarized calculation
 RMM-DIIS sequential band-by-band
 perform sub-space diagonalisation
    before iterative eigenvector-optimisation
 modified Broyden-mixing scheme, WC =      100.0
 initial mixing is a Kerker type mixing with AMIX =  0.4000 and BMIX =      1.0000
 Hartree-type preconditioning will be used
 using additional bands          144
 real space projection scheme for non local part
 use partial core corrections
 calculate Harris-corrections to forces 
   (improved forces if not selfconsistent)
 use gradient corrections 
 use of overlap-Matrix (Vanderbilt PP)
 Gauss-broadening in eV      SIGMA  =   0.05


--------------------------------------------------------------------------------------------------------


  energy-cutoff  :      400.00
  volume of cell :      975.20
      direct lattice vectors                 reciprocal lattice vectors
    10.019000053  0.000000000  0.000000000     0.099810360  0.057625538 -0.000000000
    -5.009500027  8.676708567  0.000000000     0.000000000  0.115251076  0.000000000
     0.000000000  0.000000000 11.218000412     0.000000000  0.000000000  0.089142446

  length of vectors
    10.019000053 10.019000053 11.218000412     0.115251076  0.115251076  0.089142446


 
 k-points in units of 2pi/SCALE and weight: read from INCAR                         
   0.00000000  0.00000000  0.00000000       0.125
   0.04990518  0.02881277 -0.00000000       0.125
   0.00000000  0.05762554  0.00000000       0.125
   0.04990518  0.08643831 -0.00000000       0.125
   0.00000000  0.00000000  0.04457122       0.125
   0.04990518  0.02881277  0.04457122       0.125
   0.00000000  0.05762554  0.04457122       0.125
   0.04990518  0.08643831  0.04457122       0.125
 
 k-points in reciprocal lattice and weights: read from INCAR                         
   0.00000000  0.00000000  0.00000000       0.125
   0.50000000 -0.00000000 -0.00000000       0.125
   0.00000000  0.50000000  0.00000000       0.125
   0.50000000  0.50000000 -0.00000000       0.125
   0.00000000  0.00000000  0.50000000       0.125
   0.50000000 -0.00000000  0.50000000       0.125
   0.00000000  0.50000000  0.50000000       0.125
   0.50000000  0.50000000  0.50000000       0.125
 
 position of ions in fractional coordinates (direct lattice) 
   0.90294680  0.14474975  0.25298181
   0.25039933  0.14307829  0.75918343
   0.91955009  0.97192780  0.74485467
   0.96468017  0.66466333  0.74775626
   0.24674030  0.44669770  0.26004367
   0.58304891  0.64334106  0.25064806
   0.44206138  0.66338223  0.74834192
   0.10941099  0.35204890  0.74360489
   0.39339673  0.15178007  0.24838919
   0.47093865  0.87358702  0.24679710
   0.09225490  0.64507476  0.25208771
   0.58414482  0.44239883  0.75688088
   0.41395341  0.97053590  0.76252092
   0.76865127  0.18595004  0.75168566
   0.91754621  0.83734813  0.24739079
   0.75110843  0.41661749  0.25224371
   0.60549604  0.51204209  0.00280182
   0.24897255  0.30791976  0.50148688
   0.10342602  0.50779624  0.99478513
   0.74918776  0.30866197  0.50520501
   0.10027634  0.99472973  0.01430665
   0.75214476  0.81483548  0.51042876
   0.60833005  0.00390833  0.99251510
   0.26141425  0.80629192  0.50948920
   0.93740181  0.16825406  0.99390481
   0.26458784  0.33044328  0.99382073
   0.92258487  0.14653713  0.50121054
   0.58008847  0.46878260  0.49981457
   0.43528150  0.17274885  0.99468762
   0.76463001  0.34127918  0.99154035
   0.42791644  0.14230857  0.50515420
   0.08090772  0.46960665  0.49504901
   0.43693229  0.66276169  0.00082549
   0.76311443  0.83968131  0.99710766
   0.42150372  0.63639800  0.50382954
   0.09330811  0.97345323  0.49886342
   0.93428203  0.67688225  0.00646720
   0.26792985  0.83175549  0.00319023
   0.91384409  0.64003072  0.48692546
   0.59175872  0.97711361  0.50549561
   0.09586375  0.31290206  0.08960955
   0.28062015  0.18290115  0.08457746
   0.41542459  0.48793272  0.09376894
   0.07947163  0.12472027  0.59916828
   0.24787504  0.47768805  0.58919235
   0.44374793  0.31155017  0.60119538
   0.10480057  0.17622235  0.89877872
   0.28069445  0.49740866  0.91217683
   0.42731248  0.33471679  0.90550006
   0.07946577  0.30443687  0.40970314
   0.26547530  0.14236290  0.41538330
   0.43039354  0.48620280  0.40566677
   0.59921576  0.32635647  0.09215368
   0.78687843  0.19227568  0.08332563
   0.92871008  0.51451768  0.09586735
   0.57702200  0.12144714  0.60111872
   0.74599560  0.48975945  0.59217505
   0.93253797  0.30710609  0.58618201
   0.61163053  0.19180084  0.89916203
   0.77615559  0.51328335  0.91392402
   0.93386818  0.33285663  0.89794078
   0.57998248  0.31240533  0.40701193
   0.74809587  0.12870796  0.40900783
   0.92816527  0.48037686  0.39812799
   0.59607862  0.81834949  0.09387324
   0.78998476  0.69781761  0.09967552
   0.91827326  0.99984227  0.09329381
   0.57038841  0.62360744  0.59905685
   0.75940186  0.99550998  0.59642002
   0.93183599  0.81231955  0.58399802
   0.59635516  0.67169825  0.90462646
   0.77560541  0.00502857  0.90125688
   0.93195129  0.83541471  0.90838827
   0.56323043  0.80032652  0.40859688
   0.74974263  0.63739723  0.40156533
   0.93539517  0.99572896  0.40466659
   0.09403933  0.81912167  0.10365127
   0.27711396  0.67654571  0.09303084
   0.42886398  0.01216953  0.09542877
   0.06106851  0.61158906  0.59232125
   0.25650894  0.97880088  0.59336778
   0.42772921  0.80597844  0.59813512
   0.09467064  0.68426293  0.91392402
   0.27669327  0.99456031  0.90686394
   0.41953977  0.81807865  0.90580314
   0.07602606  0.80979440  0.39877695
   0.25182537  0.62631469  0.40514261
   0.43248368  0.98713584  0.40969690
 
 position of ions in cartesian coordinates  (Angst):
   8.32150016  1.25595140  2.83795000
   1.79200021  1.24144860  8.51652000
   4.34410011  8.43313427  8.35578000
   6.33549973  5.76709000  8.38833000
   0.23435900  3.87586573  2.91717000
   2.61875000  5.58208287  2.81177000
   1.10579971  5.75597430  8.39490000
  -0.66740029  3.05462570  8.34176000
   3.18109963  1.31695140  2.78643000
   0.34210019  7.57985997  2.76857000
  -2.30720019  5.59712570  2.82792000
   3.63635000  3.83856573  8.49069000
  -0.71450035  8.42105717  8.55396000
   6.76960043  1.61343427  8.43241000
   4.99820008  7.26542570  2.77523000
   5.43831008  3.61486857  2.82967000
   3.50139000  4.44284000  0.03143080
   0.95193200  2.67173000  5.62568000
  -1.50758000  4.40600000 11.15950000
   5.95987000  2.67817000  5.66739000
  -3.97843000  8.63098000  0.16049200
   3.45382000  7.07009000  5.72599000
   6.07528003  0.03391143 11.13403481
  -1.42001000  6.99596000  5.71545000
   8.54896003  1.45989143 11.14962461
   0.99555000  2.86716000 11.14868131
   8.50930005  1.27146000  5.62258000
   3.46354000  4.06749000  5.60692000
   3.49570003  1.49889143 11.15840611
   5.95119000  2.96118000 11.12310000
   3.57440000  1.23477000  5.66682000
  -1.54188000  4.07464000  5.55346000
   1.05752000  5.75059000  0.00926040
   3.43926000  7.28567000 11.18555411
   1.03501000  5.52184000  5.65196000
  -3.94166000  8.44637000  5.59625000
   5.96973005  5.87311000  0.07254900
  -1.48229000  7.21690000  0.03578800
   5.94957005  5.55336000  5.46233000
   1.03398000  8.47813000  5.67065000
  -0.60702400  2.71496000  1.00524000
   1.89529000  1.58698000  0.94879000
   1.71784000  4.23365000  1.05190000
   0.17144003  1.08216143  6.72147000
   0.09048170  4.14476000  6.60956000
   2.88520000  2.70323000  6.74421000
   0.16721100  1.52903000 10.08250000
   0.32050900  4.31587000 10.23280000
   2.60448000  2.90424000 10.15790000
  -0.72890900  2.64151000  4.59605000
   1.94663003  1.23524143  4.65977000
   1.87648000  4.21864000  4.55077000
   4.36866000  2.83170000  1.03378000
   6.92053000  1.66832000  0.93474700
   6.72727000  4.46432000  1.07544000
   5.17279403  1.05376143  6.74335000
   5.02068000  4.24950000  6.64302000
   7.80465005  2.66467000  6.57579000
   5.16710000  1.66420000 10.08680000
   5.20501000  4.45361000 10.25240000
   7.68898000  2.88810000 10.07310000
   4.24585000  2.71065000  4.56586000
   6.85041003  1.11676143  4.58825000
   6.89284005  4.16809000  4.46620000
   1.87259000  7.10058000  1.05307000
   4.41914000  6.05476000  1.11816000
   4.19147000  8.67534000  1.04657000
   2.59076000  5.41086000  6.72022000
   2.62144000  8.63775000  6.69064000
   5.26675005  7.04826000  6.55129000
   2.61001000  5.82813000 10.14810000
   7.74560003  0.04363143 10.11030000
   5.15221000  7.24865000 10.19030000
   1.63377000  6.94420000  4.58364000
   4.31863000  5.53051000  4.50476000
   4.38362005  8.63965000  4.53955000
  -3.16121000  7.10728000  1.16276000
  -0.61275100  5.87019000  1.04362000
   4.23582503  0.10559143  1.07052000
  -2.45191000  5.30658000  6.64466000
  -2.33334000  8.49277000  6.65640000
   0.24787000  6.99324000  6.70988000
  -2.47931000  5.93715000 10.25240000
  -2.21006000  8.62951000 10.17320000
   0.10520400  7.09823000 10.16130000
  -3.29496000  7.02635000  4.47348000
  -0.61448500  5.43435000  4.54489000
  -0.61200300  8.56509000  4.59598000
 


--------------------------------------------------------------------------------------------------------


 k-point  1 :   0.0000 0.0000 0.0000  plane waves:   17725
 k-point  2 :   0.5000-0.0000-0.0000  plane waves:   17736
 k-point  3 :   0.0000 0.5000 0.0000  plane waves:   17736
 k-point  4 :   0.5000 0.5000-0.0000  plane waves:   17736
 k-point  5 :   0.0000 0.0000 0.5000  plane waves:   17676
 k-point  6 :   0.5000-0.0000 0.5000  plane waves:   17700
 k-point  7 :   0.0000 0.5000 0.5000  plane waves:   17700
 k-point  8 :   0.5000 0.5000 0.5000  plane waves:   17700

 maximum and minimum number of plane-waves per node :     17736    17676

 maximum number of plane-waves:     17736
 maximum index in each direction: 
   IXMAX=   16   IYMAX=   16   IZMAX=   18
   IXMIN=  -16   IYMIN=  -16   IZMIN=  -18


 serial   3D FFT for wavefunctions
 parallel 3D FFT for charge:
    minimum data exchange during FFTs selected (reduces bandwidth)


 total amount of memory used by VASP MPI-rank0    94436. kBytes
=======================================================================

   base      :      30000. kBytes
   nonlr-proj:      13677. kBytes
   fftplans  :       1275. kBytes
   grid      :      22786. kBytes
   one-center:       2737. kBytes
   wavefun   :      23961. kBytes
 
     INWAV:  cpu time    0.0000: real time    0.0001
 Broyden mixing: mesh for mixing (old mesh)
   NGX = 33   NGY = 33   NGZ = 37
  (NGX  =100   NGY  =100   NGZ  =112)
  gives a total of  40293 points

 initial charge density was supplied:
 charge density of overlapping atoms calculated
 number of electron     672.0000000 magnetization      48.0000000
 keeping initial charge density in first step


--------------------------------------------------------------------------------------------------------


 Maximum index for non-local projection operator         1549
 Maximum index for augmentation-charges          503 (set IRDMAX)


--------------------------------------------------------------------------------------------------------


 First call to EWALD:  gamma=   0.179
 Maximum number of real-space cells 3x 3x 2
 Maximum number of reciprocal cells 3x 3x 3

    FEWALD:  cpu time    0.0026: real time    0.0026


--------------------------------------- Iteration      1(   1)  ---------------------------------------


    POTLOK:  cpu time    0.1876: real time    0.1889
    SETDIJ:  cpu time    4.6513: real time    4.6552
    EDDIAG:  cpu time    4.4143: real time    4.8474
  RMM-DIIS:  cpu time    9.1963: real time    9.2175
    ORTHCH:  cpu time    1.1618: real time    1.2417
       DOS:  cpu time    0.0024: real time    0.0025
    --------------------------------------------
      LOOP:  cpu time   19.6135: real time   20.1532

 eigenvalue-minimisations  :  7680
 total energy-change (2. order) : 0.1595197E+04  (-0.3496514E+05)
 number of electron     672.0000000 magnetization      48.0000000
 augmentation part      672.0000000 magnetization      48.0000000

 Free energy of the ion-electron system (eV)
  ---------------------------------------------------
  alpha Z        PSCENC =      2652.81237852
  Ewald energy   TEWEN  =    -41956.42424908
  -Hartree energ DENC   =    -25664.34770963
  -exchange      EXHF   =         0.00000000
  -V(xc)+E(xc)   XCENC  =      3605.45858029
  PAW double counting   =     55594.23204139   -59034.67079123
  entropy T*S    EENTRO =        -0.05522051
  eigenvalues    EBANDS =     -7464.00588128
  atomic energy  EATOM  =     73862.19814772
  Solvation  Ediel_sol  =         0.00000000
  ---------------------------------------------------
  free energy    TOTEN  =      1595.19729619 eV

  energy without entropy =     1595.25251670  energy(sigma->0) =     1595.22490644


--------------------------------------------------------------------------------------------------------




--------------------------------------- Iteration      1(   2)  ---------------------------------------


    EDDIAG:  cpu time    4.4412: real time    4.8635
  RMM-DIIS:  cpu time    9.2171: real time    9.2399
    ORTHCH:  cpu time    1.1753: real time    1.2681
       DOS:  cpu time    0.0020: real time    0.0020
    --------------------------------------------
      LOOP:  cpu time   14.8356: real time   15.3734

 eigenvalue-minimisations  :  7680
 total energy-change (2. order) :-0.2332167E+04  (-0.8039009E+04)
 number of electron     672.0000000 magnetization      48.0000000
 augmentation part      672.0000000 magnetization      48.0000000

 Free energy of the ion-electron system (eV)
  ---------------------------------------------------
  alpha Z        PSCENC =      2652.81237852
  Ewald energy   TEWEN  =    -41956.42424908
  -Hartree energ DENC   =    -25664.34770963
  -exchange      EXHF   =         0.00000000
  -V(xc)+E(xc)   XCENC  =      3605.45858029
  PAW double counting   =     55594.23204139   -59034.67079123
  entropy T*S    EENTRO =        -0.03822824
  eigenvalues    EBANDS =     -9796.18987392
  atomic energy  EATOM  =     73862.19814772
  Solvation  Ediel_sol  =         0.00000000
  ---------------------------------------------------
  free energy    TOTEN  =      -736.96970419 eV

  energy without entropy =     -736.93147595  energy(sigma->0) =     -736.95059007


--------------------------------------------------------------------------------------------------------




--------------------------------------- Iteration      1(   3)  ---------------------------------------


    EDDIAG:  cpu time    4.4108: real time    4.8297
  RMM-DIIS:  cpu time    9.2001: real time    9.2213
    ORTHCH:  cpu time    1.1571: real time    1.2444
       DOS:  cpu time    0.0018: real time    0.0018
    --------------------------------------------
      LOOP:  cpu time   14.7698: real time   15.2972

 eigenvalue-minimisations  :  7680
 total energy-change (2. order) : 0.9071032E+02  (-0.1422015E+04)
 number of electron     672.0000000 magnetization      48.0000000
 augmentation part      672.0000000 magnetization      48.0000000

 Free energy of the ion-electron system (eV)
  ---------------------------------------------------
  alpha Z        PSCENC =      2652.81237852
  Ewald energy   TEWEN  =    -41956.42424908
  -Hartree energ DENC   =    -25664.34770963
  -exchange      EXHF   =         0.00000000
  -V(xc)+E(xc)   XCENC  =      3605.45858029
  PAW double counting   =     55594.23204139   -59034.67079123
  entropy T*S    EENTRO =        -0.04918064
  eigenvalues    EBANDS =     -9705.46860425
  atomic energy  EATOM  =     73862.19814772
  Solvation  Ediel_sol  =         0.00000000
  ---------------------------------------------------
  free energy    TOTEN  =      -646.25938691 eV

  energy without entropy =     -646.21020628  energy(sigma->0) =     -646.23479660


--------------------------------------------------------------------------------------------------------




--------------------------------------- Iteration      1(   4)  ---------------------------------------


    EDDIAG:  cpu time    4.5004: real time    4.9206
  RMM-DIIS:  cpu time    9.2005: real time    9.2130
    ORTHCH:  cpu time    1.1762: real time    1.3211
       DOS:  cpu time    0.0013: real time    0.0013
    --------------------------------------------
      LOOP:  cpu time   14.8785: real time   15.4560

 eigenvalue-minimisations  :  7680
 total energy-change (2. order) :-0.4655963E+03  (-0.4288740E+03)
 number of electron     672.0000000 magnetization      48.0000000
 augmentation part      672.0000000 magnetization      48.0000000

 Free energy of the ion-electron system (eV)
  ---------------------------------------------------
  alpha Z        PSCENC =      2652.81237852
  Ewald energy   TEWEN  =    -41956.42424908
  -Hartree energ DENC   =    -25664.34770963
  -exchange      EXHF   =         0.00000000
  -V(xc)+E(xc)   XCENC  =      3605.45858029
  PAW double counting   =     55594.23204139   -59034.67079123
  entropy T*S    EENTRO =        -0.00000000
  eigenvalues    EBANDS =    -10171.11405160
  atomic energy  EATOM  =     73862.19814772
  Solvation  Ediel_sol  =         0.00000000
  ---------------------------------------------------
  free energy    TOTEN  =     -1111.85565363 eV

  energy without entropy =    -1111.85565363  energy(sigma->0) =    -1111.85565363


--------------------------------------------------------------------------------------------------------




--------------------------------------- Iteration      1(   5)  ---------------------------------------


    EDDIAG:  cpu time    4.4291: real time    4.8386
  RMM-DIIS:  cpu time    9.1971: real time    9.2121
    ORTHCH:  cpu time    1.1548: real time    1.2407
       DOS:  cpu time    0.0011: real time    0.0011
    --------------------------------------------
      LOOP:  cpu time   14.7820: real time   15.2924

 eigenvalue-minimisations  :  7680
 total energy-change (2. order) :-0.1040922E+03  (-0.1599511E+03)
 number of electron     672.0000000 magnetization      48.0000000
 augmentation part      672.0000000 magnetization      48.0000000

 Free energy of the ion-electron system (eV)
  ---------------------------------------------------
  alpha Z        PSCENC =      2652.81237852
  Ewald energy   TEWEN  =    -41956.42424908
  -Hartree energ DENC   =    -25664.34770963
  -exchange      EXHF   =         0.00000000
  -V(xc)+E(xc)   XCENC  =      3605.45858029
  PAW double counting   =     55594.23204139   -59034.67079123
  entropy T*S    EENTRO =        -0.00000000
  eigenvalues    EBANDS =    -10275.20620342
  atomic energy  EATOM  =     73862.19814772
  Solvation  Ediel_sol  =         0.00000000
  ---------------------------------------------------
  free energy    TOTEN  =     -1215.94780545 eV

  energy without entropy =    -1215.94780545  energy(sigma->0) =    -1215.94780545


--------------------------------------------------------------------------------------------------------




--------------------------------------- Iteration      1(   6)  ---------------------------------------


    EDDIAG:  cpu time    4.4591: real time    4.8845
  RMM-DIIS:  cpu time    9.1976: real time    9.2411
    ORTHCH:  cpu time    1.1572: real time    1.2395
       DOS:  cpu time    0.0013: real time    0.0013
    --------------------------------------------
      LOOP:  cpu time   14.8152: real time   15.3664

 eigenvalue-minimisations  :  7680
 total energy-change (2. order) :-0.9093998E+01  (-0.7935108E+02)
 number of electron     672.0000000 magnetization      48.0000000
 augmentation part      672.0000000 magnetization      48.0000000

 Free energy of the ion-electron system (eV)
  ---------------------------------------------------
  alpha Z        PSCENC =      2652.81237852
  Ewald energy   TEWEN  =    -41956.42424908
  -Hartree energ DENC   =    -25664.34770963
  -exchange      EXHF   =         0.00000000
  -V(xc)+E(xc)   XCENC  =      3605.45858029
  PAW double counting   =     55594.23204139   -59034.67079123
  entropy T*S    EENTRO =        -0.00000000
  eigenvalues    EBANDS =    -10284.30020117
  atomic energy  EATOM  =     73862.19814772
  Solvation  Ediel_sol  =         0.00000000
  ---------------------------------------------------
  free energy    TOTEN  =     -1225.04180320 eV

  energy without entropy =    -1225.04180320  energy(sigma->0) =    -1225.04180320


--------------------------------------------------------------------------------------------------------




--------------------------------------- Iteration      1(   7)  ---------------------------------------


    EDDIAG:  cpu time    4.4094: real time    4.8340
  RMM-DIIS:  cpu time    9.1941: real time    9.2235
    ORTHCH:  cpu time    1.1627: real time    1.2465
       DOS:  cpu time    0.0013: real time    0.0013
    --------------------------------------------
      LOOP:  cpu time   14.7675: real time   15.3052

 eigenvalue-minimisations  :  7680
 total energy-change (2. order) :-0.1933764E+01  (-0.4866806E+02)
 number of electron     672.0000000 magnetization      48.0000000
 augmentation part      672.0000000 magnetization      48.0000000

 Free energy of the ion-electron system (eV)
  ---------------------------------------------------
  alpha Z        PSCENC =      2652.81237852
  Ewald energy   TEWEN  =    -41956.42424908
  -Hartree energ DENC   =    -25664.34770963
  -exchange      EXHF   =         0.00000000
  -V(xc)+E(xc)   XCENC  =      3605.45858029
  PAW double counting   =     55594.23204139   -59034.67079123
  entropy T*S    EENTRO =        -0.00000000
  eigenvalues    EBANDS =    -10286.23396544
  atomic energy  EATOM  =     73862.19814772
  Solvation  Ediel_sol  =         0.00000000
  ---------------------------------------------------
  free energy    TOTEN  =     -1226.97556746 eV

  energy without entropy =    -1226.97556746  energy(sigma->0) =    -1226.97556746


--------------------------------------------------------------------------------------------------------




--------------------------------------- Iteration      1(   8)  ---------------------------------------


    EDDIAG:  cpu time    4.4344: real time    4.8520
  RMM-DIIS:  cpu time    9.1886: real time    9.2578
    ORTHCH:  cpu time    1.1615: real time    1.2425
       DOS:  cpu time    0.0016: real time    0.0016
    --------------------------------------------
      LOOP:  cpu time   14.7861: real time   15.3538

 eigenvalue-minimisations  :  7680
 total energy-change (2. order) : 0.5030790E+01  (-0.3032169E+02)
 number of electron     672.0000000 magnetization      48.0000000
 augmentation part      672.0000000 magnetization      48.0000000

 Free energy of the ion-electron system (eV)
  ---------------------------------------------------
  alpha Z        PSCENC =      2652.81237852
  Ewald energy   TEWEN  =    -41956.42424908
  -Hartree energ DENC   =    -25664.34770963
  -exchange      EXHF   =         0.00000000
  -V(xc)+E(xc)   XCENC  =      3605.45858029
  PAW double counting   =     55594.23204139   -59034.67079123
  entropy T*S    EENTRO =        -0.00000000
  eigenvalues    EBANDS =    -10281.20317553
  atomic energy  EATOM  =     73862.19814772
  Solvation  Ediel_sol  =         0.00000000
  ---------------------------------------------------
  free energy    TOTEN  =     -1221.94477756 eV

  energy without entropy =    -1221.94477756  energy(sigma->0) =    -1221.94477756


--------------------------------------------------------------------------------------------------------




--------------------------------------- Iteration      1(   9)  ---------------------------------------


    EDDIAG:  cpu time    4.4042: real time    4.8323
  RMM-DIIS:  cpu time   19.4797: real time   19.5326
    ORTHCH:  cpu time    1.1575: real time    1.2391
       DOS:  cpu time    0.0013: real time    0.0013
    --------------------------------------------
      LOOP:  cpu time   25.0427: real time   25.6053

 eigenvalue-minimisations  : 21787
 total energy-change (2. order) : 0.9436080E+01  (-0.1339859E+02)
 number of electron     672.0000000 magnetization      48.0000000
 augmentation part      672.0000000 magnetization      48.0000000

 Free energy of the ion-electron system (eV)
  ---------------------------------------------------
  alpha Z        PSCENC =      2652.81237852
  Ewald energy   TEWEN  =    -41956.42424908
  -Hartree energ DENC   =    -25664.34770963
  -exchange      EXHF   =         0.00000000
  -V(xc)+E(xc)   XCENC  =      3605.45858029
  PAW double counting   =     55594.23204139   -59034.67079123
  entropy T*S    EENTRO =        -0.00000000
  eigenvalues    EBANDS =    -10271.76709586
  atomic energy  EATOM  =     73862.19814772
  Solvation  Ediel_sol  =         0.00000000
  ---------------------------------------------------
  free energy    TOTEN  =     -1212.50869789 eV

  energy without entropy =    -1212.50869789  energy(sigma->0) =    -1212.50869789


--------------------------------------------------------------------------------------------------------




--------------------------------------- Iteration      1(  10)  ---------------------------------------


    EDDIAG:  cpu time    4.4162: real time    4.8459
  RMM-DIIS:  cpu time   17.7176: real time   17.7445
    ORTHCH:  cpu time    1.1665: real time    1.2479
       DOS:  cpu time    0.0016: real time    0.0016
    --------------------------------------------
      LOOP:  cpu time   23.3019: real time   23.8399

 eigenvalue-minimisations  : 19572
 total energy-change (2. order) :-0.1916666E+01  (-0.5332740E+00)
 number of electron     672.0000000 magnetization      48.0000000
 augmentation part      672.0000000 magnetization      48.0000000

 Free energy of the ion-electron system (eV)
  ---------------------------------------------------
  alpha Z        PSCENC =      2652.81237852
  Ewald energy   TEWEN  =    -41956.42424908
  -Hartree energ DENC   =    -25664.34770963
  -exchange      EXHF   =         0.00000000
  -V(xc)+E(xc)   XCENC  =      3605.45858029
  PAW double counting   =     55594.23204139   -59034.67079123
  entropy T*S    EENTRO =        -0.00000000
  eigenvalues    EBANDS =    -10273.68376219
  atomic energy  EATOM  =     73862.19814772
  Solvation  Ediel_sol  =         0.00000000
  ---------------------------------------------------
  free energy    TOTEN  =     -1214.42536422 eV

  energy without entropy =    -1214.42536422  energy(sigma->0) =    -1214.42536422


--------------------------------------------------------------------------------------------------------




--------------------------------------- Iteration      1(  11)  ---------------------------------------


    EDDIAG:  cpu time    4.4158: real time    4.8352
  RMM-DIIS:  cpu time   19.9078: real time   20.0327
    ORTHCH:  cpu time    1.1608: real time    1.2404
       DOS:  cpu time    0.0013: real time    0.0013
    --------------------------------------------
      LOOP:  cpu time   25.4857: real time   26.1097

 eigenvalue-minimisations  : 22524
 total energy-change (2. order) : 0.7184751E-01  (-0.4366801E-01)
 number of electron     672.0000000 magnetization      48.0000000
 augmentation part      672.0000000 magnetization      48.0000000

 Free energy of the ion-electron system (eV)
  ---------------------------------------------------
  alpha Z        PSCENC =      2652.81237852
  Ewald energy   TEWEN  =    -41956.42424908
  -Hartree energ DENC   =    -25664.34770963
  -exchange      EXHF   =         0.00000000
  -V(xc)+E(xc)   XCENC  =      3605.45858029
  PAW double counting   =     55594.23204139   -59034.67079123
  entropy T*S    EENTRO =        -0.00000001
  eigenvalues    EBANDS =    -10273.61191468
  atomic energy  EATOM  =     73862.19814772
  Solvation  Ediel_sol  =         0.00000000
  ---------------------------------------------------
  free energy    TOTEN  =     -1214.35351671 eV

  energy without entropy =    -1214.35351671  energy(sigma->0) =    -1214.35351671


--------------------------------------------------------------------------------------------------------




--------------------------------------- Iteration      1(  12)  ---------------------------------------


    EDDIAG:  cpu time    4.4983: real time    4.9257
  RMM-DIIS:  cpu time   21.7039: real time   21.7827
    ORTHCH:  cpu time    1.1597: real time    1.2443
       DOS:  cpu time    0.0017: real time    0.0017
    CHARGE:  cpu time    1.7969: real time    1.7992
    MIXING:  cpu time    0.0010: real time    0.0011
    --------------------------------------------
      LOOP:  cpu time   29.1615: real time   29.7548

 eigenvalue-minimisations  : 24490
 total energy-change (2. order) :-0.9381351E-03  (-0.4381855E-02)
 number of electron     671.9999641 magnetization      48.0000022
 augmentation part      239.0049735 magnetization      29.0305077

 Broyden mixing:
  rms(total) = 0.12495E+02    rms(broyden)= 0.12485E+02
  rms(prec ) = 0.14360E+02
  weight for this iteration     100.00

 Free energy of the ion-electron system (eV)
  ---------------------------------------------------
  alpha Z        PSCENC =      2652.81237852
  Ewald energy   TEWEN  =    -41956.42424908
  -Hartree energ DENC   =    -25664.34770963
  -exchange      EXHF   =         0.00000000
  -V(xc)+E(xc)   XCENC  =      3605.45858029
  PAW double counting   =     55594.23204139   -59034.67079123
  entropy T*S    EENTRO =        -0.00000000
  eigenvalues    EBANDS =    -10273.61285282
  atomic energy  EATOM  =     73862.19814772
  Solvation  Ediel_sol  =         0.00000000
  ---------------------------------------------------
  free energy    TOTEN  =     -1214.35445485 eV

  energy without entropy =    -1214.35445484  energy(sigma->0) =    -1214.35445484


--------------------------------------------------------------------------------------------------------




--------------------------------------- Iteration      1(  13)  ---------------------------------------


    POTLOK:  cpu time    0.1660: real time    0.1665
    SETDIJ:  cpu time    5.0163: real time    5.0198
    EDDIAG:  cpu time    4.4193: real time    4.8277
  RMM-DIIS:  cpu time   17.2376: real time   17.2956
    ORTHCH:  cpu time    1.1596: real time    1.2404
       DOS:  cpu time    0.0015: real time    0.0015
    CHARGE:  cpu time    1.7969: real time    1.7980
    MIXING:  cpu time    0.0009: real time    0.0010
    --------------------------------------------
      LOOP:  cpu time   29.7981: real time   30.3505

 eigenvalue-minimisations  : 18729
 total energy-change (2. order) : 0.2276083E+03  (-0.1218163E+03)
 number of electron     671.9999864 magnetization      48.0000019
 augmentation part      269.2648316 magnetization      26.2360762

 Broyden mixing:
  rms(total) = 0.14047E+02    rms(broyden)= 0.14043E+02
  rms(prec ) = 0.15838E+02
  weight for this iteration     100.00

 eigenvalues of (default mixing * dielectric matrix)
  average eigenvalue GAMMA=   0.3162
  0.3162

 Free energy of the ion-electron system (eV)
  ---------------------------------------------------
  alpha Z        PSCENC =      2652.81237852
  Ewald energy   TEWEN  =    -41956.42424908
  -Hartree energ DENC   =    -24986.07076115
  -exchange      EXHF   =         0.00000000
  -V(xc)+E(xc)   XCENC  =      3695.59610130
  PAW double counting   =     59833.90275176   -63258.59042436
  entropy T*S    EENTRO =        -0.08724329
  eigenvalues    EBANDS =    -10830.08286702
  atomic energy  EATOM  =     73862.19814772
  Solvation  Ediel_sol  =         0.00000000
  ---------------------------------------------------
  free energy    TOTEN  =      -986.74616560 eV

  energy without entropy =     -986.65892231  energy(sigma->0) =     -986.70254395


--------------------------------------------------------------------------------------------------------




--------------------------------------- Iteration      1(  14)  ---------------------------------------


    POTLOK:  cpu time    0.1719: real time    0.1721
    SETDIJ:  cpu time    5.0020: real time    5.0043
    EDDIAG:  cpu time    4.4083: real time    4.8215
  RMM-DIIS:  cpu time   17.7825: real time   17.8295
    ORTHCH:  cpu time    1.1566: real time    1.2398
       DOS:  cpu time    0.0014: real time    0.0014
    CHARGE:  cpu time    1.7997: real time    1.8019
    MIXING:  cpu time    0.0009: real time    0.0009
    --------------------------------------------
      LOOP:  cpu time   30.3234: real time   30.8714

 eigenvalue-minimisations  : 19325
 total energy-change (2. order) : 0.7055446E+02  (-0.1802566E+02)
 number of electron     671.9999725 magnetization      48.0000032
 augmentation part      246.4680123 magnetization      32.1504998

 Broyden mixing:
  rms(total) = 0.52552E+01    rms(broyden)= 0.52507E+01
  rms(prec ) = 0.56982E+01
  weight for this iteration     100.00

 eigenvalues of (default mixing * dielectric matrix)
  average eigenvalue GAMMA=   0.7271
  1.0985  0.3557

 Free energy of the ion-electron system (eV)
  ---------------------------------------------------
  alpha Z        PSCENC =      2652.81237852
  Ewald energy   TEWEN  =    -41956.42424908
  -Hartree energ DENC   =    -25600.49033785
  -exchange      EXHF   =         0.00000000
  -V(xc)+E(xc)   XCENC  =      3672.31902085
  PAW double counting   =     63202.80029785   -66684.57919514
  entropy T*S    EENTRO =        -0.00000000
  eigenvalues    EBANDS =    -10064.82776839
  atomic energy  EATOM  =     73862.19814772
  Solvation  Ediel_sol  =         0.00000000
  ---------------------------------------------------
  free energy    TOTEN  =      -916.19170551 eV

  energy without entropy =     -916.19170551  energy(sigma->0) =     -916.19170551


--------------------------------------------------------------------------------------------------------




--------------------------------------- Iteration      1(  15)  ---------------------------------------


    POTLOK:  cpu time    0.1649: real time    0.1650
    SETDIJ:  cpu time    5.0120: real time    5.0143
    EDDIAG:  cpu time    4.4132: real time    4.8270
  RMM-DIIS:  cpu time   18.0260: real time   18.0859
    ORTHCH:  cpu time    1.1599: real time    1.2406
       DOS:  cpu time    0.0015: real time    0.0015
    CHARGE:  cpu time    1.7949: real time    1.7995
    MIXING:  cpu time    0.0009: real time    0.0009
    --------------------------------------------
      LOOP:  cpu time   30.5733: real time   31.1347

 eigenvalue-minimisations  : 20205
 total energy-change (2. order) : 0.1456927E+02  (-0.2087265E+01)
 number of electron     671.9999745 magnetization      48.0000046
 augmentation part      249.6768577 magnetization      33.8388195

 Broyden mixing:
  rms(total) = 0.21759E+01    rms(broyden)= 0.21756E+01
  rms(prec ) = 0.22540E+01
  weight for this iteration     100.00

 eigenvalues of (default mixing * dielectric matrix)
  average eigenvalue GAMMA=   0.9356
  1.6797  0.3797  0.7476

 Free energy of the ion-electron system (eV)
  ---------------------------------------------------
  alpha Z        PSCENC =      2652.81237852
  Ewald energy   TEWEN  =    -41956.42424908
  -Hartree energ DENC   =    -25514.97158624
  -exchange      EXHF   =         0.00000000
  -V(xc)+E(xc)   XCENC  =      3705.87273661
  PAW double counting   =     67252.75814095   -70774.54828144
  entropy T*S    EENTRO =        -0.00000000
  eigenvalues    EBANDS =    -10129.31972298
  atomic energy  EATOM  =     73862.19814772
  Solvation  Ediel_sol  =         0.00000000
  ---------------------------------------------------
  free energy    TOTEN  =      -901.62243593 eV

  energy without entropy =     -901.62243593  energy(sigma->0) =     -901.62243593


--------------------------------------------------------------------------------------------------------




--------------------------------------- Iteration      1(  16)  ---------------------------------------


    POTLOK:  cpu time    0.1661: real time    0.1668
    SETDIJ:  cpu time    5.0571: real time    5.0619
    EDDIAG:  cpu time    4.4097: real time    4.8259
  RMM-DIIS:  cpu time   17.4522: real time   17.4936
    ORTHCH:  cpu time    1.1572: real time    1.2421
       DOS:  cpu time    0.0014: real time    0.0014
    CHARGE:  cpu time    1.7928: real time    1.7935
    MIXING:  cpu time    0.0010: real time    0.0010
    --------------------------------------------
      LOOP:  cpu time   30.0374: real time   30.5863

 eigenvalue-minimisations  : 19117
 total energy-change (2. order) :-0.1579722E+01  (-0.6325933E+00)
 number of electron     671.9999759 magnetization      48.0000052
 augmentation part      251.1402436 magnetization      33.9445221

 Broyden mixing:
  rms(total) = 0.14789E+01    rms(broyden)= 0.14784E+01
  rms(prec ) = 0.15643E+01
  weight for this iteration     100.00

 eigenvalues of (default mixing * dielectric matrix)
  average eigenvalue GAMMA=   0.9686
  2.0717  0.9007  0.3862  0.5159

 Free energy of the ion-electron system (eV)
  ---------------------------------------------------
  alpha Z        PSCENC =      2652.81237852
  Ewald energy   TEWEN  =    -41956.42424908
  -Hartree energ DENC   =    -25463.01237646
  -exchange      EXHF   =         0.00000000
  -V(xc)+E(xc)   XCENC  =      3706.74870026
  PAW double counting   =     70116.43971549   -73667.46056504
  entropy T*S    EENTRO =        -0.00000000
  eigenvalues    EBANDS =    -10154.50390981
  atomic energy  EATOM  =     73862.19814772
  Solvation  Ediel_sol  =         0.00000000
  ---------------------------------------------------
  free energy    TOTEN  =      -903.20215839 eV

  energy without entropy =     -903.20215839  energy(sigma->0) =     -903.20215839


--------------------------------------------------------------------------------------------------------




--------------------------------------- Iteration      1(  17)  ---------------------------------------


    POTLOK:  cpu time    0.1884: real time    0.1886
    SETDIJ:  cpu time    5.0633: real time    5.0656
    EDDIAG:  cpu time    4.3929: real time    4.8361
  RMM-DIIS:  cpu time   18.4508: real time   18.4643
    ORTHCH:  cpu time    1.1867: real time    1.2709
       DOS:  cpu time    0.0015: real time    0.0015
    CHARGE:  cpu time    1.7964: real time    1.7997
    MIXING:  cpu time    0.0019: real time    0.0019
    --------------------------------------------
      LOOP:  cpu time   31.0819: real time   31.6286

 eigenvalue-minimisations  : 20379
 total energy-change (2. order) : 0.1123190E+00  (-0.6393844E-01)
 number of electron     671.9999757 magnetization      48.0000057
 augmentation part      251.1075388 magnetization      33.9444346

 Broyden mixing:
  rms(total) = 0.78733E+00    rms(broyden)= 0.78721E+00
  rms(prec ) = 0.88938E+00
  weight for this iteration     100.00

 eigenvalues of (default mixing * dielectric matrix)
  average eigenvalue GAMMA=   0.9958
  2.2268  1.1256  0.3766  0.6901  0.5598

 Free energy of the ion-electron system (eV)
  ---------------------------------------------------
  alpha Z        PSCENC =      2652.81237852
  Ewald energy   TEWEN  =    -41956.42424908
  -Hartree energ DENC   =    -25453.46416876
  -exchange      EXHF   =         0.00000000
  -V(xc)+E(xc)   XCENC  =      3704.12593585
  PAW double counting   =     71014.40305741   -74574.28328015
  entropy T*S    EENTRO =        -0.00000000
  eigenvalues    EBANDS =    -10152.45766087
  atomic energy  EATOM  =     73862.19814772
  Solvation  Ediel_sol  =         0.00000000
  ---------------------------------------------------
  free energy    TOTEN  =      -903.08983936 eV

  energy without entropy =     -903.08983936  energy(sigma->0) =     -903.08983936


--------------------------------------------------------------------------------------------------------




--------------------------------------- Iteration      1(  18)  ---------------------------------------


    POTLOK:  cpu time    0.1714: real time    0.1717
    SETDIJ:  cpu time    5.0207: real time    5.0258
    EDDIAG:  cpu time    4.4230: real time    4.8407
  RMM-DIIS:  cpu time   17.7472: real time   17.7608
    ORTHCH:  cpu time    1.2302: real time    1.3107
       DOS:  cpu time    0.0011: real time    0.0011
    CHARGE:  cpu time    1.7971: real time    1.7980
    MIXING:  cpu time    0.0011: real time    0.0011
    --------------------------------------------
      LOOP:  cpu time   30.3918: real time   30.9099

 eigenvalue-minimisations  : 19122
 total energy-change (2. order) : 0.4202055E+00  (-0.6860164E-01)
 number of electron     671.9999752 magnetization      48.0000060
 augmentation part      250.5804986 magnetization      33.9040466

 Broyden mixing:
  rms(total) = 0.27938E+00    rms(broyden)= 0.27909E+00
  rms(prec ) = 0.29429E+00
  weight for this iteration     100.00

 eigenvalues of (default mixing * dielectric matrix)
  average eigenvalue GAMMA=   1.0193
  2.4561  1.3643  0.8509  0.3780  0.5832  0.4831

 Free energy of the ion-electron system (eV)
  ---------------------------------------------------
  alpha Z        PSCENC =      2652.81237852
[...]
   4      -0.959    -0.713     1.672     0.034     0.061     0.060
   5      -0.752    -0.715     1.467     0.128    -0.382     0.243
   6      -0.680    -0.898     1.578    -0.027    -0.009    -0.541
   7      -1.107    -0.882     1.989     0.012     0.056     0.017
   8      -0.806    -0.707     1.513     0.191     0.520    -0.267
   9      -0.986    -0.869     1.855     0.029    -0.013    -0.042
  10      -0.793    -0.629     1.422    -0.089     0.287     0.284
  11      -0.640    -0.885     1.524    -0.038    -0.051    -0.613
  12      -0.725    -0.619     1.344    -0.015     0.111    -0.089
  13      -0.877    -0.729     1.606    -0.091    -0.508    -0.251
  14      -0.641    -0.896     1.537    -0.067    -0.030     0.462
  15      -0.918    -0.837     1.755    -0.126     0.505     0.254
  16      -0.832    -0.570     1.401     0.102    -0.297     0.188
  17       1.554     1.391    -2.945    -0.075     0.014     0.028
  18       1.516     1.398    -2.915    -0.175     0.041     0.013
  19       1.491     1.416    -2.906    -0.160    -0.058     0.180
  20       1.582     1.349    -2.931    -0.111     0.009    -0.176
  21       1.356     1.516    -2.872     0.189     0.056    -0.074
  22       1.471     1.360    -2.831    -0.059    -0.123     0.108
  23       1.381     1.458    -2.840    -0.032    -0.108    -0.111
  24       1.343     1.486    -2.830    -0.090     0.118     0.069
  25      -0.177     0.519    -0.342    -0.121    -1.069    -0.961
  26       0.385    -0.387     0.002    -0.212    -0.394     0.260
  27      -0.117    -0.057     0.174    -0.133     1.624     0.251
  28       1.474     1.194    -2.668     0.813    -0.996     0.515
  29      -0.058    -0.730     0.789     0.098     0.261     0.116
  30       0.481    -1.300     0.820     0.842    -0.646    -0.763
  31       0.533    -0.754     0.221     0.793    -0.016     0.253
  32      -0.616     0.384     0.232     0.776     1.462     0.340
  33       0.846    -1.031     0.185    -0.314     0.814    -0.266
  34       0.117     0.857    -0.973    -0.726    -0.297     0.285
  35       1.245    -0.347    -0.898     0.362    -0.716     0.816
  36       0.112    -1.075     0.963    -0.920     0.290    -0.547
  37      -0.644     0.981    -0.337     0.212    -0.467    -0.290
  38       0.082    -0.057    -0.025    -0.214    -0.605     0.685
  39      -0.539     0.050     0.490     1.342     0.392     0.112
  40       0.418     0.837    -1.255    -0.844     0.219    -0.707
  41      -2.938     3.531    -0.593    -5.536     1.377    -4.907
  42      -5.114     4.781     0.332     4.705     3.377     3.619
  43       6.091    -5.798    -0.292     0.102    -4.542     1.499
  44      -1.887     2.113    -0.225     4.652    -1.179    -2.356
  45      -4.231     2.551     1.680    -3.933    -2.385     3.226
  46       7.093    -6.047    -1.045     0.322     4.065     1.625
  47      -1.672     1.408     0.264    -5.289     2.085    -3.448
  48       4.829    -6.668     1.839    -1.005    -4.535    -0.332
  49      -3.381     1.004     2.377     4.275     2.154     4.685
  50       3.832    -6.392     2.560     0.114     5.557     0.858
  51      -3.902     0.909     2.993    -4.231    -4.274     4.502
  52      -0.808     1.423    -0.614     6.357    -1.037    -3.610
  53      -2.958     3.842    -0.885    -4.706     2.632    -3.492
  54      -4.849     5.530    -0.681     4.992     2.202     3.398
  55       4.333    -5.452     1.120     1.326    -5.259     0.391
  56      -2.926     3.585    -0.659     5.561    -0.957    -3.778
  57      -2.739     4.134    -1.395    -5.511    -2.001     3.362
  58       5.738    -6.852     1.114     1.147     4.918    -0.096
  59      -1.040     0.004     1.036    -5.526     1.188    -4.690
  60       4.720    -7.301     2.581     0.317    -4.179     0.096
  61      -3.042     1.767     1.275     4.052     1.199     4.567
  62       5.232    -5.361     0.129     1.618     4.679     0.216
  63      -3.111     3.250    -0.138    -5.707    -2.680     4.502
  64      -2.838     2.182     0.656     5.645    -2.434    -4.041
  65      -1.717     2.073    -0.357    -5.685     2.751    -3.651
  66      -3.124     3.667    -0.542     5.272     0.361     3.135
  67       5.500    -5.484    -0.016    -1.423    -5.520    -0.522
  68      -3.132     2.975     0.157     4.743    -4.077    -3.202
  69      -3.004     2.287     0.717    -4.729    -2.241     3.618
  70       4.639    -4.826     0.187    -2.032     5.220    -0.738
  71      -2.593     1.493     1.100    -5.405     4.887    -3.694
  72       4.563    -6.386     1.823    -0.381    -3.672     1.157
  73      -4.315     3.428     0.887     4.108     2.770     4.040
  74       8.037    -6.381    -1.656    -0.270     2.732     1.672
  75      -5.447     2.671     2.776    -4.199    -3.394     3.285
  76      -3.358     3.622    -0.264     4.989    -1.633    -3.739
  77      -2.914     3.269    -0.355    -4.512     1.644    -4.365
  78      -3.019     1.560     1.459     5.057     1.348     4.319
  79       6.730    -6.006    -0.724     1.237    -4.988     0.681
  80      -1.083     4.021    -2.938     6.476    -1.592    -3.405
  81      -2.797     1.512     1.284    -4.932    -2.581     3.844
  82       3.708    -5.389     1.681    -0.012     4.890    -0.453
  83      -3.802     3.547     0.255    -5.776     1.138    -3.624
  84       6.165    -6.587     0.422    -0.351    -4.684    -0.357
  85      -4.008     3.764     0.243     4.419     2.848     3.766
  86       6.436    -7.761     1.325    -1.966     5.391    -0.981
  87      -2.942     2.429     0.513    -4.790    -1.298     3.870
  88      -2.882     2.450     0.432     5.508    -1.744    -4.589
 ---------------------------------------------------------------------


 Total hyperfine coupling parameters after diagonalization (MHz)
 (convention: |A_zz| > |A_xx| > |A_yy|)
 ----------------------------------------------------------------------
  ion      A_xx      A_yy      A_zz     asymmetry (A_yy - A_xx)/ A_zz 
 ----------------------------------------------------------------------
   1      -0.196     0.050     2.732       0.090
   2       1.743     1.434     3.937      -0.078
   3       1.998     1.717     4.318      -0.065
   4       0.271     0.017     2.656      -0.096
   5       2.188     1.847     4.345      -0.078
   6       2.583     2.248     4.952      -0.068
   7      -0.240    -0.012     2.859       0.080
   8       2.519     2.000     4.727      -0.110
   9       0.517     0.387     3.236      -0.040
  10       1.466     1.168     3.557      -0.084
  11       2.338     1.935     4.645      -0.087
  12       1.431     1.320     3.406      -0.032
  13       2.223     1.867     4.635      -0.077
  14       2.806     2.445     5.060      -0.071
  15       2.885     2.514     5.500      -0.067
  16       1.453     1.073     3.445      -0.110
  17      14.094     9.787    14.316      -0.301
  18      13.855     9.667    14.224      -0.294
  19      14.446    10.240    14.778      -0.285
  20      14.544    10.295    14.861      -0.286
  21      13.592     9.486    14.002      -0.293
  22      13.528     9.355    13.694      -0.305
  23      13.938     9.719    14.036      -0.301
  24      13.199     9.061    13.425      -0.308
  25      96.699    94.771    97.755      -0.020
  26      94.514    94.203    95.444      -0.003
  27      97.130    95.501    98.812      -0.016
  28      94.488    90.674    95.884      -0.040
  29      99.684    99.061   100.685      -0.006
  30      96.011    94.277    97.745      -0.018
  31      99.348    97.928   100.024      -0.014
  32      93.988    92.132    95.678      -0.019
  33      97.988    97.247    99.810      -0.007
  34      96.520    95.778    98.202      -0.008
  35      93.577    91.652    94.821      -0.020
  36      96.626    94.738    97.722      -0.019
  37      91.482    90.616    92.697      -0.009
  38      97.429    96.785    98.639      -0.007
  39     100.863    98.847   101.765      -0.020
  40      96.434    95.152    98.287      -0.013
  41       5.700     1.924    17.645      -0.214
  42       6.446     0.578    17.215      -0.341
  43       3.800    -0.399    14.414      -0.291
  44       3.715     0.002    11.213      -0.331
  45       4.351    -0.746    12.575      -0.405
  46       6.510     2.155    17.581      -0.248
  47       6.925     3.150    16.404      -0.230
  48       6.744     1.219    16.185      -0.341
  49       4.877     0.929    15.152      -0.261
  50       5.699     1.521    16.836      -0.248
  51       4.351     0.239    16.228      -0.253
  52       7.051     1.977    16.714      -0.304
  53       3.912     1.099    14.928      -0.188
  54       5.027     0.230    16.359      -0.293
  55       2.321    -1.186    12.982      -0.270
  56       7.271     2.918    17.620      -0.247
  57       4.323     1.426    15.933      -0.182
  58       7.078     1.987    17.903      -0.284
  59       8.721     2.817    17.554      -0.336
  60       7.686     1.024    16.306      -0.409
  61      -1.987     1.842    11.159       0.343
  62       5.489     2.342    16.182      -0.194
  63       4.336     0.870    16.796      -0.206
  64       5.415     1.030    16.177      -0.271
  65       6.650     3.540    17.880      -0.174
  66       5.302     0.355    14.237      -0.347
  67       3.282     0.098    15.150      -0.210
  68       5.826     1.080    16.072      -0.295
  69       6.165     2.273    15.717      -0.248
  70       3.409     1.265    14.970      -0.143
  71       7.918     3.300    19.732      -0.234
  72       9.111     3.198    16.928      -0.349
  73       4.642     0.451    15.043      -0.279
  74       6.284     1.046    16.799      -0.312
  75       7.703     0.612    16.359      -0.433
  76       3.830     0.063    14.221      -0.265
  77       3.451     0.817    14.386      -0.183
  78       6.010     0.831    15.190      -0.341
  79       4.613     0.956    16.693      -0.219
  80       3.996     2.143    17.374      -0.107
  81       4.166     0.070    14.049      -0.292
  82       3.367     0.195    13.324      -0.238
  83       5.921     0.221    15.707      -0.363
  84       4.756     0.264    15.693      -0.286
  85       3.344    -0.740    13.887      -0.294
  86       6.923     0.963    19.113      -0.312
  87       3.817    -0.432    12.985      -0.327
  88       4.647     0.334    15.572      -0.277
 ---------------------------------------------------------------------



--------------------------------------------------------------------------------------------------------


 stress matrix after NEB project (eV)
    -46.09901      0.53772     -1.14866
      0.53291    -48.00458      3.21442
     -1.14397      3.16769    -68.25546
  FORCES: max atom, RMS     2.126388    1.050367
  FORCE total and by dimension    9.853319    1.708123
  Stress total and by dimension   95.456452   68.255455
     LOOP+:  cpu time  785.9527: real time  802.3945
    4ORBIT:  cpu time    0.0000: real time    0.0000
 


 total charge     
 
# of ion       s       p       d       tot
------------------------------------------
    1        0.048   5.993   0.000   6.041
    2        0.051   5.993   0.000   6.044
    3        0.052   5.994   0.000   6.046
    4        0.048   5.992   0.000   6.040
    5        0.049   5.991   0.000   6.040
    6        0.050   5.991   0.000   6.041
    7        0.054   5.999   0.000   6.052
    8        0.052   5.994   0.000   6.047
    9        0.049   5.993   0.000   6.042
   10        0.048   5.991   0.000   6.039
   11        0.053   5.995   0.000   6.047
   12        0.054   5.999   0.000   6.053
   13        0.053   5.996   0.000   6.049
   14        0.053   5.995   0.000   6.048
   15        0.056   6.000   0.000   6.056
   16        0.053   5.996   0.000   6.050
   17        0.152   6.133   0.087   6.372
   18        0.152   6.133   0.088   6.373
   19        0.144   6.121   0.079   6.345
   20        0.145   6.121   0.079   6.345
   21        0.148   6.126   0.082   6.356
   22        0.142   6.116   0.074   6.332
   23        0.142   6.117   0.075   6.334
   24        0.144   6.120   0.078   6.343
   25        0.371   6.446   4.823  11.640
   26        0.395   6.500   4.867  11.762
   27        0.384   6.475   4.857  11.716
   28        0.382   6.468   4.848  11.698
   29        0.365   6.432   4.809  11.607
   30        0.369   6.436   4.813  11.618
   31        0.369   6.443   4.818  11.631
   32        0.385   6.476   4.845  11.706
   33        0.376   6.456   4.835  11.668
   34        0.365   6.435   4.811  11.611
   35        0.379   6.459   4.837  11.675
   36        0.366   6.436   4.797  11.599
   37        0.394   6.496   4.869  11.760
   38        0.364   6.429   4.802  11.594
   39        0.358   6.415   4.795  11.568
   40        0.376   6.456   4.832  11.664
   41        1.601   3.491   0.000   5.092
   42        1.604   3.520   0.000   5.124
   43        1.599   3.500   0.000   5.099
   44        1.594   3.500   0.000   5.094
   45        1.598   3.530   0.000   5.127
   46        1.601   3.495   0.000   5.096
   47        1.596   3.506   0.000   5.101
   48        1.600   3.536   0.000   5.136
   49        1.599   3.520   0.000   5.119
   50        1.600   3.542   0.000   5.143
   51        1.602   3.499   0.000   5.101
   52        1.599   3.514   0.000   5.113
   53        1.600   3.488   0.000   5.088
   54        1.601   3.481   0.000   5.082
   55        1.598   3.491   0.000   5.089
   56        1.600   3.511   0.000   5.111
   57        1.601   3.488   0.000   5.089
   58        1.602   3.551   0.000   5.153
   59        1.598   3.503   0.000   5.101
   60        1.598   3.531   0.000   5.130
   61        1.595   3.483   0.000   5.078
   62        1.600   3.509   0.000   5.109
   63        1.603   3.480   0.000   5.083
   64        1.597   3.502   0.000   5.099
   65        1.599   3.507   0.000   5.106
   66        1.600   3.517   0.000   5.117
   67        1.600   3.500   0.000   5.101
   68        1.600   3.495   0.000   5.095
   69        1.599   3.519   0.000   5.119
   70        1.599   3.512   0.000   5.111
   71        1.602   3.500   0.000   5.101
   72        1.598   3.519   0.000   5.117
   73        1.598   3.490   0.000   5.089
   74        1.598   3.499   0.000   5.097
   75        1.596   3.484   0.000   5.080
   76        1.597   3.482   0.000   5.079
   77        1.600   3.502   0.000   5.101
   78        1.597   3.503   0.000   5.100
   79        1.597   3.472   0.000   5.069
   80        1.602   3.470   0.000   5.072
   81        1.598   3.501   0.000   5.099
   82        1.597   3.512   0.000   5.109
   83        1.603   3.512   0.000   5.116
   84        1.598   3.502   0.000   5.100
   85        1.598   3.493   0.000   5.091
   86        1.600   3.469   0.000   5.069
   87        1.596   3.492   0.000   5.087
   88        1.600   3.489   0.000   5.089
--------------------------------------------------
tot         84.749 416.269  77.901 578.919
 


 magnetization (x)
 
# of ion       s       p       d       tot
------------------------------------------
    1        0.001   0.000   0.000   0.001
    2        0.002  -0.000   0.000   0.002
    3        0.002   0.000   0.000   0.002
    4        0.001   0.000   0.000   0.001
    5        0.002   0.000   0.000   0.002
    6        0.002   0.000   0.000   0.003
    7        0.001   0.000   0.000   0.001
    8        0.002   0.000   0.000   0.003
    9        0.001   0.001   0.000   0.002
   10        0.002   0.000   0.000   0.002
   11        0.002   0.000   0.000   0.002
   12        0.001   0.001   0.000   0.002
   13        0.002   0.000   0.000   0.002
   14        0.002   0.001   0.000   0.003
   15        0.002   0.001   0.000   0.003
   16        0.001   0.000   0.000   0.002
   17        0.007   0.002   0.001   0.010
   18        0.007   0.002   0.001   0.011
   19        0.007   0.002   0.001   0.011
   20        0.008   0.002   0.001   0.011
   21        0.007   0.002   0.001   0.010
   22        0.007   0.002   0.001   0.010
   23        0.007   0.002   0.001   0.011
   24        0.007   0.002   0.001   0.010
   25        0.015   0.030   2.767   2.812
   26        0.015   0.032   2.713   2.760
   27        0.016   0.031   2.737   2.783
   28        0.015   0.029   2.731   2.775
   29        0.016   0.030   2.783   2.829
   30        0.015   0.029   2.766   2.810
   31        0.016   0.030   2.769   2.816
   32        0.015   0.031   2.738   2.783
   33        0.016   0.030   2.757   2.804
   34        0.015   0.029   2.782   2.826
   35        0.014   0.030   2.745   2.789
   36        0.015   0.030   2.781   2.826
   37        0.014   0.031   2.718   2.762
   38        0.015   0.030   2.778   2.823
   39        0.016   0.030   2.797   2.843
   40        0.015   0.030   2.751   2.796
   41        0.002   0.045   0.000   0.047
   42        0.002   0.038   0.000   0.040
   43        0.002   0.018   0.000   0.019
   44        0.002   0.011   0.000   0.012
   45        0.001   0.025   0.000   0.027
   46        0.002   0.044   0.000   0.046
   47        0.002   0.048   0.000   0.050
   48        0.002   0.053   0.000   0.055
   49        0.002   0.033   0.000   0.035
   50        0.002   0.049   0.000   0.051
   51        0.002   0.028   0.000   0.030
   52        0.002   0.045   0.000   0.047
   53        0.002   0.018   0.000   0.019
   54        0.002   0.022   0.000   0.024
   55        0.001   0.014   0.000   0.015
   56        0.002   0.043   0.000   0.046
   57        0.002   0.023   0.000   0.025
   58        0.002   0.056   0.000   0.058
   59        0.002   0.050   0.000   0.053
   60        0.002   0.050   0.000   0.052
   61        0.001  -0.004   0.000  -0.002
   62        0.002   0.038   0.000   0.040
   63        0.002   0.023   0.000   0.025
   64        0.002   0.032   0.000   0.034
   65        0.002   0.049   0.000   0.051
   66        0.002   0.030   0.000   0.032
   67        0.002   0.019   0.000   0.021
   68        0.002   0.038   0.000   0.040
   69        0.002   0.042   0.000   0.044
   70        0.002   0.021   0.000   0.023
   71        0.003   0.048   0.000   0.050
   72        0.002   0.049   0.000   0.051
   73        0.002   0.024   0.000   0.026
   74        0.002   0.039   0.000   0.041
   75        0.002   0.038   0.000   0.040
   76        0.002   0.023   0.000   0.025
   77        0.002   0.020   0.000   0.022
   78        0.002   0.034   0.000   0.036
   79        0.002   0.024   0.000   0.026
   80        0.002   0.028   0.000   0.030
   81        0.002   0.019   0.000   0.020
   82        0.002   0.020   0.000   0.022
   83        0.002   0.032   0.000   0.034
   84        0.002   0.030   0.000   0.032
   85        0.002   0.017   0.000   0.018
   86        0.002   0.040   0.000   0.043
   87        0.002   0.020   0.000   0.021
   88        0.002   0.029   0.000   0.031
--------------------------------------------------
tot          0.421   2.038  44.122  46.581
 

 total amount of memory used by VASP MPI-rank0    94436. kBytes
=======================================================================

   base      :      30000. kBytes
   nonlr-proj:      13677. kBytes
   fftplans  :       1275. kBytes
   grid      :      22786. kBytes
   one-center:       2737. kBytes
   wavefun   :      23961. kBytes
 
  
  
 General timing and accounting informations for this job:
 ========================================================
  
                  Total CPU time used (sec):      807.028
                            User time (sec):      798.606
                          System time (sec):        8.422
                         Elapsed time (sec):      826.003
  
                   Maximum memory used (kb):      193764.
                   Average memory used (kb):           0.
  
                          Minor page faults:       301706
                          Major page faults:            0
                 Voluntary context switches:       275854
