 vasp.5.4.4.18Apr17-6-g9f103f2a35 (build Dec 02 2020 12:53:39) complex          
  
 executed on             LinuxIFC date 2021.08.05  07:13:03
 running on  112 total cores
 distrk:  each k-point on  112 cores,    1 groups
 distr:  one band on NCORES_PER_BAND=   1 cores,  112 groups


--------------------------------------------------------------------------------------------------------


 INCAR:
 POTCAR:    PAW_PBE Na_pv 19Sep2006               
 POTCAR:    PAW_PBE Mg_pv 13Apr2007               
 POTCAR:    PAW_PBE Mn_pv 02Aug2007               
 POTCAR:    PAW_PBE O 08Apr2002                   

 ----------------------------------------------------------------------------- 
|                                                                             |
|           W    W    AA    RRRRR   N    N  II  N    N   GGGG   !!!           |
|           W    W   A  A   R    R  NN   N  II  NN   N  G    G  !!!           |
|           W    W  A    A  R    R  N N  N  II  N N  N  G       !!!           |
|           W WW W  AAAAAA  RRRRR   N  N N  II  N  N N  G  GGG   !            |
|           WW  WW  A    A  R   R   N   NN  II  N   NN  G    G                |
|           W    W  A    A  R    R  N    N  II  N    N   GGGG   !!!           |
|                                                                             |
|      For optimal performance we recommend to set                            |
|        NCORE= 4 - approx SQRT( number of cores)                             |
|      NCORE specifies how many cores store one orbital (NPAR=cpu/NCORE).     |
|      This setting can  greatly improve the performance of VASP for DFT.     |
|      The default,   NCORE=1            might be grossly inefficient         |
|      on modern multi-core architectures or massively parallel machines.     |
|      Do your own testing !!!!                                               |
|      Unfortunately you need to use the default for GW and RPA calculations. |
|      (for HF NCORE is supported but not extensively tested yet)             |
|                                                                             |
 ----------------------------------------------------------------------------- 

 POTCAR:    PAW_PBE Na_pv 19Sep2006               
   VRHFIN =Na: p6s1                                                             
   LEXCH  = PE                                                                  
   EATOM  =   766.0439 eV,   56.3026 Ry                                         
                                                                                
   TITEL  = PAW_PBE Na_pv 19Sep2006                                             
   LULTRA =        F    use ultrasoft PP ?                                      
   IUNSCR =        1    unscreen: 0-lin 1-nonlin 2-no                           
   RPACOR =    1.800    partial core radius                                     
   POMASS =   22.990; ZVAL   =    7.000    mass and valenz                      
   RCORE  =    2.200    outmost cutoff radius                                   
   RWIGS  =    2.200; RWIGS  =    1.164    wigner-seitz radius (au A)           
   ENMAX  =  259.561; ENMIN  =  194.671 eV                                      
   ICORE  =        2    local potential                                         
   LCOR   =        T    correct aug charges                                     
   LPAW   =        T    paw PP                                                  
   EAUG   =  368.056                                                            
   DEXC   =    0.000                                                            
   RMAX   =    2.245    core radius for proj-oper                               
   RAUG   =    1.300    factor for augmentation sphere                          
   RDEP   =    2.259    radius for radial grids                                 
   RDEPT  =    1.738    core radius for aug-charge                              
                                                                                
   Atomic configuration                                                         
    5 entries                                                                   
     n  l   j            E        occ.                                          
     1  0  0.50     -1033.6933   2.0000                                         
     2  0  0.50       -56.7526   2.0000                                         
     2  1  1.50       -28.6721   6.0000                                         
     3  0  0.50        -2.7440   1.0000                                         
     3  2  1.50        -1.3606   0.0000                                         
   Description                                                                  
     l       E           TYP  RCUT    TYP  RCUT                                 
     1    -28.6720912     23  2.000                                             
     1      6.8029130     23  2.000                                             
     0     -2.7439560     23  2.200                                             
     0     34.0145650     23  2.200                                             
     2     -1.3605826     23  2.200                                             
  local pseudopotential read in
  partial core-charges read in
  partial kinetic energy density read in
  atomic valenz-charges read in
  non local Contribution for L=           1  read in
    real space projection operators read in
  non local Contribution for L=           1  read in
    real space projection operators read in
  non local Contribution for L=           0  read in
    real space projection operators read in
  non local Contribution for L=           0  read in
    real space projection operators read in
    PAW grid and wavefunctions read in
 
   number of l-projection  operators is LMAX  =           4
   number of lm-projection operators is LMMAX =           8
 
 POTCAR:    PAW_PBE Mg_pv 13Apr2007               
   VRHFIN =Mg: p6s2                                                             
   LEXCH  = PE                                                                  
   EATOM  =  1056.7344 eV,   77.6678 Ry                                         
                                                                                
   TITEL  = PAW_PBE Mg_pv 13Apr2007                                             
   LULTRA =        F    use ultrasoft PP ?                                      
   IUNSCR =        1    unscreen: 0-lin 1-nonlin 2-no                           
   RPACOR =    1.500    partial core radius                                     
   POMASS =   24.305; ZVAL   =    8.000    mass and valenz                      
   RCORE  =    2.000    outmost cutoff radius                                   
   RWIGS  =    2.000; RWIGS  =    1.058    wigner-seitz radius (au A)           
   ENMAX  =  403.929; ENMIN  =  302.947 eV                                      
   RCLOC  =    1.506    cutoff for local pot                                    
   LCOR   =        T    correct aug charges                                     
   LPAW   =        T    paw PP                                                  
   EAUG   =  758.780                                                            
   DEXC   =    0.000                                                            
   RMAX   =    2.045    core radius for proj-oper                               
   RAUG   =    1.300    factor for augmentation sphere                          
   RDEP   =    2.025    radius for radial grids                                 
   RDEPT  =    1.557    core radius for aug-charge                              
                                                                                
   Atomic configuration                                                         
    5 entries                                                                   
     n  l   j            E        occ.                                          
     1  0  0.50     -1259.6230   2.0000                                         
     2  0  0.50       -79.8442   2.0000                                         
     2  1  1.50       -46.6121   6.0000                                         
     3  0  0.50        -4.7055   2.0000                                         
     3  2  1.50        -1.3606   0.0000                                         
   Description                                                                  
     l       E           TYP  RCUT    TYP  RCUT                                 
     1    -46.6121073     23  1.600                                             
     1      2.7211652     23  1.600                                             
     0     -4.7054661     23  2.000                                             
     0     61.2262170     23  2.000                                             
     2     -1.3605826     23  2.000                                             
  local pseudopotential read in
  partial core-charges read in
  partial kinetic energy density read in
  atomic valenz-charges read in
  non local Contribution for L=           1  read in
    real space projection operators read in
  non local Contribution for L=           1  read in
    real space projection operators read in
  non local Contribution for L=           0  read in
    real space projection operators read in
  non local Contribution for L=           0  read in
    real space projection operators read in
  non local Contribution for L=           2  read in
    real space projection operators read in
    PAW grid and wavefunctions read in
 
   number of l-projection  operators is LMAX  =           5
   number of lm-projection operators is LMMAX =          13
 
 POTCAR:    PAW_PBE Mn_pv 02Aug2007               
   VRHFIN =Mn: 3p4s3d                                                           
   LEXCH  = PE                                                                  
   EATOM  =  2025.2664 eV,  148.8529 Ry                                         
                                                                                
   TITEL  = PAW_PBE Mn_pv 02Aug2007                                             
   LULTRA =        F    use ultrasoft PP ?                                      
   IUNSCR =        1    unscreen: 0-lin 1-nonlin 2-no                           
   RPACOR =    2.080    partial core radius                                     
   POMASS =   54.938; ZVAL   =   13.000    mass and valenz                      
   RCORE  =    2.300    outmost cutoff radius                                   
   RWIGS  =    2.500; RWIGS  =    1.323    wigner-seitz radius (au A)           
   ENMAX  =  269.864; ENMIN  =  202.398 eV                                      
   ICORE  =        3    local potential                                         
   LCOR   =        T    correct aug charges                                     
   LPAW   =        T    paw PP                                                  
   EAUG   =  569.085                                                            
   DEXC   =    0.000                                                            
   RMAX   =    2.343    core radius for proj-oper                               
   RAUG   =    1.300    factor for augmentation sphere                          
   RDEP   =    2.338    radius for radial grids                                 
   RDEPT  =    1.798    core radius for aug-charge                              
                                                                                
   Atomic configuration                                                         
    8 entries                                                                   
     n  l   j            E        occ.                                          
     1  0  0.50     -6424.8287   2.0000                                         
     2  0  0.50      -739.1154   2.0000                                         
     2  1  1.50      -625.3949   6.0000                                         
     3  0  0.50       -81.6100   2.0000                                         
     3  1  1.50       -50.4667   6.0000                                         
     3  2  2.50        -3.3745   6.0000                                         
     4  0  0.50        -4.1331   1.0000                                         
     4  3  2.50        -1.3606   0.0000                                         
   Description                                                                  
     l       E           TYP  RCUT    TYP  RCUT                                 
     1    -50.4666628     23  2.000                                             
     1     -1.3605826     23  2.000                                             
     2     -3.3744729     23  2.300                                             
     2     -4.7350555     23  2.300                                             
     0     -4.1331431     23  2.300                                             
     0      7.6656591     23  2.300                                             
     3      9.5240782     23  2.300                                             
  local pseudopotential read in
  partial core-charges read in
  partial kinetic energy density read in
  atomic valenz-charges read in
  non local Contribution for L=           1  read in
    real space projection operators read in
  non local Contribution for L=           1  read in
    real space projection operators read in
  non local Contribution for L=           2  read in
    real space projection operators read in
  non local Contribution for L=           2  read in
    real space projection operators read in
  non local Contribution for L=           0  read in
    real space projection operators read in
  non local Contribution for L=           0  read in
    real space projection operators read in
    PAW grid and wavefunctions read in
 
   number of l-projection  operators is LMAX  =           6
   number of lm-projection operators is LMMAX =          18
 
 POTCAR:    PAW_PBE O 08Apr2002                   
   VRHFIN =O: s2p4                                                              
   LEXCH  = PE                                                                  
   EATOM  =   432.3788 eV,   31.7789 Ry                                         
                                                                                
   TITEL  = PAW_PBE O 08Apr2002                                                 
   LULTRA =        F    use ultrasoft PP ?                                      
   IUNSCR =        1    unscreen: 0-lin 1-nonlin 2-no                           
   RPACOR =    1.200    partial core radius                                     
   POMASS =   16.000; ZVAL   =    6.000    mass and valenz                      
   RCORE  =    1.520    outmost cutoff radius                                   
   RWIGS  =    1.550; RWIGS  =    0.820    wigner-seitz radius (au A)           
   ENMAX  =  400.000; ENMIN  =  300.000 eV                                      
   ICORE  =        2    local potential                                         
   LCOR   =        T    correct aug charges                                     
   LPAW   =        T    paw PP                                                  
   EAUG   =  605.392                                                            
   DEXC   =    0.000                                                            
   RMAX   =    1.553    core radius for proj-oper                               
   RAUG   =    1.300    factor for augmentation sphere                          
   RDEP   =    1.550    radius for radial grids                                 
   RDEPT  =    1.329    core radius for aug-charge                              
                                                                                
   Atomic configuration                                                         
    4 entries                                                                   
     n  l   j            E        occ.                                          
     1  0  0.50      -514.6923   2.0000                                         
     2  0  0.50       -23.9615   2.0000                                         
     2  1  0.50        -9.0305   4.0000                                         
     3  2  1.50        -9.5241   0.0000                                         
   Description                                                                  
     l       E           TYP  RCUT    TYP  RCUT                                 
     0    -23.9615318     23  1.200                                             
     0     -9.5240782     23  1.200                                             
     1     -9.0304911     23  1.520                                             
     1      8.1634956     23  1.520                                             
     2     -9.5240782      7  1.500                                             
  local pseudopotential read in
  partial core-charges read in
  partial kinetic energy density read in
  kinetic energy density of atom read in
  atomic valenz-charges read in
  non local Contribution for L=           0  read in
    real space projection operators read in
  non local Contribution for L=           0  read in
    real space projection operators read in
  non local Contribution for L=           1  read in
    real space projection operators read in
  non local Contribution for L=           1  read in
    real space projection operators read in
    PAW grid and wavefunctions read in
 
   number of l-projection  operators is LMAX  =           4
   number of lm-projection operators is LMMAX =           8
 
 Optimization of the real space projectors (new method)

 maximal supplied QI-value         = 17.01
 optimisation between [QCUT,QGAM] = [ 10.20, 20.41] = [ 29.16,116.64] Ry 
 Optimized for a Real-space Cutoff    1.30 Angstroem

   l    n(q)    QCUT    max X(q) W(low)/X(q) W(high)/X(q)  e(spline) 
   1      7    10.205     4.940    0.23E-03    0.84E-03    0.11E-06
   1      7    10.205     6.253    0.40E-03    0.13E-02    0.18E-06
   0      8    10.205    37.438    0.23E-03    0.37E-03    0.42E-07
   0      8    10.205     9.606    0.16E-03    0.26E-03    0.31E-07
 Optimization of the real space projectors (new method)

 maximal supplied QI-value         = 18.90
 optimisation between [QCUT,QGAM] = [ 10.20, 20.41] = [ 29.16,116.64] Ry 
 Optimized for a Real-space Cutoff    1.26 Angstroem

   l    n(q)    QCUT    max X(q) W(low)/X(q) W(high)/X(q)  e(spline) 
   1      7    10.205     2.974    0.63E-04    0.14E-03    0.13E-06
   1      7    10.205     4.279    0.11E-03    0.45E-03    0.24E-06
   0      8    10.205    16.381    0.44E-03    0.15E-03    0.55E-07
   0      8    10.205     5.611    0.31E-03    0.11E-03    0.40E-07
   2      7    10.205     4.652    0.50E-03    0.47E-03    0.57E-07
 Optimization of the real space projectors (new method)

 maximal supplied QI-value         = 16.25
 optimisation between [QCUT,QGAM] = [ 10.24, 20.48] = [ 29.35,117.42] Ry 
 Optimized for a Real-space Cutoff    1.34 Angstroem

   l    n(q)    QCUT    max X(q) W(low)/X(q) W(high)/X(q)  e(spline) 
   1      8    10.239     3.658    0.23E-03    0.30E-03    0.98E-07
   1      8    10.239     5.612    0.32E-03    0.65E-03    0.21E-06
   2      7    10.239    55.373    0.42E-03    0.45E-03    0.65E-07
   2      7    10.239    50.863    0.43E-03    0.48E-03    0.67E-07
   0      8    10.239    79.536    0.11E-03    0.21E-03    0.56E-07
   0      8    10.239    38.668    0.96E-04    0.19E-03    0.52E-07
 Optimization of the real space projectors (new method)

 maximal supplied QI-value         = 24.76
 optimisation between [QCUT,QGAM] = [ 10.15, 20.30] = [ 28.85,115.39] Ry 
 Optimized for a Real-space Cutoff    1.38 Angstroem

   l    n(q)    QCUT    max X(q) W(low)/X(q) W(high)/X(q)  e(spline) 
   0      8    10.150    20.381    0.22E-03    0.32E-03    0.29E-06
   0      8    10.150    15.268    0.23E-03    0.35E-03    0.30E-06
   1      8    10.150     5.964    0.46E-03    0.53E-03    0.21E-06
   1      8    10.150     5.382    0.38E-03    0.45E-03    0.19E-06
  PAW_PBE Na_pv 19Sep2006               :
 energy of atom  1       EATOM= -766.0439
 kinetic energy error for atom=    0.0103 (will be added to EATOM!!)
  PAW_PBE Mg_pv 13Apr2007               :
 energy of atom  2       EATOM=-1056.7344
 kinetic energy error for atom=    0.0820 (will be added to EATOM!!)
  PAW_PBE Mn_pv 02Aug2007               :
 energy of atom  3       EATOM=-2025.2664
 kinetic energy error for atom=    0.0284 (will be added to EATOM!!)
  PAW_PBE O 08Apr2002                   :
 energy of atom  4       EATOM= -432.3788
 kinetic energy error for atom=    0.1156 (will be added to EATOM!!)
 
 
 POSCAR: Na Mg Mn  O                             
  positions in cartesian coordinates
  No initial velocities read in

 METAGGA = SCAN     LMAXTAU =  6    LMIXTAU =  F

 exchange correlation table for  LEXCH =        8
   RHO(1)=    0.500       N(1)  =     2000
   RHO(2)=  100.500       N(2)  =     4000

 VTST: version 3.2, (02/03/18)

 CHAIN: initializing optimizer
 
 OPT: Using VASP Dynamics algorithm
 CHAIN: Read ICHAIN            0
 
 POSCAR: Na Mg Mn  O                             
  positions in cartesian coordinates
  No initial velocities read in
 


--------------------------------------------------------------------------------------------------------


 ion  position               nearest neighbor table
   1  0.791  0.172  0.260-  63 2.30  62 2.36  88 2.38  53 2.38
   2  0.797  0.855  0.752-  72 2.30  69 2.33
   3  0.618  0.154  0.738-  56 2.20  59 2.29  81 2.38  31 2.79
   4  0.054  0.436  0.745-  60 2.24  57 2.29  58 2.33  61 2.35
   5  0.591  0.346  0.257-  52 2.24  43 2.30  42 2.33  51 2.36
   6  0.967  0.523  0.260-  75 2.35  64 2.37   9 2.74
   7  0.283  0.840  0.747-  70 2.31  84 2.37  83 2.37
   8  0.929  0.650  0.745-  68 2.28  57 2.29  73 2.34
   9  0.948  0.786  0.255-  66 2.16  75 2.31   6 2.74  34 2.93
  10  0.631  0.768  0.243-  65 2.17  74 2.20  78 2.27  33 2.89
  11  0.274  0.518  0.254-  87 2.26  32 2.75
  12  0.133  0.157  0.749-  47 2.26  44 2.30  27 2.80  25 2.91
  13  0.448  0.651  0.749-  85 2.31  45 2.31  82 2.37
  14  0.558  0.429  0.752-  48 2.30  49 2.30  46 2.37
  15  0.386  0.954  0.239-  77 2.17  86 2.35
  16  0.230  0.134  0.251-  76 2.12  67 2.28  41 2.38
  17  0.775  0.494  0.009-  71 1.98  66 2.02  53 2.04  43 2.06  49 2.07  60 2.20
  18  0.442  0.331  0.492-  52 1.98  45 2.04  50 2.06  44 2.09  46 2.10  51 2.14  35 2.84  28 2.85
                            31 2.85
  19  0.271  0.490  0.993-  48 2.00  55 2.01  61 2.05  83 2.10  41 2.10  78 2.18  37 2.84
  20  0.929  0.316  0.509-  56 1.99  57 2.03  58 2.06  64 2.06  63 2.13  62 2.16  40 2.82
  21  0.269  0.987  0.990-  84 2.04  47 2.04  67 2.10  73 2.11  77 2.13  42 2.23  34 2.83
  22  0.940  0.836  0.521-  69 1.98  70 2.01  74 2.07  68 2.13  75 2.13  76 2.15  27 2.82
  23  0.771  0.995  0.991-  54 2.01  72 2.05  65 2.05  59 2.07  85 2.07  79 2.14  30 2.82
  24  0.437  0.823  0.497-  86 2.00  80 2.03  81 2.06  88 2.06  82 2.08  87 2.10  32 2.83
  25  0.102  0.161  0.007-  54 1.88  61 1.91  47 1.92  67 1.93  72 1.93  41 1.95  30 2.83  26 2.88
                            34 2.90  12 2.91
  26  0.434  0.322  0.009-  47 1.90  41 1.91  49 1.92  43 1.94  42 1.94  48 1.94  29 2.85  25 2.88
                            33 2.90
  27  0.108  0.160  0.501-  69 1.89  58 1.90  50 1.90  76 1.93  63 1.99  44 1.99  12 2.80  22 2.82
                            36 2.89  32 2.93  40 2.96
  28  0.770  0.489  0.500-  52 1.84  46 1.84  75 1.88  62 1.91  68 1.91  57 1.96  18 2.85  35 2.86
                            31 2.88  39 2.89
  29  0.599  0.158  0.008-  79 1.84  49 1.89  53 1.92  84 1.98  42 1.99  59 2.03  26 2.85  38 2.91
                            30 2.94
  30  0.937  0.321  0.991-  61 1.87  59 1.92  54 1.93  60 1.95  55 2.02  53 2.04  23 2.82  25 2.83
                            37 2.88  29 2.94
  31  0.597  0.157  0.489-  51 1.82  46 1.91  81 1.93  56 1.98  88 1.99  62 1.99   3 2.79  36 2.82
                            18 2.85  28 2.88  40 2.92
  32  0.277  0.497  0.498-  45 1.89  80 1.90  64 1.90  87 1.91  58 1.92  50 1.99  11 2.75  24 2.83
                            35 2.87  27 2.93  39 2.93
  33  0.602  0.656  0.002-  65 1.87  43 1.92  78 1.94  85 1.95  71 1.97  48 1.97  38 2.87  10 2.89
                            26 2.90  34 2.96
  34  0.943  0.827  0.996-  67 1.90  72 1.91  65 1.95  66 1.95  73 1.99  71 2.01  21 2.83  25 2.90
                             9 2.93  37 2.94  33 2.96
  35  0.608  0.657  0.504-  82 1.85  45 1.88  74 1.93  52 1.95  87 1.96  68 1.97  18 2.84  28 2.86
                            32 2.87  40 2.90
  36  0.272  0.991  0.499-  70 1.86  86 1.87  44 1.88  81 1.88  76 1.95  51 2.03  31 2.82  39 2.87
                            27 2.89
  37  0.107  0.652  0.998-  60 1.83  55 1.83  73 1.86  77 1.88  83 1.92  66 1.95  19 2.84  30 2.88
                            38 2.89  34 2.94
  38  0.439  0.823  0.997-  78 1.87  77 1.91  83 1.93  79 1.93  84 1.93  85 1.93  33 2.87  37 2.89
                            29 2.91
  39  0.103  0.660  0.507-  75 1.83  86 1.92  57 1.94  80 1.97  64 1.98  70 2.01  36 2.87  28 2.89
                            32 2.93
  40  0.767  0.991  0.497-  63 1.85  56 1.86  88 1.86  69 1.99  82 2.02  74 2.04  20 2.82  35 2.90
                            31 2.92  27 2.96
  41  0.271  0.318  0.101-  26 1.91  25 1.95  19 2.10  16 2.38
  42  0.442  0.169  0.110-  26 1.94  29 1.99  21 2.23   5 2.33
  43  0.594  0.493  0.098-  33 1.92  26 1.94  17 2.06   5 2.30
  44  0.273  0.148  0.591-  36 1.88  27 1.99  18 2.09  12 2.30
  45  0.440  0.503  0.588-  35 1.88  32 1.89  18 2.04  13 2.31
  46  0.621  0.325  0.585-  28 1.84  31 1.91  18 2.10  14 2.37
  47  0.269  0.173  0.914-  26 1.90  25 1.92  21 2.04  12 2.26
  48  0.443  0.484  0.907-  26 1.94  33 1.97  19 2.00  14 2.30
  49  0.593  0.316  0.918-  29 1.89  26 1.92  17 2.07  14 2.30
  50  0.257  0.320  0.403-  27 1.90  32 1.99  18 2.06
  51  0.445  0.149  0.395-  31 1.82  36 2.03  18 2.14   5 2.36
  52  0.622  0.501  0.410-  28 1.84  35 1.95  18 1.98   5 2.24
  53  0.769  0.313  0.098-  29 1.92  30 2.04  17 2.04   1 2.38
  54  0.939  0.163  0.088-  25 1.88  30 1.93  23 2.01
  55  0.103  0.496  0.086-  37 1.83  19 2.01  30 2.02
  56  0.750  0.138  0.587-  40 1.86  31 1.98  20 1.99   3 2.20
  57  0.936  0.496  0.597-  39 1.94  28 1.96  20 2.03   4 2.29   8 2.29
  58  0.120  0.328  0.588-  27 1.90  32 1.92  20 2.06   4 2.33
  59  0.766  0.172  0.899-  30 1.92  29 2.03  23 2.07   3 2.29
  60  0.963  0.500  0.904-  37 1.83  30 1.95  17 2.20   4 2.24
  61  0.091  0.309  0.906-  30 1.87  25 1.91  19 2.05   4 2.35
  62  0.761  0.333  0.398-  28 1.91  31 1.99  20 2.16   1 2.36
  63  0.929  0.137  0.407-  40 1.85  27 1.99  20 2.13   1 2.30
  64  0.108  0.493  0.417-  32 1.90  39 1.98  20 2.06   6 2.37
  65  0.768  0.816  0.082-  33 1.87  34 1.95  23 2.05  10 2.17
  66  0.954  0.671  0.094-  37 1.95  34 1.95  17 2.02   9 2.16
  67  0.094  0.989  0.091-  34 1.90  25 1.93  21 2.10  16 2.28
  68  0.758  0.635  0.603-  28 1.91  35 1.97  22 2.13   8 2.28
  69  0.943  0.016  0.597-  27 1.89  22 1.98  40 1.99   2 2.33
  70  0.123  0.841  0.599-  36 1.86  39 2.01  22 2.01   7 2.31
  71  0.767  0.653  0.909-  33 1.97  17 1.98  34 2.01
  72  0.953  0.995  0.908-  34 1.91  25 1.93  23 2.05   2 2.30
  73  0.092  0.794  0.901-  37 1.86  34 1.99  21 2.11   8 2.34
  74  0.768  0.815  0.407-  35 1.93  40 2.04  22 2.07  10 2.20
  75  0.941  0.653  0.424-  39 1.83  28 1.88  22 2.13   9 2.31   6 2.35
  76  0.115  0.004  0.405-  27 1.93  36 1.95  16 2.12  22 2.15
  77  0.270  0.806  0.088-  37 1.88  38 1.91  21 2.13  15 2.17
  78  0.453  0.679  0.095-  38 1.87  33 1.94  19 2.18  10 2.27
  79  0.589  0.995  0.090-  29 1.84  38 1.93  23 2.14
  80  0.267  0.649  0.593-  32 1.90  39 1.97  24 2.03
  81  0.437  0.002  0.588-  36 1.88  31 1.93  24 2.06   3 2.38
  82  0.607  0.812  0.594-  35 1.85  40 2.02  24 2.08  13 2.37
  83  0.273  0.673  0.901-  37 1.92  38 1.93  19 2.10   7 2.37
  84  0.449  0.989  0.904-  38 1.93  29 1.98  21 2.04   7 2.37
  85  0.594  0.811  0.902-  38 1.93  33 1.95  23 2.07  13 2.31
  86  0.261  0.825  0.414-  36 1.87  39 1.92  24 2.00  15 2.35
  87  0.443  0.646  0.403-  32 1.91  35 1.96  24 2.10  11 2.26
  88  0.617  0.995  0.402-  40 1.86  31 1.99  24 2.06   1 2.38
 
  LATTYP: Found a hexagonal cell.
 ALAT       =    10.0190000534
 C/A-ratio  =     1.1196726572
  
  Lattice vectors:
  
 A1 = (  10.0190000534,   0.0000000000,   0.0000000000)
 A2 = (  -5.0095000267,   8.6767085668,   0.0000000000)
 A3 = (   0.0000000000,   0.0000000000,  11.2180004120)


Analysis of symmetry for initial positions (statically):
=====================================================================
 Subroutine PRICEL returns:
 Original cell was already a primitive cell.
 

 Routine SETGRP: Setting up the symmetry group for a 
 hexagonal supercell.


 Subroutine GETGRP returns: Found  1 space group operations
 (whereof  1 operations were pure point group operations)
 out of a pool of 24 trial point group operations.


The static configuration has the point symmetry C_1 .


Analysis of symmetry for dynamics (positions and initial velocities):
=====================================================================
 Subroutine PRICEL returns:
 Original cell was already a primitive cell.
 

 Routine SETGRP: Setting up the symmetry group for a 
 hexagonal supercell.


 Subroutine GETGRP returns: Found  1 space group operations
 (whereof  1 operations were pure point group operations)
 out of a pool of 24 trial point group operations.


The dynamic configuration has the point symmetry C_1 .


Analysis of structural, dynamic, and magnetic symmetry:
=====================================================================
 Subroutine PRICEL returns:
 Original cell was already a primitive cell.
 

 Routine SETGRP: Setting up the symmetry group for a 
 hexagonal supercell.


 Subroutine GETGRP returns: Found  1 space group operations
 (whereof  1 operations were pure point group operations)
 out of a pool of 24 trial point group operations.


The magnetic configuration has the point symmetry C_1 .


 Subroutine INISYM returns: Found  1 space group operations
 (whereof  1 operations are pure point group operations),
 and found     1 'primitive' translations

 
 

Automatic generation of k-mesh.
 generate k-points for:    2    2    2
Space group operators:
 irot       det(A)        alpha          n_x          n_y          n_z        tau_x        tau_y        tau_z
    1     1.000000     0.000000     1.000000     0.000000     0.000000     0.000000     0.000000     0.000000
 
 Subroutine IBZKPT returns following result:
 ===========================================
 
 Found      8 irreducible k-points:
 
 Following reciprocal coordinates:
            Coordinates               Weight
  0.000000  0.000000  0.000000      1.000000
  0.500000 -0.000000 -0.000000      1.000000
  0.000000  0.500000  0.000000      1.000000
  0.500000  0.500000 -0.000000      1.000000
  0.000000  0.000000  0.500000      1.000000
  0.500000 -0.000000  0.500000      1.000000
  0.000000  0.500000  0.500000      1.000000
  0.500000  0.500000  0.500000      1.000000
 
 Following cartesian coordinates:
            Coordinates               Weight
  0.000000  0.000000  0.000000      1.000000
  0.049905  0.028813 -0.000000      1.000000
  0.000000  0.057626  0.000000      1.000000
  0.049905  0.086438 -0.000000      1.000000
  0.000000  0.000000  0.044571      1.000000
  0.049905  0.028813  0.044571      1.000000
  0.000000  0.057626  0.044571      1.000000
  0.049905  0.086438  0.044571      1.000000
 


--------------------------------------------------------------------------------------------------------




 Dimension of arrays:
   k-points           NKPTS =      8   k-points in BZ     NKDIM =      8   number of bands    NBANDS=    448
   number of dos      NEDOS =    301   number of ions     NIONS =     88
   non local maximal  LDIM  =      6   non local SUM 2l+1 LMDIM =     18
   total plane-waves  NPLWV = 140000
   max r-space proj   IRMAX =   1632   max aug-charges    IRDMAX=   4555
   dimension x,y,z NGX =    50 NGY =   50 NGZ =   56
   dimension x,y,z NGXF=   100 NGYF=  100 NGZF=  112
   support grid    NGXF=   100 NGYF=  100 NGZF=  112
   ions per type =              16   8  16  48
   NGX,Y,Z   is equivalent  to a cutoff of   8.30,  8.30,  8.30 a.u.
   NGXF,Y,Z  is equivalent  to a cutoff of  16.59, 16.59, 16.60 a.u.

 SYSTEM =  unknown system                          
 POSCAR =  Na Mg Mn  O                             

 Startparameter for this run:
   NWRITE =      2    write-flag & timer
   PREC   = normal    normal or accurate (medium, high low for compatibility)
   ISTART =      0    job   : 0-new  1-cont  2-samecut
   ICHARG =      1    charge: 1-file 2-atom 10-const
   ISPIN  =      2    spin polarized calculation?
   LNONCOLLINEAR =      F non collinear calculations
   LSORBIT =      F    spin-orbit coupling
   INIWAV =      1    electr: 0-lowe 1-rand  2-diag
   LASPH  =      T    aspherical Exc in radial PAW
   METAGGA=      F    non-selfconsistent MetaGGA calc.

 Electronic Relaxation 1
   ENCUT  =  400.0 eV  29.40 Ry    5.42 a.u.  16.34 16.34 18.29*2*pi/ulx,y,z
   ENINI  =  400.0     initial cutoff
   ENAUG  =  758.8 eV  augmentation charge cutoff
   NELM   =    200;   NELMIN=  6; NELMDL=-12     # of ELM steps 
   EDIFF  = 0.1E-04   stopping-criterion for ELM
   LREAL  =      T    real-space projection
   NLSPLINE    = F    spline interpolate recip. space projectors
   LCOMPAT=      F    compatible to vasp.4.4
   GGA_COMPAT  = T    GGA compatible to vasp.4.4-vasp.4.6
   LMAXPAW     = -100 max onsite density
   LMAXMIX     =    4 max onsite mixed and CHGCAR
   VOSKOWN=      0    Vosko Wilk Nusair interpolation
   ROPT   =   -0.00050  -0.00050  -0.00050  -0.00050
 Ionic relaxation
   EDIFFG = 0.1E-03   stopping-criterion for IOM
   NSW    =      1    number of steps for IOM
   NBLOCK =      1;   KBLOCK =      1    inner block; outer block 
   IBRION =     -1    ionic relax: 0-MD 1-quasi-New 2-CG
   NFREE  =      0    steps in history (QN), initial steepest desc. (CG)
   ISIF   =      2    stress and relaxation
   IWAVPR =     10    prediction:  0-non 1-charg 2-wave 3-comb
   ISYM   =      2    0-nonsym 1-usesym 2-fastsym
   LCORR  =      T    Harris-Foulkes like correction to forces

   POTIM  = 0.5000    time-step for ionic-motion
   TEIN   =    0.0    initial temperature
   TEBEG  =    0.0;   TEEND  =   0.0 temperature during run
   SMASS  =  -3.00    Nose mass-parameter (am)
   estimated Nose-frequenzy (Omega)   =  0.10E-29 period in steps =****** mass=  -0.229E-26a.u.
   SCALEE = 1.0000    scale energy and forces
   NPACO  =    256;   APACO  = 16.0  distance and # of slots for P.C.
   PSTRESS=    0.0 pullay stress

  Mass of Ions in am
   POMASS =  22.99 24.30 54.94 16.00
  Ionic Valenz
   ZVAL   =   7.00  8.00 13.00  6.00
  Atomic Wigner-Seitz radii
   RWIGS  =  -1.00 -1.00 -1.00 -1.00
  virtual crystal weights 
   VCA    =   1.00  1.00  1.00  1.00
   NELECT =     672.0000    total number of electrons
   NUPDOWN=      48.0000    fix difference up-down

 DOS related values:
   EMIN   =  10.00;   EMAX   =-10.00  energy-range for DOS
   EFERMI =   0.00
   ISMEAR =     0;   SIGMA  =   0.05  broadening in eV -4-tet -1-fermi 0-gaus

 Electronic relaxation 2 (details)
   IALGO  =     48    algorithm
   LDIAG  =      T    sub-space diagonalisation (order eigenvalues)
   LSUBROT=      F    optimize rotation matrix (better conditioning)
   TURBO    =      0    0=normal 1=particle mesh
   IRESTART =      0    0=no restart 2=restart with 2 vectors
   NREBOOT  =      0    no. of reboots
   NMIN     =      0    reboot dimension
   EREF     =   0.00    reference energy to select bands
   IMIX   =      4    mixing-type and parameters
     AMIX     =   0.40;   BMIX     =  1.00
     AMIX_MAG =   1.60;   BMIX_MAG =  1.00
     AMIN     =   0.10
     WC   =   100.;   INIMIX=   1;  MIXPRE=   1;  MAXMIX= -45

 Intra band minimization:
   WEIMIN = 0.0000     energy-eigenvalue tresh-hold
   EBREAK =  0.56E-08  absolut break condition
   DEPER  =   0.30     relativ break condition  

   TIME   =   0.40     timestep for ELM

  volume/ion in A,a.u.               =      11.08        74.78
  Fermi-wavevector in a.u.,A,eV,Ry     =   1.445993  2.732531 28.448379  2.090897
  Thomas-Fermi vector in A             =   2.564112
 
 Write flags
   LWAVE        =      F    write WAVECAR
   LDOWNSAMPLE  =      F    k-point downsampling of WAVECAR
   LCHARG       =      F    write CHGCAR
   LVTOT        =      F    write LOCPOT, total local potential
   LVHAR        =      F    write LOCPOT, Hartree potential only
   LELF         =      F    write electronic localiz. function (ELF)
   LORBIT       =     11    0 simple, 1 ext, 2 COOP (PROOUT), +10 PAW based schemes


 Dipole corrections
   LMONO  =      F    monopole corrections only (constant potential shift)
   LDIPOL =      F    correct potential (dipole corrections)
   IDIPOL =      0    1-x, 2-y, 3-z, 4-all directions 
   EPSILON=  1.0000000 bulk dielectric constant

 Exchange correlation treatment:
   GGA     =    --    GGA type
   LEXCH   =     8    internal setting for exchange type
   VOSKOWN=      0    Vosko Wilk Nusair interpolation
   LHFCALC =     F    Hartree Fock is set to
   LHFONE  =     F    Hartree Fock one center treatment
   AEXX    =    0.0000 exact exchange contribution

 Linear response parameters
   LEPSILON=     F    determine dielectric tensor
   LRPA    =     F    only Hartree local field effects (RPA)
   LNABLA  =     F    use nabla operator in PAW spheres
   LVEL    =     F    velocity operator in full k-point grid
   LINTERFAST=   F  fast interpolation
   KINTER  =     0    interpolate to denser k-point grid
   CSHIFT  =0.1000    complex shift for real part using Kramers Kronig
   OMEGAMAX=  -1.0    maximum frequency
   DEG_THRESHOLD= 0.2000000E-02 threshold for treating states as degnerate
   RTIME   =   -0.100 relaxation time in fs
  (WPLASMAI=    0.000 imaginary part of plasma frequency in eV, 0.658/RTIME)
   DFIELD  = 0.0000000 0.0000000 0.0000000 field for delta impulse in time
 
 Orbital magnetization related:
   ORBITALMAG=     F  switch on orbital magnetization
   LCHIMAG   =     F  perturbation theory with respect to B field
   DQ        =  0.001000  dq finite difference perturbation B field
   LLRAUG    =     F  two centre corrections for induced B field



--------------------------------------------------------------------------------------------------------


 Static calculation
 charge density and potential will be updated during run
 spin polarized calculation
 RMM-DIIS sequential band-by-band
 perform sub-space diagonalisation
    before iterative eigenvector-optimisation
 modified Broyden-mixing scheme, WC =      100.0
 initial mixing is a Kerker type mixing with AMIX =  0.4000 and BMIX =      1.0000
 Hartree-type preconditioning will be used
 using additional bands          112
 real space projection scheme for non local part
 use partial core corrections
 calculate Harris-corrections to forces 
   (improved forces if not selfconsistent)
 use gradient corrections 
 use of overlap-Matrix (Vanderbilt PP)
 Gauss-broadening in eV      SIGMA  =   0.05


--------------------------------------------------------------------------------------------------------


  energy-cutoff  :      400.00
  volume of cell :      975.20
      direct lattice vectors                 reciprocal lattice vectors
    10.019000053  0.000000000  0.000000000     0.099810360  0.057625538 -0.000000000
    -5.009500027  8.676708567  0.000000000     0.000000000  0.115251076  0.000000000
     0.000000000  0.000000000 11.218000412     0.000000000  0.000000000  0.089142446

  length of vectors
    10.019000053 10.019000053 11.218000412     0.115251076  0.115251076  0.089142446


 
 k-points in units of 2pi/SCALE and weight: read from INCAR                         
   0.00000000  0.00000000  0.00000000       0.125
   0.04990518  0.02881277 -0.00000000       0.125
   0.00000000  0.05762554  0.00000000       0.125
   0.04990518  0.08643831 -0.00000000       0.125
   0.00000000  0.00000000  0.04457122       0.125
   0.04990518  0.02881277  0.04457122       0.125
   0.00000000  0.05762554  0.04457122       0.125
   0.04990518  0.08643831  0.04457122       0.125
 
 k-points in reciprocal lattice and weights: read from INCAR                         
   0.00000000  0.00000000  0.00000000       0.125
   0.50000000 -0.00000000 -0.00000000       0.125
   0.00000000  0.50000000  0.00000000       0.125
   0.50000000  0.50000000 -0.00000000       0.125
   0.00000000  0.00000000  0.50000000       0.125
   0.50000000 -0.00000000  0.50000000       0.125
   0.00000000  0.50000000  0.50000000       0.125
   0.50000000  0.50000000  0.50000000       0.125
 
 position of ions in fractional coordinates (direct lattice) 
   0.79095009  0.17171949  0.25962114
   0.79690043  0.85520415  0.75237384
   0.61779695  0.15398894  0.73753786
   0.05392080  0.43557893  0.74489478
   0.59054654  0.34597978  0.25659831
   0.96743295  0.52298847  0.25993135
   0.28302201  0.84000352  0.74675430
   0.92858838  0.65036973  0.74470491
   0.94774402  0.78635545  0.25474237
   0.63103137  0.76798147  0.24305847
   0.27446364  0.51838535  0.25385986
   0.13251090  0.15734637  0.74927346
   0.44775155  0.65134706  0.74869671
   0.55790828  0.42922102  0.75176678
   0.38583192  0.95415707  0.23874308
   0.22956598  0.13432908  0.25134604
   0.77453671  0.49357887  0.00942690
   0.44191172  0.33104373  0.49200569
   0.27101866  0.48985626  0.99323405
   0.92881967  0.31568307  0.50902655
   0.26879781  0.98749081  0.98985292
   0.93979901  0.83617652  0.52070777
   0.77067126  0.99541778  0.99101507
   0.43673120  0.82345741  0.49682740
   0.10240059  0.16091256  0.00687551
   0.43380301  0.32201266  0.00861565
   0.10817200  0.15981521  0.50095826
   0.76970207  0.48927539  0.49990103
   0.59857219  0.15842314  0.00756595
   0.93688721  0.32060544  0.99145120
   0.59666687  0.15719440  0.48924316
   0.27736722  0.49715165  0.49815117
   0.60195751  0.65559883  0.00171724
   0.94285516  0.82704979  0.99646393
   0.60790822  0.65740943  0.50415848
   0.27189408  0.99060720  0.49909073
   0.10651884  0.65226116  0.99849043
   0.43937242  0.82331335  0.99731203
   0.10251406  0.66021925  0.50658761
   0.76698663  0.99112468  0.49742287
   0.27114818  0.31797657  0.10084863
   0.44200394  0.16949745  0.11001248
   0.59370229  0.49304987  0.09778659
   0.27299383  0.14758263  0.59094578
   0.43961444  0.50268831  0.58846049
   0.62092746  0.32498498  0.58545817
   0.26927500  0.17300454  0.91417362
   0.44316664  0.48366036  0.90749685
   0.59346378  0.31622590  0.91840788
   0.25682047  0.32041067  0.40267961
   0.44512033  0.14905092  0.39498394
   0.62216653  0.50136869  0.41010785
   0.76889025  0.31334693  0.09810126
   0.93929690  0.16298346  0.08821349
   0.10279762  0.49636679  0.08629229
   0.74969257  0.13755463  0.58740326
   0.93574112  0.49618931  0.59698340
   0.12024298  0.32841370  0.58796664
   0.76635692  0.17163190  0.89881437
   0.96310902  0.50006174  0.90354784
   0.09130679  0.30872997  0.90618645
   0.76144301  0.33284511  0.39793010
   0.92936633  0.13658076  0.40721696
   0.10829813  0.49279747  0.41732660
   0.76805461  0.81640866  0.08234854
   0.95390593  0.67116349  0.09394901
   0.09364538  0.98939476  0.09130148
   0.75810868  0.63549674  0.60290156
   0.94297798  0.01634622  0.59684077
   0.12292917  0.84145272  0.59865214
   0.76718398  0.65284087  0.90928861
   0.95316108  0.99483000  0.90845067
   0.09172169  0.79434269  0.90115882
   0.76782575  0.81498877  0.40672489
   0.94128030  0.65322235  0.42440986
   0.11503917  0.00374237  0.40487251
   0.26970176  0.80625850  0.08775869
   0.45252455  0.67914232  0.09520235
   0.58861091  0.99539588  0.09012034
   0.26735359  0.64877366  0.59275805
   0.43713303  0.00193869  0.58762879
   0.60738321  0.81249473  0.59383845
   0.27267901  0.67295219  0.90090922
   0.44881472  0.98934059  0.90383309
   0.59359833  0.81095152  0.90223744
   0.26079916  0.82459264  0.41428061
   0.44329566  0.64583476  0.40280262
   0.61680956  0.99510430  0.40220626
 
 position of ions in cartesian coordinates  (Angst):
   7.06430024  1.48995997  2.91243000
   3.70000024  7.42035717  8.44013000
   5.41830011  1.33611713  8.27370000
  -1.64180013  3.77939143  8.35623000
   4.18350011  3.00196573  2.87852000
   7.07279997  4.53781857  2.91591000
  -1.37240016  7.28846573  8.37709000
   6.04549987  5.64306857  8.35410000
   5.55619976  6.82297710  2.85770000
   2.47510011  6.66355140  2.72663000
   0.15299981  4.49787857  2.84780000
   0.53940011  1.36524860  8.40535000
   1.22309968  5.65154860  8.39888000
   3.43950040  3.72422570  8.43332000
  -0.91419987  8.27894283  2.67822000
   1.62710000  1.16553427  2.81960000
   5.28750000  4.28264000  0.10575100
   2.76915000  2.87237000  5.51932000
   0.26140100  4.25034000 11.14210000
   7.72443000  2.73909000  5.71026000
  -2.25375000  8.56817000 11.10417041
   5.22702000  7.25526000  5.84130000
   2.73481000  8.63695000 11.11720741
   0.25050000  7.14490000  5.57341000
   0.21985997  1.39619143  0.07712950
   2.73315000  2.79401000  0.09665040
   0.28318100  1.38667000  5.61975000
   5.26062000  4.24530000  5.60789000
   5.20347403  1.37459143  0.08487480
   7.78060000  2.78180000 11.12210000
   5.19054000  1.36393000  5.48833000
   0.28846100  4.31364000  5.58826000
   2.74679000  5.68844000  0.01926400
   5.30336000  7.17607000 11.17833281
   2.79734000  5.70415000  5.65565000
  -2.23834000  8.59521000  5.59880000
  -2.20029000  5.65948000 11.20106611
   0.27768400  7.14365000 11.18784671
  -2.28028000  5.72853000  5.68290000
   2.71940000  8.59970000  5.58009000
   1.12373000  2.75899000  1.13132000
   3.57934000  1.47068000  1.23412000
   3.47837000  4.27805000  1.09697000
   1.99581003  1.28053143  6.62923000
   1.88628000  4.36168000  6.60135000
   4.59306000  2.81980000  6.56767000
   1.83120000  1.50111000 10.25520000
   2.01719000  4.19658000 10.18030000
   4.36178000  2.74380000 10.30270000
   0.96798700  2.78011000  4.51726000
   3.71299003  1.29327143  4.43093000
   3.72188000  4.35023000  4.60059000
   6.13380000  2.71882000  1.10050000
   8.59435000  1.41416000  0.98957900
  -1.45662005  4.30683000  0.96802700
   6.82209003  1.19352143  6.58949000
   6.88953000  4.30529000  6.69696000
  -0.44047400  2.84955000  6.59581000
   6.81834000  1.48920000 10.08290000
   7.14433000  4.33889000 10.13600000
  -0.63178005  2.67876000 10.16560000
   5.96151000  2.88800000  4.46398000
   8.62712003  1.18507143  4.56816000
  -1.38363000  4.27586000  4.68157000
   3.60534000  7.08374000  0.92378600
   6.19499000  5.82349000  1.05392000
  -4.01814005  8.58469000  1.02422000
   4.41197000  5.51402000  6.76335000
   9.36581003  0.14183143  6.69536000
  -2.98363000  7.30104000  6.71568000
   4.41601000  5.66451000 10.20040000
   4.56612000  8.63185000 10.19100000
  -3.06030005  6.89228000 10.10920000
   3.61016000  7.07142000  4.56264000
   6.15837000  5.66782000  4.76103000
   1.13383003  0.03247143  4.54186000
  -1.33681000  6.99567000  0.98447700
   1.13168000  5.89272000  1.06798000
   0.91085700  8.63676000  1.01097000
  -0.57141600  5.62922000  6.64956000
   4.36992403  0.01682143  6.59202000
   2.01518000  7.04978000  6.66168000
  -0.63918300  5.83901000 10.10640000
  -0.45942700  8.58422000 10.13920000
   1.88480000  7.03639000 10.12130000
  -1.51785000  7.15475000  4.64740000
   1.20607000  5.60372000  4.51864000
   1.19484000  8.63423000  4.51195000
 


--------------------------------------------------------------------------------------------------------


 k-point  1 :   0.0000 0.0000 0.0000  plane waves:   17725
 k-point  2 :   0.5000-0.0000-0.0000  plane waves:   17736
 k-point  3 :   0.0000 0.5000 0.0000  plane waves:   17736
 k-point  4 :   0.5000 0.5000-0.0000  plane waves:   17736
 k-point  5 :   0.0000 0.0000 0.5000  plane waves:   17676
 k-point  6 :   0.5000-0.0000 0.5000  plane waves:   17700
 k-point  7 :   0.0000 0.5000 0.5000  plane waves:   17700
 k-point  8 :   0.5000 0.5000 0.5000  plane waves:   17700

 maximum and minimum number of plane-waves per node :     17736    17676

 maximum number of plane-waves:     17736
 maximum index in each direction: 
   IXMAX=   16   IYMAX=   16   IZMAX=   18
   IXMIN=  -16   IYMIN=  -16   IZMIN=  -18


 serial   3D FFT for wavefunctions
 parallel 3D FFT for charge:
    minimum data exchange during FFTs selected (reduces bandwidth)


 total amount of memory used by VASP MPI-rank0    88193. kBytes
=======================================================================

   base      :      30000. kBytes
   nonlr-proj:      13684. kBytes
   fftplans  :        992. kBytes
   grid      :      21513. kBytes
   one-center:       2737. kBytes
   wavefun   :      19267. kBytes
 
     INWAV:  cpu time    0.0000: real time    0.0001
 Broyden mixing: mesh for mixing (old mesh)
   NGX = 33   NGY = 33   NGZ = 37
  (NGX  =100   NGY  =100   NGZ  =112)
  gives a total of  40293 points

 initial charge density was supplied:
 charge density of overlapping atoms calculated
 number of electron     672.0000000 magnetization      48.0000000
 keeping initial charge density in first step


--------------------------------------------------------------------------------------------------------


 Maximum index for non-local projection operator         1550
 Maximum index for augmentation-charges          241 (set IRDMAX)


--------------------------------------------------------------------------------------------------------


 First call to EWALD:  gamma=   0.179
 Maximum number of real-space cells 3x 3x 2
 Maximum number of reciprocal cells 3x 3x 3

    FEWALD:  cpu time    0.0028: real time    0.0034


--------------------------------------- Iteration      1(   1)  ---------------------------------------


    POTLOK:  cpu time    0.2068: real time    0.2094
    SETDIJ:  cpu time    3.1252: real time    3.1270
    EDDIAG:  cpu time    3.8063: real time    3.8234
  RMM-DIIS:  cpu time    6.8281: real time    6.8334
    ORTHCH:  cpu time    1.1753: real time    1.1778
       DOS:  cpu time    0.0024: real time    0.0026
    --------------------------------------------
      LOOP:  cpu time   15.1441: real time   15.1736

 eigenvalue-minimisations  :  7168
 total energy-change (2. order) : 0.1868140E+04  (-0.3594812E+05)
 number of electron     672.0000000 magnetization      48.0000000
 augmentation part      672.0000000 magnetization      48.0000000

 Free energy of the ion-electron system (eV)
  ---------------------------------------------------
  alpha Z        PSCENC =      2652.81237852
  Ewald energy   TEWEN  =    -41884.77910930
  -Hartree energ DENC   =    -25733.09032476
  -exchange      EXHF   =         0.00000000
  -V(xc)+E(xc)   XCENC  =      3605.90692069
  PAW double counting   =     55594.23204139   -59034.67079123
  entropy T*S    EENTRO =        -0.04866835
  eigenvalues    EBANDS =     -7194.42082805
  atomic energy  EATOM  =     73862.19814772
  Solvation  Ediel_sol  =         0.00000000
  ---------------------------------------------------
  free energy    TOTEN  =      1868.13976664 eV

  energy without entropy =     1868.18843499  energy(sigma->0) =     1868.16410081


--------------------------------------------------------------------------------------------------------




--------------------------------------- Iteration      1(   2)  ---------------------------------------


    EDDIAG:  cpu time    3.7888: real time    3.7930
  RMM-DIIS:  cpu time    6.8418: real time    6.8466
    ORTHCH:  cpu time    1.1940: real time    1.1968
       DOS:  cpu time    0.0015: real time    0.0015
    --------------------------------------------
      LOOP:  cpu time   11.8261: real time   11.8379

 eigenvalue-minimisations  :  7168
 total energy-change (2. order) :-0.2719473E+04  (-0.8699161E+04)
 number of electron     672.0000000 magnetization      48.0000000
 augmentation part      672.0000000 magnetization      48.0000000

 Free energy of the ion-electron system (eV)
  ---------------------------------------------------
  alpha Z        PSCENC =      2652.81237852
  Ewald energy   TEWEN  =    -41884.77910930
  -Hartree energ DENC   =    -25733.09032476
  -exchange      EXHF   =         0.00000000
  -V(xc)+E(xc)   XCENC  =      3605.90692069
  PAW double counting   =     55594.23204139   -59034.67079123
  entropy T*S    EENTRO =        -0.04279016
  eigenvalues    EBANDS =     -9913.89996138
  atomic energy  EATOM  =     73862.19814772
  Solvation  Ediel_sol  =         0.00000000
  ---------------------------------------------------
  free energy    TOTEN  =      -851.33348851 eV

  energy without entropy =     -851.29069835  energy(sigma->0) =     -851.31209343


--------------------------------------------------------------------------------------------------------




--------------------------------------- Iteration      1(   3)  ---------------------------------------


    EDDIAG:  cpu time    3.8493: real time    3.8531
  RMM-DIIS:  cpu time    6.8044: real time    6.8273
    ORTHCH:  cpu time    1.1740: real time    1.1763
       DOS:  cpu time    0.0018: real time    0.0018
    --------------------------------------------
      LOOP:  cpu time   11.8295: real time   11.8586

 eigenvalue-minimisations  :  7168
 total energy-change (2. order) : 0.3165024E+03  (-0.1565126E+04)
 number of electron     672.0000000 magnetization      48.0000000
 augmentation part      672.0000000 magnetization      48.0000000

 Free energy of the ion-electron system (eV)
  ---------------------------------------------------
  alpha Z        PSCENC =      2652.81237852
  Ewald energy   TEWEN  =    -41884.77910930
  -Hartree energ DENC   =    -25733.09032476
  -exchange      EXHF   =         0.00000000
  -V(xc)+E(xc)   XCENC  =      3605.90692069
  PAW double counting   =     55594.23204139   -59034.67079123
  entropy T*S    EENTRO =        -0.04177440
  eigenvalues    EBANDS =     -9597.39861912
  atomic energy  EATOM  =     73862.19814772
  Solvation  Ediel_sol  =         0.00000000
  ---------------------------------------------------
  free energy    TOTEN  =      -534.83113049 eV

  energy without entropy =     -534.78935609  energy(sigma->0) =     -534.81024329


--------------------------------------------------------------------------------------------------------




--------------------------------------- Iteration      1(   4)  ---------------------------------------


    EDDIAG:  cpu time    3.8162: real time    3.8197
  RMM-DIIS:  cpu time    6.8112: real time    6.8158
    ORTHCH:  cpu time    1.1806: real time    1.1843
       DOS:  cpu time    0.0012: real time    0.0012
    --------------------------------------------
      LOOP:  cpu time   11.8093: real time   11.8210

 eigenvalue-minimisations  :  7168
 total energy-change (2. order) :-0.5228837E+03  (-0.5068067E+03)
 number of electron     672.0000000 magnetization      48.0000000
 augmentation part      672.0000000 magnetization      48.0000000

 Free energy of the ion-electron system (eV)
  ---------------------------------------------------
  alpha Z        PSCENC =      2652.81237852
  Ewald energy   TEWEN  =    -41884.77910930
  -Hartree energ DENC   =    -25733.09032476
  -exchange      EXHF   =         0.00000000
  -V(xc)+E(xc)   XCENC  =      3605.90692069
  PAW double counting   =     55594.23204139   -59034.67079123
  entropy T*S    EENTRO =        -0.00000278
  eigenvalues    EBANDS =    -10120.32410118
  atomic energy  EATOM  =     73862.19814772
  Solvation  Ediel_sol  =         0.00000000
  ---------------------------------------------------
  free energy    TOTEN  =     -1057.71484093 eV

  energy without entropy =    -1057.71483815  energy(sigma->0) =    -1057.71483954


--------------------------------------------------------------------------------------------------------




--------------------------------------- Iteration      1(   5)  ---------------------------------------


    EDDIAG:  cpu time    3.8322: real time    3.8356
  RMM-DIIS:  cpu time    6.9269: real time    6.9316
    ORTHCH:  cpu time    1.1708: real time    1.1735
       DOS:  cpu time    0.0010: real time    0.0010
    --------------------------------------------
      LOOP:  cpu time   11.9309: real time   11.9417

 eigenvalue-minimisations  :  7168
 total energy-change (2. order) :-0.1474201E+03  (-0.2127061E+03)
 number of electron     672.0000000 magnetization      48.0000000
 augmentation part      672.0000000 magnetization      48.0000000

 Free energy of the ion-electron system (eV)
  ---------------------------------------------------
  alpha Z        PSCENC =      2652.81237852
  Ewald energy   TEWEN  =    -41884.77910930
  -Hartree energ DENC   =    -25733.09032476
  -exchange      EXHF   =         0.00000000
  -V(xc)+E(xc)   XCENC  =      3605.90692069
  PAW double counting   =     55594.23204139   -59034.67079123
  entropy T*S    EENTRO =        -0.00000000
  eigenvalues    EBANDS =    -10267.74420215
  atomic energy  EATOM  =     73862.19814772
  Solvation  Ediel_sol  =         0.00000000
  ---------------------------------------------------
  free energy    TOTEN  =     -1205.13493912 eV

  energy without entropy =    -1205.13493912  energy(sigma->0) =    -1205.13493912


--------------------------------------------------------------------------------------------------------




--------------------------------------- Iteration      1(   6)  ---------------------------------------


    EDDIAG:  cpu time    3.8686: real time    3.8952
  RMM-DIIS:  cpu time    6.8146: real time    6.8201
    ORTHCH:  cpu time    1.1700: real time    1.1723
       DOS:  cpu time    0.0011: real time    0.0011
    --------------------------------------------
      LOOP:  cpu time   11.8543: real time   11.8887

 eigenvalue-minimisations  :  7168
 total energy-change (2. order) :-0.2162070E+02  (-0.1150421E+03)
 number of electron     672.0000000 magnetization      48.0000000
 augmentation part      672.0000000 magnetization      48.0000000

 Free energy of the ion-electron system (eV)
  ---------------------------------------------------
  alpha Z        PSCENC =      2652.81237852
  Ewald energy   TEWEN  =    -41884.77910930
  -Hartree energ DENC   =    -25733.09032476
  -exchange      EXHF   =         0.00000000
  -V(xc)+E(xc)   XCENC  =      3605.90692069
  PAW double counting   =     55594.23204139   -59034.67079123
  entropy T*S    EENTRO =        -0.00000000
  eigenvalues    EBANDS =    -10289.36490433
  atomic energy  EATOM  =     73862.19814772
  Solvation  Ediel_sol  =         0.00000000
  ---------------------------------------------------
  free energy    TOTEN  =     -1226.75564130 eV

  energy without entropy =    -1226.75564130  energy(sigma->0) =    -1226.75564130


--------------------------------------------------------------------------------------------------------




--------------------------------------- Iteration      1(   7)  ---------------------------------------


    EDDIAG:  cpu time    3.8494: real time    3.8550
  RMM-DIIS:  cpu time    6.8277: real time    6.8329
    ORTHCH:  cpu time    1.1757: real time    1.1779
       DOS:  cpu time    0.0010: real time    0.0010
    --------------------------------------------
      LOOP:  cpu time   11.8537: real time   11.8668

 eigenvalue-minimisations  :  7168
 total energy-change (2. order) :-0.6746591E+01  (-0.7612463E+02)
 number of electron     672.0000000 magnetization      48.0000000
 augmentation part      672.0000000 magnetization      48.0000000

 Free energy of the ion-electron system (eV)
  ---------------------------------------------------
  alpha Z        PSCENC =      2652.81237852
  Ewald energy   TEWEN  =    -41884.77910930
  -Hartree energ DENC   =    -25733.09032476
  -exchange      EXHF   =         0.00000000
  -V(xc)+E(xc)   XCENC  =      3605.90692069
  PAW double counting   =     55594.23204139   -59034.67079123
  entropy T*S    EENTRO =        -0.00000000
  eigenvalues    EBANDS =    -10296.11149490
  atomic energy  EATOM  =     73862.19814772
  Solvation  Ediel_sol  =         0.00000000
  ---------------------------------------------------
  free energy    TOTEN  =     -1233.50223187 eV

  energy without entropy =    -1233.50223187  energy(sigma->0) =    -1233.50223187


--------------------------------------------------------------------------------------------------------




--------------------------------------- Iteration      1(   8)  ---------------------------------------


    EDDIAG:  cpu time    3.8294: real time    3.8347
  RMM-DIIS:  cpu time    6.8057: real time    6.8372
    ORTHCH:  cpu time    1.1691: real time    1.1723
       DOS:  cpu time    0.0013: real time    0.0013
    --------------------------------------------
      LOOP:  cpu time   11.8055: real time   11.8455

 eigenvalue-minimisations  :  7168
 total energy-change (2. order) : 0.4835713E+01  (-0.5243904E+02)
 number of electron     672.0000000 magnetization      48.0000000
 augmentation part      672.0000000 magnetization      48.0000000

 Free energy of the ion-electron system (eV)
  ---------------------------------------------------
  alpha Z        PSCENC =      2652.81237852
  Ewald energy   TEWEN  =    -41884.77910930
  -Hartree energ DENC   =    -25733.09032476
  -exchange      EXHF   =         0.00000000
  -V(xc)+E(xc)   XCENC  =      3605.90692069
  PAW double counting   =     55594.23204139   -59034.67079123
  entropy T*S    EENTRO =        -0.00000000
  eigenvalues    EBANDS =    -10291.27578160
  atomic energy  EATOM  =     73862.19814772
  Solvation  Ediel_sol  =         0.00000000
  ---------------------------------------------------
  free energy    TOTEN  =     -1228.66651856 eV

  energy without entropy =    -1228.66651856  energy(sigma->0) =    -1228.66651856


--------------------------------------------------------------------------------------------------------




--------------------------------------- Iteration      1(   9)  ---------------------------------------


    EDDIAG:  cpu time    3.8303: real time    3.8330
  RMM-DIIS:  cpu time   14.2016: real time   14.2115
    ORTHCH:  cpu time    1.2262: real time    1.2298
       DOS:  cpu time    0.0011: real time    0.0011
    --------------------------------------------
      LOOP:  cpu time   19.2592: real time   19.2753

 eigenvalue-minimisations  : 20230
 total energy-change (2. order) : 0.1787336E+02  (-0.2346754E+02)
 number of electron     672.0000000 magnetization      48.0000000
 augmentation part      672.0000000 magnetization      48.0000000

 Free energy of the ion-electron system (eV)
  ---------------------------------------------------
  alpha Z        PSCENC =      2652.81237852
  Ewald energy   TEWEN  =    -41884.77910930
  -Hartree energ DENC   =    -25733.09032476
  -exchange      EXHF   =         0.00000000
  -V(xc)+E(xc)   XCENC  =      3605.90692069
  PAW double counting   =     55594.23204139   -59034.67079123
  entropy T*S    EENTRO =        -0.00000000
  eigenvalues    EBANDS =    -10273.40242045
  atomic energy  EATOM  =     73862.19814772
  Solvation  Ediel_sol  =         0.00000000
  ---------------------------------------------------
  free energy    TOTEN  =     -1210.79315742 eV

  energy without entropy =    -1210.79315742  energy(sigma->0) =    -1210.79315742


--------------------------------------------------------------------------------------------------------




--------------------------------------- Iteration      1(  10)  ---------------------------------------


    EDDIAG:  cpu time    3.8197: real time    3.8221
  RMM-DIIS:  cpu time   15.7157: real time   15.7576
    ORTHCH:  cpu time    1.1663: real time    1.1696
       DOS:  cpu time    0.0011: real time    0.0011
    --------------------------------------------
      LOOP:  cpu time   20.7028: real time   20.7504

 eigenvalue-minimisations  : 20282
 total energy-change (2. order) :-0.3028787E+01  (-0.1026768E+01)
 number of electron     672.0000000 magnetization      48.0000000
 augmentation part      672.0000000 magnetization      48.0000000

 Free energy of the ion-electron system (eV)
  ---------------------------------------------------
  alpha Z        PSCENC =      2652.81237852
  Ewald energy   TEWEN  =    -41884.77910930
  -Hartree energ DENC   =    -25733.09032476
  -exchange      EXHF   =         0.00000000
  -V(xc)+E(xc)   XCENC  =      3605.90692069
  PAW double counting   =     55594.23204139   -59034.67079123
  entropy T*S    EENTRO =        -0.00000016
  eigenvalues    EBANDS =    -10276.43120756
  atomic energy  EATOM  =     73862.19814772
  Solvation  Ediel_sol  =         0.00000000
  ---------------------------------------------------
  free energy    TOTEN  =     -1213.82194468 eV

  energy without entropy =    -1213.82194452  energy(sigma->0) =    -1213.82194460


--------------------------------------------------------------------------------------------------------




--------------------------------------- Iteration      1(  11)  ---------------------------------------


    EDDIAG:  cpu time    3.8429: real time    3.8477
  RMM-DIIS:  cpu time   15.1017: real time   15.1399
    ORTHCH:  cpu time    1.1646: real time    1.1684
       DOS:  cpu time    0.0013: real time    0.0013
    --------------------------------------------
      LOOP:  cpu time   20.1105: real time   20.1572

 eigenvalue-minimisations  : 21661
 total energy-change (2. order) : 0.1040104E+00  (-0.9568076E-01)
 number of electron     672.0000000 magnetization      48.0000000
 augmentation part      672.0000000 magnetization      48.0000000

 Free energy of the ion-electron system (eV)
  ---------------------------------------------------
  alpha Z        PSCENC =      2652.81237852
  Ewald energy   TEWEN  =    -41884.77910930
  -Hartree energ DENC   =    -25733.09032476
  -exchange      EXHF   =         0.00000000
  -V(xc)+E(xc)   XCENC  =      3605.90692069
  PAW double counting   =     55594.23204139   -59034.67079123
  entropy T*S    EENTRO =        -0.00000018
  eigenvalues    EBANDS =    -10276.32719711
  atomic energy  EATOM  =     73862.19814772
  Solvation  Ediel_sol  =         0.00000000
  ---------------------------------------------------
  free energy    TOTEN  =     -1213.71793425 eV

  energy without entropy =    -1213.71793407  energy(sigma->0) =    -1213.71793416


--------------------------------------------------------------------------------------------------------




--------------------------------------- Iteration      1(  12)  ---------------------------------------


    EDDIAG:  cpu time    3.8296: real time    3.8318
  RMM-DIIS:  cpu time   16.2779: real time   16.2885
    ORTHCH:  cpu time    1.1651: real time    1.1673
       DOS:  cpu time    0.0013: real time    0.0013
    CHARGE:  cpu time    1.3750: real time    1.3756
    MIXING:  cpu time    0.0013: real time    0.0015
    --------------------------------------------
      LOOP:  cpu time   22.6501: real time   22.6661

 eigenvalue-minimisations  : 22859
 total energy-change (2. order) : 0.6530724E-02  (-0.6807327E-02)
 number of electron     672.0000118 magnetization      47.9999978
 augmentation part      239.0591133 magnetization      29.0386005

 Broyden mixing:
  rms(total) = 0.12597E+02    rms(broyden)= 0.12588E+02
  rms(prec ) = 0.14440E+02
  weight for this iteration     100.00

 Free energy of the ion-electron system (eV)
  ---------------------------------------------------
  alpha Z        PSCENC =      2652.81237852
  Ewald energy   TEWEN  =    -41884.77910930
  -Hartree energ DENC   =    -25733.09032476
  -exchange      EXHF   =         0.00000000
  -V(xc)+E(xc)   XCENC  =      3605.90692069
  PAW double counting   =     55594.23204139   -59034.67079123
  entropy T*S    EENTRO =        -0.00000017
  eigenvalues    EBANDS =    -10276.32066639
  atomic energy  EATOM  =     73862.19814772
  Solvation  Ediel_sol  =         0.00000000
  ---------------------------------------------------
  free energy    TOTEN  =     -1213.71140353 eV

  energy without entropy =    -1213.71140336  energy(sigma->0) =    -1213.71140344


--------------------------------------------------------------------------------------------------------




--------------------------------------- Iteration      1(  13)  ---------------------------------------


    POTLOK:  cpu time    0.1976: real time    0.1992
    SETDIJ:  cpu time    3.2925: real time    3.3017
    EDDIAG:  cpu time    3.8536: real time    3.8593
  RMM-DIIS:  cpu time   13.3512: real time   13.3584
    ORTHCH:  cpu time    1.1822: real time    1.1844
       DOS:  cpu time    0.0013: real time    0.0013
    CHARGE:  cpu time    1.3798: real time    1.3803
    MIXING:  cpu time    0.0008: real time    0.0010
    --------------------------------------------
      LOOP:  cpu time   23.2590: real time   23.2856

 eigenvalue-minimisations  : 17341
 total energy-change (2. order) : 0.2249090E+03  (-0.1377672E+03)
 number of electron     672.0000105 magnetization      47.9999972
 augmentation part      268.9920208 magnetization      26.4861474

 Broyden mixing:
  rms(total) = 0.13955E+02    rms(broyden)= 0.13952E+02
  rms(prec ) = 0.15686E+02
  weight for this iteration     100.00

 eigenvalues of (default mixing * dielectric matrix)
  average eigenvalue GAMMA=   0.3189
  0.3189

 Free energy of the ion-electron system (eV)
  ---------------------------------------------------
  alpha Z        PSCENC =      2652.81237852
  Ewald energy   TEWEN  =    -41884.77910930
  -Hartree energ DENC   =    -25061.67947352
  -exchange      EXHF   =         0.00000000
  -V(xc)+E(xc)   XCENC  =      3696.21640962
  PAW double counting   =     59907.97862295   -63332.92300841
  entropy T*S    EENTRO =        -0.07588670
  eigenvalues    EBANDS =    -10828.55052934
  atomic energy  EATOM  =     73862.19814772
  Solvation  Ediel_sol  =         0.00000000
  ---------------------------------------------------
  free energy    TOTEN  =      -988.80244845 eV

  energy without entropy =     -988.72656174  energy(sigma->0) =     -988.76450510


--------------------------------------------------------------------------------------------------------




--------------------------------------- Iteration      1(  14)  ---------------------------------------


    POTLOK:  cpu time    0.2061: real time    0.2062
    SETDIJ:  cpu time    3.2936: real time    3.2953
    EDDIAG:  cpu time    3.8617: real time    3.8641
  RMM-DIIS:  cpu time   13.6087: real time   13.6746
    ORTHCH:  cpu time    1.2479: real time    1.2509
       DOS:  cpu time    0.0011: real time    0.0011
    CHARGE:  cpu time    1.3750: real time    1.3767
    MIXING:  cpu time    0.0007: real time    0.0007
    --------------------------------------------
      LOOP:  cpu time   23.5947: real time   23.6694

 eigenvalue-minimisations  : 17754
 total energy-change (2. order) : 0.7366643E+02  (-0.1865618E+02)
 number of electron     672.0000117 magnetization      47.9999956
 augmentation part      246.6172727 magnetization      32.2018254

 Broyden mixing:
  rms(total) = 0.52783E+01    rms(broyden)= 0.52741E+01
  rms(prec ) = 0.57003E+01
  weight for this iteration     100.00

 eigenvalues of (default mixing * dielectric matrix)
  average eigenvalue GAMMA=   0.7304
  1.1015  0.3593

 Free energy of the ion-electron system (eV)
  ---------------------------------------------------
  alpha Z        PSCENC =      2652.81237852
  Ewald energy   TEWEN  =    -41884.77910930
  -Hartree energ DENC   =    -25672.96731280
  -exchange      EXHF   =         0.00000000
  -V(xc)+E(xc)   XCENC  =      3673.90756874
  PAW double counting   =     63331.69961316   -66813.78880403
  entropy T*S    EENTRO =        -0.00000000
  eigenvalues    EBANDS =    -10064.21850078
  atomic energy  EATOM  =     73862.19814772
  Solvation  Ediel_sol  =         0.00000000
  ---------------------------------------------------
  free energy    TOTEN  =      -915.13601876 eV

  energy without entropy =     -915.13601876  energy(sigma->0) =     -915.13601876


--------------------------------------------------------------------------------------------------------




--------------------------------------- Iteration      1(  15)  ---------------------------------------


    POTLOK:  cpu time    0.2013: real time    0.2034
    SETDIJ:  cpu time    3.2971: real time    3.2988
    EDDIAG:  cpu time    3.8345: real time    3.8369
  RMM-DIIS:  cpu time   13.7348: real time   13.7875
    ORTHCH:  cpu time    1.1757: real time    1.1779
       DOS:  cpu time    0.0010: real time    0.0010
    CHARGE:  cpu time    1.3714: real time    1.3719
    MIXING:  cpu time    0.0006: real time    0.0006
    --------------------------------------------
      LOOP:  cpu time   23.6165: real time   23.6782

 eigenvalue-minimisations  : 18427
 total energy-change (2. order) : 0.1365967E+02  (-0.2176524E+01)
 number of electron     672.0000116 magnetization      47.9999944
 augmentation part      249.6440761 magnetization      33.8050088

 Broyden mixing:
  rms(total) = 0.22136E+01    rms(broyden)= 0.22133E+01
  rms(prec ) = 0.23004E+01
  weight for this iteration     100.00

 eigenvalues of (default mixing * dielectric matrix)
  average eigenvalue GAMMA=   0.9270
  1.6619  0.3861  0.7331

 Free energy of the ion-electron system (eV)
  ---------------------------------------------------
  alpha Z        PSCENC =      2652.81237852
  Ewald energy   TEWEN  =    -41884.77910930
  -Hartree energ DENC   =    -25593.24860196
  -exchange      EXHF   =         0.00000000
  -V(xc)+E(xc)   XCENC  =      3706.42383745
  PAW double counting   =     67433.46848862   -70956.00965319
  entropy T*S    EENTRO =        -0.00000000
  eigenvalues    EBANDS =    -10122.34183757
  atomic energy  EATOM  =     73862.19814772
  Solvation  Ediel_sol  =         0.00000000
  ---------------------------------------------------
  free energy    TOTEN  =      -901.47634970 eV

  energy without entropy =     -901.47634970  energy(sigma->0) =     -901.47634970


--------------------------------------------------------------------------------------------------------




--------------------------------------- Iteration      1(  16)  ---------------------------------------


    POTLOK:  cpu time    0.2067: real time    0.2067
    SETDIJ:  cpu time    3.3299: real time    3.3305
    EDDIAG:  cpu time    3.8665: real time    3.8698
  RMM-DIIS:  cpu time   13.3287: real time   13.3372
    ORTHCH:  cpu time    1.1808: real time    1.1830
       DOS:  cpu time    0.0011: real time    0.0011
    CHARGE:  cpu time    1.3119: real time    1.3946
    MIXING:  cpu time    0.0009: real time    0.0009
    --------------------------------------------
      LOOP:  cpu time   23.2265: real time   23.3238

 eigenvalue-minimisations  : 17496
 total energy-change (2. order) :-0.1344856E+01  (-0.7035701E+00)
 number of electron     672.0000116 magnetization      47.9999940
 augmentation part      251.0835837 magnetization      33.9070281

 Broyden mixing:
  rms(total) = 0.14924E+01    rms(broyden)= 0.14919E+01
  rms(prec ) = 0.15692E+01
  weight for this iteration     100.00

 eigenvalues of (default mixing * dielectric matrix)
  average eigenvalue GAMMA=   0.9639
  2.0682  0.8901  0.3929  0.5045

 Free energy of the ion-electron system (eV)
  ---------------------------------------------------
  alpha Z        PSCENC =      2652.81237852
  Ewald energy   TEWEN  =    -41884.77910930
  -Hartree energ DENC   =    -25542.56934211
  -exchange      EXHF   =         0.00000000
  -V(xc)+E(xc)   XCENC  =      3707.41683006
  PAW double counting   =     70286.81159509   -73838.24315690
  entropy T*S    EENTRO =        -0.00000000
  eigenvalues    EBANDS =    -10146.46854873
  atomic energy  EATOM  =     73862.19814772
  Solvation  Ediel_sol  =         0.00000000
  ---------------------------------------------------
  free energy    TOTEN  =      -902.82120563 eV

  energy without entropy =     -902.82120563  energy(sigma->0) =     -902.82120563


--------------------------------------------------------------------------------------------------------




--------------------------------------- Iteration      1(  17)  ---------------------------------------


    POTLOK:  cpu time    0.2131: real time    0.2132
    SETDIJ:  cpu time    3.3325: real time    3.3352
    EDDIAG:  cpu time    3.8315: real time    3.8336
  RMM-DIIS:  cpu time   14.2312: real time   14.2402
    ORTHCH:  cpu time    1.1921: real time    1.1955
       DOS:  cpu time    0.0010: real time    0.0010
    CHARGE:  cpu time    1.3740: real time    1.3746
    MIXING:  cpu time    0.0014: real time    0.0014
    --------------------------------------------
      LOOP:  cpu time   24.1770: real time   24.1949

 eigenvalue-minimisations  : 18503
 total energy-change (2. order) : 0.8928195E-01  (-0.7289112E-01)
 number of electron     672.0000115 magnetization      47.9999938
 augmentation part      251.0961110 magnetization      33.9048444

 Broyden mixing:
  rms(total) = 0.77842E+00    rms(broyden)= 0.77829E+00
  rms(prec ) = 0.87724E+00
  weight for this iteration     100.00

 eigenvalues of (default mixing * dielectric matrix)
  average eigenvalue GAMMA=   0.9931
  2.2258  1.1179  0.3813  0.6835  0.5572

 Free energy of the ion-electron system (eV)
  ---------------------------------------------------
  alpha Z        PSCENC =      2652.81237852
  Ewald energy   TEWEN  =    -41884.77910930
  -Hartree energ DENC   =    -25531.70048873
  -exchange      EXHF   =         0.00000000
  -V(xc)+E(xc)   XCENC  =      3704.86739087
  PAW double counting   =     71205.31293552   -74765.73980959
  entropy T*S    EENTRO =        -0.00000000
  eigenvalues    EBANDS =    -10145.70336869
  atomic energy  EATOM  =     73862.19814772
  Solvation  Ediel_sol  =         0.00000000
  ---------------------------------------------------
  free energy    TOTEN  =      -902.73192368 eV

  energy without entropy =     -902.73192368  energy(sigma->0) =     -902.73192368


--------------------------------------------------------------------------------------------------------




--------------------------------------- Iteration      1(  18)  ---------------------------------------


    POTLOK:  cpu time    0.2007: real time    0.2018
    SETDIJ:  cpu time    3.3102: real time    3.3108
    EDDIAG:  cpu time    3.8866: real time    3.9011
  RMM-DIIS:  cpu time   13.5325: real time   13.5406
    ORTHCH:  cpu time    1.1822: real time    1.1857
       DOS:  cpu time    0.0010: real time    0.0010
    CHARGE:  cpu time    1.3737: real time    1.3743
    MIXING:  cpu time    0.0008: real time    0.0008
    --------------------------------------------
      LOOP:  cpu time   23.4876: real time   23.5161

 eigenvalue-minimisations  : 17590
 total energy-change (2. order) : 0.4041872E+00  (-0.7122890E-01)
 number of electron     672.0000115 magnetization      47.9999937
 augmentation part      250.5941476 magnetization      33.8705907

 Broyden mixing:
  rms(total) = 0.27725E+00    rms(broyden)= 0.27699E+00
  rms(prec ) = 0.29164E+00
  weight for this iteration     100.00

 eigenvalues of (default mixing * dielectric matrix)
  average eigenvalue GAMMA=   1.0176
  2.4562  1.3567  0.8427  0.3833  0.5775  0.4894

 Free energy of the ion-electron system (eV)
  ---------------------------------------------------
  alpha Z        PSCENC =      2652.81237852
[...]
   4      -0.874    -0.605     1.479    -0.101    -0.378    -0.197
   5      -0.874    -0.666     1.540    -0.133     0.525     0.253
   6      -0.751    -0.818     1.569     0.118    -0.398     0.266
   7      -0.861    -0.730     1.591     0.052     0.450    -0.281
   8      -0.662    -0.925     1.587     0.003     0.068     0.469
   9      -0.593    -0.705     1.298    -0.035     0.109    -0.240
  10      -0.894    -0.876     1.770    -0.083     0.253     0.257
  11      -0.666    -0.796     1.462    -0.053     0.038    -0.144
  12      -0.956    -0.949     1.905    -0.048    -0.096     0.058
  13      -0.761    -0.968     1.729     0.033    -0.041     0.484
  14      -0.843    -0.618     1.461    -0.110    -0.368    -0.239
  15      -0.825    -0.575     1.400     0.145    -0.473     0.252
  16      -0.789    -0.977     1.765     0.009     0.045    -0.563
  17       1.352     1.490    -2.842     0.071    -0.079    -0.062
  18       1.462     1.461    -2.923     0.118    -0.109     0.018
  19       1.507     1.369    -2.876    -0.041     0.058    -0.047
  20       1.312     1.579    -2.891     0.072     0.025     0.094
  21       1.420     1.374    -2.794    -0.192    -0.048     0.078
  22       1.418     1.390    -2.808    -0.057     0.039     0.031
  23       1.377     1.556    -2.932     0.111    -0.005     0.114
  24       1.567     1.373    -2.939    -0.097     0.045    -0.132
  25      -1.445     0.465     0.980    -0.265    -0.371     0.199
  26      -0.318     0.880    -0.561    -1.088    -0.708     0.894
  27       0.094    -0.431     0.337    -0.322     1.443    -0.257
  28       0.540    -0.413    -0.127    -0.660    -0.613    -0.150
  29       2.601    -1.897    -0.705     0.789    -0.029     0.581
  30      -0.725    -0.121     0.845    -0.758    -0.027     0.704
  31       1.323     0.191    -1.514     0.254    -1.511    -0.165
  32      -1.632     0.177     1.455    -1.220     0.534    -0.244
  33      -0.073    -1.100     1.173     0.488    -0.032    -0.157
  34       0.113    -1.986     1.873     1.457    -0.328    -0.645
  35      -0.194     0.583    -0.389     0.294     0.299     0.153
  36       0.294     0.155    -0.449     0.678     0.300     0.469
  37       0.971     0.742    -1.713     0.384    -0.671    -0.034
  38       0.310     0.823    -1.132     0.075    -0.642     0.715
  39      -2.418    -1.219     3.638    -0.597    -0.551     0.149
  40      -1.559     1.420     0.139    -0.691     1.575    -0.138
  41      -4.144     2.863     1.281    -5.163     2.453    -4.754
  42      -3.155     2.664     0.492     4.929     2.149     4.214
  43       4.878    -6.989     2.111     0.270    -4.903     0.822
  44      -3.268     2.140     1.128     5.430    -3.055    -4.652
  45      -2.703     1.151     1.552    -4.330    -3.282     3.991
  46       7.625    -5.681    -1.944    -0.859     3.041    -0.808
  47      -2.777     3.456    -0.679    -4.722     1.903    -4.071
  48       5.032    -4.609    -0.423     0.422    -4.160    -0.236
  49      -3.885     2.828     1.057     4.211     2.012     4.233
  50       6.303    -6.518     0.215     0.013     5.206     0.740
  51      -3.387     3.269     0.118    -4.417    -4.634     2.223
  52      -4.401     3.028     1.373     4.197    -3.767    -3.235
  53      -1.475     1.150     0.326    -4.794     1.448    -2.978
  54      -5.362     3.569     1.793     4.659     1.221     6.192
  55       5.317    -6.298     0.981     0.857    -4.336    -0.077
  56      -2.364     2.642    -0.278     5.516    -1.195    -5.154
  57      -1.146     0.252     0.893    -4.597    -1.441     4.846
  58       4.774    -6.762     1.988     0.194     5.177     0.230
  59      -3.186     3.188    -0.002    -6.190     1.854    -4.399
  60       6.968    -6.939    -0.030     0.497    -5.293    -0.619
  61      -5.499     4.865     0.634     3.560     2.205     4.901
  62       4.113    -5.167     1.054    -0.590     4.102    -0.914
  63      -3.213     3.917    -0.704    -7.205    -1.098     5.509
  64      -4.019     0.966     3.054     3.730    -1.307    -5.562
  65      -3.287     0.319     2.968    -5.313     2.497    -4.342
  66      -1.525     1.889    -0.364     4.818     0.567     3.154
  67       5.084    -6.276     1.192     0.668    -6.055    -2.262
  68      -2.086     1.717     0.369     4.349    -1.419    -2.798
  69      -2.714     2.849    -0.135    -4.406    -1.013     3.396
  70       4.750    -5.288     0.538    -0.665     4.724     0.131
  71      -2.602     0.201     2.401    -3.841     3.089    -4.045
  72       5.045    -5.902     0.857     2.049    -4.543     0.490
  73      -1.744     2.971    -1.227     5.720     2.533     1.643
  74       4.575    -5.355     0.780     0.229     5.541     2.481
  75      -5.010     2.765     2.245    -4.790    -4.703     3.307
  76      -2.134     2.854    -0.720     5.703    -2.374    -3.874
  77      -3.860     2.366     1.494    -4.895     3.371    -2.680
  78      -3.807     4.182    -0.375     5.718     2.481     4.249
  79       6.754    -7.753     0.999     1.578    -5.202     0.159
  80      -3.081     2.139     0.942     4.306    -1.270    -4.413
  81      -2.981     2.152     0.829    -5.015    -1.461     4.911
  82       5.358    -5.907     0.550     2.976     4.333    -2.117
  83      -2.457     3.413    -0.956    -5.030     1.187    -2.598
  84       6.211    -5.514    -0.698     1.269    -4.310    -1.197
  85      -2.078     2.157    -0.079     5.015     1.310     3.561
  86       3.171    -5.776     2.605    -0.466     5.075     0.503
  87      -3.012     3.923    -0.910    -5.374    -1.542     3.568
  88      -5.039     3.980     1.059     4.585    -3.602    -3.719
 ---------------------------------------------------------------------


 Total hyperfine coupling parameters after diagonalization (MHz)
 (convention: |A_zz| > |A_xx| > |A_yy|)
 ----------------------------------------------------------------------
  ion      A_xx      A_yy      A_zz     asymmetry (A_yy - A_xx)/ A_zz 
 ----------------------------------------------------------------------
   1       2.361     1.943     4.573      -0.091
   2       1.468     1.110     3.513      -0.102
   3       0.232     0.133     2.891      -0.034
   4       1.933     1.526     4.059      -0.100
   5       3.017     2.549     5.288      -0.089
   6       2.266     1.947     4.596      -0.069
   7       2.302     2.031     4.717      -0.057
   8       2.293     1.947     4.630      -0.075
   9       1.210     1.069     3.139      -0.045
  10       1.720     1.507     4.338      -0.049
  11       0.287     0.115     2.408      -0.071
  12      -0.057     0.036     2.854       0.033
  13       2.652     2.350     5.221      -0.058
  14       2.332     1.942     4.448      -0.088
  15       2.347     1.847     4.376      -0.114
  16       2.001     1.701     4.666      -0.064
  17      13.671     9.503    13.870      -0.300
  18      15.180    10.910    15.415      -0.277
  19      13.763     9.527    13.925      -0.304
  20      14.704    10.517    15.009      -0.279
  21      13.157     9.157    13.546      -0.295
  22      13.449     9.295    13.566      -0.306
  23      15.142    10.883    15.429      -0.276
  24      14.746    10.467    15.019      -0.285
  25      99.584    97.651   100.302      -0.019
  26      93.931    93.632    96.810      -0.003
  27      97.155    96.420    99.397      -0.007
  28      93.204    92.321    94.385      -0.009
  29      94.961    93.203    98.188      -0.018
  30     100.775    99.451   102.057      -0.013
  31      99.343    97.031   101.226      -0.023
  32      97.485    94.635    98.635      -0.029
  33      96.647    95.230    97.719      -0.014
  34     100.425    97.054   101.997      -0.033
  35      94.205    93.724    95.067      -0.005
  36      94.331    94.001    95.808      -0.003
  37      90.781    88.399    91.636      -0.026
  38      95.888    93.813    96.475      -0.022
  39     101.634    99.935   106.328      -0.016
  40      94.806    91.464    95.828      -0.035
  41       6.102     1.549    17.639      -0.258
  42       4.873     1.240    15.549      -0.234
  43       6.481     0.845    16.553      -0.341
  44       5.593     1.618    17.545      -0.227
  45       5.724     2.582    16.215      -0.194
  46       6.476     3.358    17.798      -0.175
  47       5.257     2.829    16.421      -0.148
  48       2.990     1.031    12.957      -0.151
  49       6.302     2.488    16.416      -0.232
  50       3.809    -0.156    15.774      -0.251
  51      10.320     3.686    18.751      -0.354
  52       6.972     1.131    16.171      -0.361
  53       4.447     0.508    12.255      -0.321
  54       8.423     3.363    21.139      -0.239
  55       6.051     1.348    15.758      -0.298
  56       5.070     0.740    16.326      -0.265
  57       5.159     0.749    14.301      -0.308
  58       4.086    -0.702    14.814      -0.323
  59       3.986    -0.766    15.640      -0.304
  60       5.876     1.735    18.575      -0.223
  61       5.415     1.313    17.275      -0.237
  62       4.852     1.299    13.641      -0.260
  63       5.776    -0.066    19.104      -0.306
  64       2.772    -1.353    13.614      -0.303
  65       4.501    -1.180    14.518      -0.391
  66       3.687    -0.503    11.406      -0.367
  67       5.001     0.663    17.412      -0.249
  68       3.459    -0.234    10.950      -0.337
  69       4.344     0.752    13.012      -0.276
  70       4.076     1.143    14.361      -0.204
  71       2.403    -0.459    12.578      -0.227
  72       5.228     0.216    14.884      -0.337
  73       5.188     1.022    14.619      -0.285
  74       5.625     1.197    16.501      -0.268
  75       7.435     0.023    17.274      -0.429
  76       5.050     2.072    16.702      -0.178
  77       5.769    -0.421    14.202      -0.436
  78       5.480     1.470    17.857      -0.225
  79       7.270     1.198    19.105      -0.318
  80       6.060     2.176    15.519      -0.250
  81       5.389     1.090    15.954      -0.269
  82       9.738     1.971    17.977      -0.432
  83       3.680     0.235    12.884      -0.267
  84       3.723     0.597    14.877      -0.210
  85       6.298     2.466    15.387      -0.249
  86       6.628     2.793    16.667      -0.230
  87       4.964     1.472    15.896      -0.220
  88       6.678     0.652    17.073      -0.353
 ---------------------------------------------------------------------



--------------------------------------------------------------------------------------------------------


 stress matrix after NEB project (eV)
    -45.58487     -1.38822      5.56112
     -1.39497    -45.71621     -3.28558
      5.57104     -3.27035    -61.10445
  FORCES: max atom, RMS     2.245592    1.009160
  FORCE total and by dimension    9.466759    1.872782
  Stress total and by dimension   89.381381   61.104446
     LOOP+:  cpu time  679.9742: real time  681.3274
    4ORBIT:  cpu time    0.0000: real time    0.0000
 


 total charge     
 
# of ion       s       p       d       tot
------------------------------------------
    1        0.048   5.991   0.000   6.039
    2        0.048   5.989   0.000   6.037
    3        0.050   5.995   0.000   6.045
    4        0.053   5.995   0.000   6.048
    5        0.055   5.999   0.000   6.055
    6        0.047   5.988   0.000   6.035
    7        0.050   5.992   0.000   6.043
    8        0.055   5.997   0.000   6.052
    9        0.049   5.991   0.000   6.041
   10        0.055   6.000   0.000   6.055
   11        0.046   5.989   0.000   6.034
   12        0.049   5.993   0.000   6.042
   13        0.052   5.994   0.000   6.046
   14        0.047   5.988   0.000   6.035
   15        0.051   5.993   0.000   6.044
   16        0.056   6.000   0.000   6.055
   17        0.149   6.128   0.084   6.360
   18        0.149   6.127   0.083   6.358
   19        0.148   6.126   0.082   6.355
   20        0.147   6.124   0.081   6.352
   21        0.142   6.115   0.073   6.331
   22        0.148   6.125   0.080   6.354
   23        0.146   6.125   0.082   6.353
   24        0.149   6.130   0.086   6.365
   25        0.377   6.461   4.834  11.672
   26        0.374   6.455   4.822  11.651
   27        0.371   6.446   4.818  11.634
   28        0.396   6.499   4.874  11.769
   29        0.368   6.443   4.817  11.628
   30        0.363   6.423   4.808  11.594
   31        0.374   6.450   4.842  11.667
   32        0.379   6.463   4.833  11.675
   33        0.371   6.444   4.815  11.631
   34        0.361   6.422   4.795  11.578
   35        0.379   6.463   4.838  11.679
   36        0.384   6.475   4.853  11.713
   37        0.406   6.526   4.896  11.829
   38        0.380   6.465   4.836  11.681
   39        0.368   6.438   4.815  11.621
   40        0.376   6.446   4.837  11.659
   41        1.600   3.483   0.000   5.083
   42        1.596   3.479   0.000   5.075
   43        1.599   3.493   0.000   5.092
   44        1.602   3.481   0.000   5.083
   45        1.600   3.533   0.000   5.133
   46        1.601   3.523   0.000   5.125
   47        1.602   3.506   0.000   5.108
   48        1.597   3.510   0.000   5.106
   49        1.600   3.513   0.000   5.112
   50        1.598   3.486   0.000   5.084
   51        1.598   3.509   0.000   5.107
   52        1.603   3.527   0.000   5.130
   53        1.595   3.490   0.000   5.084
   54        1.603   3.494   0.000   5.098
   55        1.599   3.520   0.000   5.119
   56        1.603   3.511   0.000   5.114
   57        1.596   3.518   0.000   5.115
   58        1.598   3.514   0.000   5.112
   59        1.602   3.457   0.000   5.060
   60        1.601   3.517   0.000   5.119
   61        1.600   3.516   0.000   5.116
   62        1.595   3.501   0.000   5.096
   63        1.604   3.473   0.000   5.077
   64        1.598   3.500   0.000   5.098
   65        1.601   3.513   0.000   5.114
   66        1.595   3.524   0.000   5.119
   67        1.599   3.502   0.000   5.101
   68        1.595   3.503   0.000   5.098
   69        1.595   3.524   0.000   5.119
   70        1.599   3.506   0.000   5.105
   71        1.596   3.491   0.000   5.087
   72        1.598   3.512   0.000   5.110
   73        1.599   3.506   0.000   5.105
   74        1.598   3.484   0.000   5.083
   75        1.601   3.543   0.000   5.144
   76        1.600   3.496   0.000   5.096
   77        1.601   3.514   0.000   5.115
   78        1.600   3.501   0.000   5.101
   79        1.601   3.506   0.000   5.107
   80        1.596   3.511   0.000   5.107
   81        1.601   3.510   0.000   5.112
   82        1.598   3.503   0.000   5.102
   83        1.598   3.506   0.000   5.104
   84        1.597   3.495   0.000   5.092
   85        1.597   3.502   0.000   5.099
   86        1.600   3.522   0.000   5.122
   87        1.598   3.499   0.000   5.098
   88        1.599   3.497   0.000   5.096
--------------------------------------------------
tot         84.774 416.435  77.983 579.193
 


 magnetization (x)
 
# of ion       s       p       d       tot
------------------------------------------
    1        0.002   0.000   0.000   0.002
    2        0.002   0.000   0.000   0.002
    3        0.001   0.000   0.000   0.001
    4        0.002   0.000   0.000   0.002
    5        0.002   0.000   0.000   0.003
    6        0.002   0.000   0.000   0.002
    7        0.002   0.000   0.000   0.003
    8        0.002   0.000   0.000   0.002
    9        0.001   0.001   0.000   0.002
   10        0.002   0.001   0.000   0.002
   11        0.001   0.000   0.000   0.001
   12        0.001   0.000   0.000   0.001
   13        0.002   0.000   0.000   0.003
   14        0.002   0.001   0.000   0.003
   15        0.002   0.001   0.000   0.003
   16        0.002   0.000   0.000   0.002
   17        0.007   0.002   0.001   0.010
   18        0.008   0.002   0.001   0.011
   19        0.007   0.002   0.001   0.010
   20        0.007   0.003   0.001   0.011
   21        0.007   0.002   0.001   0.010
   22        0.007   0.002   0.001   0.011
   23        0.008   0.003   0.001   0.011
   24        0.007   0.002   0.001   0.011
   25        0.016   0.031   2.745   2.793
   26        0.015   0.030   2.758   2.802
   27        0.016   0.030   2.762   2.808
   28        0.015   0.031   2.712   2.758
   29        0.015   0.029   2.768   2.812
   30        0.016   0.029   2.788   2.833
   31        0.016   0.030   2.746   2.792
   32        0.015   0.031   2.747   2.793
   33        0.015   0.029   2.775   2.819
   34        0.016   0.030   2.793   2.838
   35        0.015   0.029   2.746   2.790
   36        0.015   0.030   2.728   2.773
   37        0.013   0.031   2.690   2.734
   38        0.015   0.031   2.746   2.792
   39        0.017   0.030   2.790   2.837
   40        0.014   0.028   2.747   2.789
   41        0.002   0.037   0.000   0.040
   42        0.002   0.028   0.000   0.030
   43        0.002   0.038   0.000   0.040
   44        0.002   0.035   0.000   0.037
   45        0.002   0.045   0.000   0.047
   46        0.002   0.042   0.000   0.044
   47        0.002   0.035   0.000   0.037
   48        0.002   0.019   0.000   0.020
   49        0.002   0.048   0.000   0.050
   50        0.002   0.024   0.000   0.026
   51        0.003   0.061   0.000   0.063
   52        0.002   0.045   0.000   0.047
   53        0.002   0.016   0.000   0.018
   54        0.003   0.055   0.000   0.057
   55        0.002   0.039   0.000   0.041
   56        0.002   0.027   0.000   0.029
   57        0.002   0.025   0.000   0.027
   58        0.002   0.030   0.000   0.032
   59        0.002   0.008   0.000   0.010
   60        0.002   0.051   0.000   0.053
   61        0.002   0.039   0.000   0.041
   62        0.002   0.031   0.000   0.032
   63        0.002   0.027   0.000   0.029
   64        0.002   0.013   0.000   0.014
   65        0.002   0.024   0.000   0.026
   66        0.001   0.019   0.000   0.020
   67        0.002   0.037   0.000   0.039
   68        0.001   0.020   0.000   0.022
   69        0.002   0.029   0.000   0.031
   70        0.002   0.018   0.000   0.020
   71        0.002   0.006   0.000   0.007
   72        0.002   0.029   0.000   0.030
   73        0.002   0.027   0.000   0.029
   74        0.002   0.032   0.000   0.034
   75        0.002   0.056   0.000   0.058
   76        0.002   0.035   0.000   0.037
   77        0.002   0.038   0.000   0.039
   78        0.002   0.041   0.000   0.043
   79        0.002   0.055   0.000   0.057
   80        0.002   0.036   0.000   0.038
   81        0.002   0.036   0.000   0.038
   82        0.002   0.052   0.000   0.054
   83        0.002   0.019   0.000   0.021
   84        0.002   0.022   0.000   0.023
   85        0.002   0.033   0.000   0.036
   86        0.002   0.049   0.000   0.051
   87        0.002   0.032   0.000   0.034
   88        0.002   0.037   0.000   0.039
--------------------------------------------------
tot          0.426   2.101  44.049  46.576
 

 total amount of memory used by VASP MPI-rank0    88193. kBytes
=======================================================================

   base      :      30000. kBytes
   nonlr-proj:      13684. kBytes
   fftplans  :        992. kBytes
   grid      :      21513. kBytes
   one-center:       2737. kBytes
   wavefun   :      19267. kBytes
 
  
  
 General timing and accounting informations for this job:
 ========================================================
  
                  Total CPU time used (sec):      699.488
                            User time (sec):      693.540
                          System time (sec):        5.949
                         Elapsed time (sec):      703.590
  
                   Maximum memory used (kb):      182632.
                   Average memory used (kb):           0.
  
                          Minor page faults:       310408
                          Major page faults:            0
                 Voluntary context switches:         3737
