 vasp.5.4.4.18Apr17-6-g9f103f2a35 (build Dec 02 2020 12:53:39) complex          
  
 executed on             LinuxIFC date 2021.08.04  09:05:19
 running on  112 total cores
 distrk:  each k-point on  112 cores,    1 groups
 distr:  one band on NCORES_PER_BAND=   1 cores,  112 groups


--------------------------------------------------------------------------------------------------------


 INCAR:
 POTCAR:    PAW_PBE Na_pv 19Sep2006               
 POTCAR:    PAW_PBE Mg_pv 13Apr2007               
 POTCAR:    PAW_PBE Mn_pv 02Aug2007               
 POTCAR:    PAW_PBE O 08Apr2002                   

 ----------------------------------------------------------------------------- 
|                                                                             |
|           W    W    AA    RRRRR   N    N  II  N    N   GGGG   !!!           |
|           W    W   A  A   R    R  NN   N  II  NN   N  G    G  !!!           |
|           W    W  A    A  R    R  N N  N  II  N N  N  G       !!!           |
|           W WW W  AAAAAA  RRRRR   N  N N  II  N  N N  G  GGG   !            |
|           WW  WW  A    A  R   R   N   NN  II  N   NN  G    G                |
|           W    W  A    A  R    R  N    N  II  N    N   GGGG   !!!           |
|                                                                             |
|      For optimal performance we recommend to set                            |
|        NCORE= 4 - approx SQRT( number of cores)                             |
|      NCORE specifies how many cores store one orbital (NPAR=cpu/NCORE).     |
|      This setting can  greatly improve the performance of VASP for DFT.     |
|      The default,   NCORE=1            might be grossly inefficient         |
|      on modern multi-core architectures or massively parallel machines.     |
|      Do your own testing !!!!                                               |
|      Unfortunately you need to use the default for GW and RPA calculations. |
|      (for HF NCORE is supported but not extensively tested yet)             |
|                                                                             |
 ----------------------------------------------------------------------------- 

 POTCAR:    PAW_PBE Na_pv 19Sep2006               
   VRHFIN =Na: p6s1                                                             
   LEXCH  = PE                                                                  
   EATOM  =   766.0439 eV,   56.3026 Ry                                         
                                                                                
   TITEL  = PAW_PBE Na_pv 19Sep2006                                             
   LULTRA =        F    use ultrasoft PP ?                                      
   IUNSCR =        1    unscreen: 0-lin 1-nonlin 2-no                           
   RPACOR =    1.800    partial core radius                                     
   POMASS =   22.990; ZVAL   =    7.000    mass and valenz                      
   RCORE  =    2.200    outmost cutoff radius                                   
   RWIGS  =    2.200; RWIGS  =    1.164    wigner-seitz radius (au A)           
   ENMAX  =  259.561; ENMIN  =  194.671 eV                                      
   ICORE  =        2    local potential                                         
   LCOR   =        T    correct aug charges                                     
   LPAW   =        T    paw PP                                                  
   EAUG   =  368.056                                                            
   DEXC   =    0.000                                                            
   RMAX   =    2.245    core radius for proj-oper                               
   RAUG   =    1.300    factor for augmentation sphere                          
   RDEP   =    2.259    radius for radial grids                                 
   RDEPT  =    1.738    core radius for aug-charge                              
                                                                                
   Atomic configuration                                                         
    5 entries                                                                   
     n  l   j            E        occ.                                          
     1  0  0.50     -1033.6933   2.0000                                         
     2  0  0.50       -56.7526   2.0000                                         
     2  1  1.50       -28.6721   6.0000                                         
     3  0  0.50        -2.7440   1.0000                                         
     3  2  1.50        -1.3606   0.0000                                         
   Description                                                                  
     l       E           TYP  RCUT    TYP  RCUT                                 
     1    -28.6720912     23  2.000                                             
     1      6.8029130     23  2.000                                             
     0     -2.7439560     23  2.200                                             
     0     34.0145650     23  2.200                                             
     2     -1.3605826     23  2.200                                             
  local pseudopotential read in
  partial core-charges read in
  partial kinetic energy density read in
  atomic valenz-charges read in
  non local Contribution for L=           1  read in
    real space projection operators read in
  non local Contribution for L=           1  read in
    real space projection operators read in
  non local Contribution for L=           0  read in
    real space projection operators read in
  non local Contribution for L=           0  read in
    real space projection operators read in
    PAW grid and wavefunctions read in
 
   number of l-projection  operators is LMAX  =           4
   number of lm-projection operators is LMMAX =           8
 
 POTCAR:    PAW_PBE Mg_pv 13Apr2007               
   VRHFIN =Mg: p6s2                                                             
   LEXCH  = PE                                                                  
   EATOM  =  1056.7344 eV,   77.6678 Ry                                         
                                                                                
   TITEL  = PAW_PBE Mg_pv 13Apr2007                                             
   LULTRA =        F    use ultrasoft PP ?                                      
   IUNSCR =        1    unscreen: 0-lin 1-nonlin 2-no                           
   RPACOR =    1.500    partial core radius                                     
   POMASS =   24.305; ZVAL   =    8.000    mass and valenz                      
   RCORE  =    2.000    outmost cutoff radius                                   
   RWIGS  =    2.000; RWIGS  =    1.058    wigner-seitz radius (au A)           
   ENMAX  =  403.929; ENMIN  =  302.947 eV                                      
   RCLOC  =    1.506    cutoff for local pot                                    
   LCOR   =        T    correct aug charges                                     
   LPAW   =        T    paw PP                                                  
   EAUG   =  758.780                                                            
   DEXC   =    0.000                                                            
   RMAX   =    2.045    core radius for proj-oper                               
   RAUG   =    1.300    factor for augmentation sphere                          
   RDEP   =    2.025    radius for radial grids                                 
   RDEPT  =    1.557    core radius for aug-charge                              
                                                                                
   Atomic configuration                                                         
    5 entries                                                                   
     n  l   j            E        occ.                                          
     1  0  0.50     -1259.6230   2.0000                                         
     2  0  0.50       -79.8442   2.0000                                         
     2  1  1.50       -46.6121   6.0000                                         
     3  0  0.50        -4.7055   2.0000                                         
     3  2  1.50        -1.3606   0.0000                                         
   Description                                                                  
     l       E           TYP  RCUT    TYP  RCUT                                 
     1    -46.6121073     23  1.600                                             
     1      2.7211652     23  1.600                                             
     0     -4.7054661     23  2.000                                             
     0     61.2262170     23  2.000                                             
     2     -1.3605826     23  2.000                                             
  local pseudopotential read in
  partial core-charges read in
  partial kinetic energy density read in
  atomic valenz-charges read in
  non local Contribution for L=           1  read in
    real space projection operators read in
  non local Contribution for L=           1  read in
    real space projection operators read in
  non local Contribution for L=           0  read in
    real space projection operators read in
  non local Contribution for L=           0  read in
    real space projection operators read in
  non local Contribution for L=           2  read in
    real space projection operators read in
    PAW grid and wavefunctions read in
 
   number of l-projection  operators is LMAX  =           5
   number of lm-projection operators is LMMAX =          13
 
 POTCAR:    PAW_PBE Mn_pv 02Aug2007               
   VRHFIN =Mn: 3p4s3d                                                           
   LEXCH  = PE                                                                  
   EATOM  =  2025.2664 eV,  148.8529 Ry                                         
                                                                                
   TITEL  = PAW_PBE Mn_pv 02Aug2007                                             
   LULTRA =        F    use ultrasoft PP ?                                      
   IUNSCR =        1    unscreen: 0-lin 1-nonlin 2-no                           
   RPACOR =    2.080    partial core radius                                     
   POMASS =   54.938; ZVAL   =   13.000    mass and valenz                      
   RCORE  =    2.300    outmost cutoff radius                                   
   RWIGS  =    2.500; RWIGS  =    1.323    wigner-seitz radius (au A)           
   ENMAX  =  269.864; ENMIN  =  202.398 eV                                      
   ICORE  =        3    local potential                                         
   LCOR   =        T    correct aug charges                                     
   LPAW   =        T    paw PP                                                  
   EAUG   =  569.085                                                            
   DEXC   =    0.000                                                            
   RMAX   =    2.343    core radius for proj-oper                               
   RAUG   =    1.300    factor for augmentation sphere                          
   RDEP   =    2.338    radius for radial grids                                 
   RDEPT  =    1.798    core radius for aug-charge                              
                                                                                
   Atomic configuration                                                         
    8 entries                                                                   
     n  l   j            E        occ.                                          
     1  0  0.50     -6424.8287   2.0000                                         
     2  0  0.50      -739.1154   2.0000                                         
     2  1  1.50      -625.3949   6.0000                                         
     3  0  0.50       -81.6100   2.0000                                         
     3  1  1.50       -50.4667   6.0000                                         
     3  2  2.50        -3.3745   6.0000                                         
     4  0  0.50        -4.1331   1.0000                                         
     4  3  2.50        -1.3606   0.0000                                         
   Description                                                                  
     l       E           TYP  RCUT    TYP  RCUT                                 
     1    -50.4666628     23  2.000                                             
     1     -1.3605826     23  2.000                                             
     2     -3.3744729     23  2.300                                             
     2     -4.7350555     23  2.300                                             
     0     -4.1331431     23  2.300                                             
     0      7.6656591     23  2.300                                             
     3      9.5240782     23  2.300                                             
  local pseudopotential read in
  partial core-charges read in
  partial kinetic energy density read in
  atomic valenz-charges read in
  non local Contribution for L=           1  read in
    real space projection operators read in
  non local Contribution for L=           1  read in
    real space projection operators read in
  non local Contribution for L=           2  read in
    real space projection operators read in
  non local Contribution for L=           2  read in
    real space projection operators read in
  non local Contribution for L=           0  read in
    real space projection operators read in
  non local Contribution for L=           0  read in
    real space projection operators read in
    PAW grid and wavefunctions read in
 
   number of l-projection  operators is LMAX  =           6
   number of lm-projection operators is LMMAX =          18
 
 POTCAR:    PAW_PBE O 08Apr2002                   
   VRHFIN =O: s2p4                                                              
   LEXCH  = PE                                                                  
   EATOM  =   432.3788 eV,   31.7789 Ry                                         
                                                                                
   TITEL  = PAW_PBE O 08Apr2002                                                 
   LULTRA =        F    use ultrasoft PP ?                                      
   IUNSCR =        1    unscreen: 0-lin 1-nonlin 2-no                           
   RPACOR =    1.200    partial core radius                                     
   POMASS =   16.000; ZVAL   =    6.000    mass and valenz                      
   RCORE  =    1.520    outmost cutoff radius                                   
   RWIGS  =    1.550; RWIGS  =    0.820    wigner-seitz radius (au A)           
   ENMAX  =  400.000; ENMIN  =  300.000 eV                                      
   ICORE  =        2    local potential                                         
   LCOR   =        T    correct aug charges                                     
   LPAW   =        T    paw PP                                                  
   EAUG   =  605.392                                                            
   DEXC   =    0.000                                                            
   RMAX   =    1.553    core radius for proj-oper                               
   RAUG   =    1.300    factor for augmentation sphere                          
   RDEP   =    1.550    radius for radial grids                                 
   RDEPT  =    1.329    core radius for aug-charge                              
                                                                                
   Atomic configuration                                                         
    4 entries                                                                   
     n  l   j            E        occ.                                          
     1  0  0.50      -514.6923   2.0000                                         
     2  0  0.50       -23.9615   2.0000                                         
     2  1  0.50        -9.0305   4.0000                                         
     3  2  1.50        -9.5241   0.0000                                         
   Description                                                                  
     l       E           TYP  RCUT    TYP  RCUT                                 
     0    -23.9615318     23  1.200                                             
     0     -9.5240782     23  1.200                                             
     1     -9.0304911     23  1.520                                             
     1      8.1634956     23  1.520                                             
     2     -9.5240782      7  1.500                                             
  local pseudopotential read in
  partial core-charges read in
  partial kinetic energy density read in
  kinetic energy density of atom read in
  atomic valenz-charges read in
  non local Contribution for L=           0  read in
    real space projection operators read in
  non local Contribution for L=           0  read in
    real space projection operators read in
  non local Contribution for L=           1  read in
    real space projection operators read in
  non local Contribution for L=           1  read in
    real space projection operators read in
    PAW grid and wavefunctions read in
 
   number of l-projection  operators is LMAX  =           4
   number of lm-projection operators is LMMAX =           8
 
 Optimization of the real space projectors (new method)

 maximal supplied QI-value         = 17.01
 optimisation between [QCUT,QGAM] = [ 10.20, 20.41] = [ 29.16,116.64] Ry 
 Optimized for a Real-space Cutoff    1.30 Angstroem

   l    n(q)    QCUT    max X(q) W(low)/X(q) W(high)/X(q)  e(spline) 
   1      7    10.205     4.940    0.23E-03    0.84E-03    0.11E-06
   1      7    10.205     6.253    0.40E-03    0.13E-02    0.18E-06
   0      8    10.205    37.438    0.23E-03    0.37E-03    0.42E-07
   0      8    10.205     9.606    0.16E-03    0.26E-03    0.31E-07
 Optimization of the real space projectors (new method)

 maximal supplied QI-value         = 18.90
 optimisation between [QCUT,QGAM] = [ 10.20, 20.41] = [ 29.16,116.64] Ry 
 Optimized for a Real-space Cutoff    1.26 Angstroem

   l    n(q)    QCUT    max X(q) W(low)/X(q) W(high)/X(q)  e(spline) 
   1      7    10.205     2.974    0.63E-04    0.14E-03    0.13E-06
   1      7    10.205     4.279    0.11E-03    0.45E-03    0.24E-06
   0      8    10.205    16.381    0.44E-03    0.15E-03    0.55E-07
   0      8    10.205     5.611    0.31E-03    0.11E-03    0.40E-07
   2      7    10.205     4.652    0.50E-03    0.47E-03    0.57E-07
 Optimization of the real space projectors (new method)

 maximal supplied QI-value         = 16.25
 optimisation between [QCUT,QGAM] = [ 10.24, 20.48] = [ 29.35,117.42] Ry 
 Optimized for a Real-space Cutoff    1.34 Angstroem

   l    n(q)    QCUT    max X(q) W(low)/X(q) W(high)/X(q)  e(spline) 
   1      8    10.239     3.658    0.23E-03    0.30E-03    0.98E-07
   1      8    10.239     5.612    0.32E-03    0.65E-03    0.21E-06
   2      7    10.239    55.373    0.42E-03    0.45E-03    0.65E-07
   2      7    10.239    50.863    0.43E-03    0.48E-03    0.67E-07
   0      8    10.239    79.536    0.11E-03    0.21E-03    0.56E-07
   0      8    10.239    38.668    0.96E-04    0.19E-03    0.52E-07
 Optimization of the real space projectors (new method)

 maximal supplied QI-value         = 24.76
 optimisation between [QCUT,QGAM] = [ 10.15, 20.30] = [ 28.85,115.39] Ry 
 Optimized for a Real-space Cutoff    1.38 Angstroem

   l    n(q)    QCUT    max X(q) W(low)/X(q) W(high)/X(q)  e(spline) 
   0      8    10.150    20.381    0.22E-03    0.32E-03    0.29E-06
   0      8    10.150    15.268    0.23E-03    0.35E-03    0.30E-06
   1      8    10.150     5.964    0.46E-03    0.53E-03    0.21E-06
   1      8    10.150     5.382    0.38E-03    0.45E-03    0.19E-06
  PAW_PBE Na_pv 19Sep2006               :
 energy of atom  1       EATOM= -766.0439
 kinetic energy error for atom=    0.0103 (will be added to EATOM!!)
  PAW_PBE Mg_pv 13Apr2007               :
 energy of atom  2       EATOM=-1056.7344
 kinetic energy error for atom=    0.0820 (will be added to EATOM!!)
  PAW_PBE Mn_pv 02Aug2007               :
 energy of atom  3       EATOM=-2025.2664
 kinetic energy error for atom=    0.0284 (will be added to EATOM!!)
  PAW_PBE O 08Apr2002                   :
 energy of atom  4       EATOM= -432.3788
 kinetic energy error for atom=    0.1156 (will be added to EATOM!!)
 
 
 POSCAR: Na Mg Mn  O                             
  positions in cartesian coordinates
  No initial velocities read in

 METAGGA = SCAN     LMAXTAU =  6    LMIXTAU =  F

 exchange correlation table for  LEXCH =        8
   RHO(1)=    0.500       N(1)  =     2000
   RHO(2)=  100.500       N(2)  =     4000

 VTST: version 3.2, (02/03/18)

 CHAIN: initializing optimizer
 
 OPT: Using VASP Dynamics algorithm
 CHAIN: Read ICHAIN            0
 
 POSCAR: Na Mg Mn  O                             
  positions in cartesian coordinates
  No initial velocities read in
 


--------------------------------------------------------------------------------------------------------


 ion  position               nearest neighbor table
   1  0.211  0.324  0.242-  55 2.22  41 2.29  64 2.30
   2  0.469  0.577  0.747-  83 2.25  82 2.30
   3  0.090  0.336  0.746-  61 2.20  57 2.29  60 2.31
   4  0.162  0.079  0.744-  44 2.22  27 2.83  25 2.87
   5  0.815  0.069  0.247-  62 2.34  63 2.34
   6  0.455  0.885  0.256-  51 2.28
   7  0.954  0.542  0.752-  60 2.24  71 2.33
   8  0.600  0.353  0.741-  45 2.24  46 2.28  48 2.31
   9  0.112  0.572  0.252-  66 2.18  75 2.32  39 2.86  37 2.93
  10  0.955  0.825  0.262-  74 2.25  76 2.25
  11  0.300  0.065  0.259-  76 2.32  51 2.36  50 2.37  42 2.37
  12  0.662  0.079  0.750-  56 2.29  59 2.30  46 2.33  31 2.82  29 2.95
  13  0.816  0.753  0.767-  85 2.27  71 2.28  72 2.30
  14  0.300  0.776  0.760-  73 2.14  81 2.26  70 2.28  84 2.35
  15  0.613  0.568  0.247-  87 2.14  78 2.30  43 2.31  33 2.82  35 2.86
  16  0.705  0.301  0.248-  52 2.15  53 2.18  62 2.25  43 2.30  28 2.92
  17  0.814  0.424  0.007-  66 1.98  71 1.99  43 2.04  53 2.11  49 2.14  60 2.22  33 2.75  34 2.76

  18  0.460  0.214  0.509-  46 1.98  44 2.00  51 2.06  45 2.07  52 2.17  50 2.17  35 2.80  36 2.83
                            31 2.84
  19  0.316  0.407  0.992-  61 1.94  41 2.01  78 2.01  48 2.05  83 2.07  55 2.13  33 2.81  26 2.83
                            25 2.85
  20  0.961  0.213  0.493-  58 1.98  62 2.02  63 2.03  57 2.05  64 2.07  56 2.17  27 2.80  28 2.85

  21  0.315  0.915  0.006-  47 1.93  77 2.04  42 2.07  67 2.08  84 2.13  73 2.22  26 2.78  29 2.82

  22  0.967  0.713  0.503-  75 1.98  70 2.03  69 2.06  76 2.10  74 2.11  68 2.15  36 2.80  39 2.84

  23  0.806  0.906  0.990-  85 1.95  59 2.05  72 2.05  65 2.09  79 2.14  54 2.15
  24  0.454  0.710  0.492-  86 2.05  88 2.07  87 2.07  80 2.09  82 2.11  39 2.77  32 2.84
  25  0.144  0.079  0.000-  54 1.90  72 1.92  41 1.94  47 1.94  67 1.98  61 1.98  26 2.82  19 2.85
                            30 2.87   4 2.87  34 2.92
  26  0.469  0.235  0.005-  47 1.81  48 1.90  41 1.91  49 1.92  42 1.98  43 2.06  21 2.78  25 2.82
                            19 2.83  33 2.87  29 2.90
  27  0.119  0.048  0.494-  58 1.83  44 1.89  50 1.90  76 1.90  69 1.91  63 1.93  20 2.80   4 2.83
                            36 2.88  32 2.90  40 2.90
  28  0.796  0.377  0.496-  75 1.85  68 1.91  62 1.93  46 1.95  52 1.95  57 2.01  35 2.83  20 2.85
                            31 2.87  16 2.92  39 2.94
  29  0.639  0.072  0.012-  79 1.79  49 1.89  59 1.91  53 1.91  84 1.97  42 2.00  21 2.82  38 2.89
                            26 2.90  30 2.90  12 2.95
  30  0.974  0.239  0.007-  59 1.90  54 1.92  55 1.99  53 2.00  61 2.00  60 2.08  25 2.87  29 2.90
                            37 2.92
  31  0.619  0.046  0.502-  56 1.81  88 1.91  51 1.92  46 1.93  81 1.95  62 2.07  12 2.82  18 2.84
                            36 2.86  28 2.87  40 2.92
  32  0.297  0.383  0.501-  50 1.87  58 1.89  64 1.91  80 1.92  45 1.97  87 2.04  24 2.84  35 2.89
                            39 2.89  27 2.90
  33  0.640  0.566  0.997-  48 1.85  78 1.86  43 1.89  65 1.89  85 1.90  71 2.04  17 2.75  19 2.81
                            15 2.82  26 2.87  34 2.95  38 2.98
  34  0.980  0.742  1.000-  71 1.87  72 1.90  66 1.94  65 1.97  67 1.98  73 1.99  17 2.76  37 2.90
                            25 2.92  33 2.95
  35  0.629  0.537  0.499-  68 1.89  52 1.91  74 1.93  87 1.93  45 1.96  82 1.98  18 2.80  28 2.83
                            15 2.86  32 2.89  40 2.94
  36  0.289  0.887  0.501-  81 1.86  86 1.89  44 1.90  76 1.91  70 1.92  51 2.01  22 2.80  18 2.83
                            31 2.86  27 2.88  39 2.90
  37  0.147  0.575  0.992-  60 1.83  77 1.89  55 1.89  73 1.90  66 1.93  83 2.01  38 2.81  34 2.90
                            30 2.92   9 2.93
  38  0.470  0.740  0.988-  84 1.85  83 1.88  77 1.89  78 1.95  79 1.98  85 2.00  37 2.81  29 2.89
                            33 2.98
  39  0.135  0.554  0.505-  64 1.87  80 1.88  86 1.90  75 1.91  57 1.92  70 1.93  24 2.77  22 2.84
                             9 2.86  32 2.89  36 2.90  28 2.94
  40  0.784  0.875  0.496-  74 1.90  69 1.92  63 1.92  88 1.93  56 1.93  82 1.94  27 2.90  31 2.92
                            35 2.94
  41  0.308  0.238  0.094-  26 1.91  25 1.94  19 2.01   1 2.29
  42  0.481  0.085  0.113-  26 1.98  29 2.00  21 2.07  11 2.37
  43  0.637  0.417  0.102-  33 1.89  17 2.04  26 2.06  16 2.30  15 2.31
  44  0.273  0.043  0.587-  27 1.89  36 1.90  18 2.00   4 2.22
  45  0.462  0.393  0.603-  35 1.96  32 1.97  18 2.07   8 2.24
  46  0.635  0.217  0.594-  31 1.93  28 1.95  18 1.98   8 2.28  12 2.33
  47  0.317  0.082  0.918-  26 1.81  21 1.93  25 1.94
  48  0.495  0.402  0.908-  33 1.85  26 1.90  19 2.05   8 2.31
  49  0.632  0.226  0.922-  29 1.89  26 1.92  17 2.14
  50  0.277  0.218  0.409-  32 1.87  27 1.90  18 2.17  11 2.37
  51  0.463  0.047  0.403-  31 1.92  36 2.01  18 2.06   6 2.28  11 2.36
  52  0.641  0.388  0.399-  35 1.91  28 1.95  16 2.15  18 2.17
  53  0.802  0.235  0.100-  29 1.91  30 2.00  17 2.11  16 2.18
  54  0.988  0.082  0.095-  25 1.90  30 1.92  23 2.15
  55  0.141  0.419  0.091-  37 1.89  30 1.99  19 2.13   1 2.22
  56  0.764  0.029  0.585-  31 1.81  40 1.93  20 2.17  12 2.29
  57  0.972  0.390  0.593-  39 1.92  28 2.01  20 2.05   3 2.29
  58  0.133  0.211  0.578-  27 1.83  32 1.89  20 1.98
  59  0.805  0.092  0.915-  30 1.90  29 1.91  23 2.05  12 2.30
  60  0.999  0.420  0.901-  37 1.83  30 2.08  17 2.22   7 2.24   3 2.31
  61  0.142  0.245  0.906-  19 1.94  25 1.98  30 2.00   3 2.20
  62  0.791  0.216  0.398-  28 1.93  20 2.02  31 2.07  16 2.25   5 2.34
  63  0.949  0.032  0.403-  40 1.92  27 1.93  20 2.03   5 2.34
  64  0.145  0.402  0.413-  39 1.87  32 1.91  20 2.07   1 2.30
  65  0.800  0.725  0.086-  33 1.89  34 1.97  23 2.09
  66  0.996  0.587  0.092-  37 1.93  34 1.94  17 1.98   9 2.18
  67  0.134  0.912  0.100-  25 1.98  34 1.98  21 2.08
  68  0.779  0.524  0.594-  35 1.89  28 1.91  22 2.15
  69  0.955  0.891  0.585-  27 1.91  40 1.92  22 2.06
  70  0.143  0.720  0.598-  36 1.92  39 1.93  22 2.03  14 2.28
  71  0.826  0.590  0.904-  34 1.87  17 1.99  33 2.04  13 2.28   7 2.33
  72  0.991  0.907  0.910-  34 1.90  25 1.92  23 2.05  13 2.30
  73  0.134  0.725  0.898-  37 1.90  34 1.99  14 2.14  21 2.22
  74  0.783  0.711  0.410-  40 1.90  35 1.93  22 2.11  10 2.25
  75  0.962  0.536  0.419-  28 1.85  39 1.91  22 1.98   9 2.32
  76  0.138  0.897  0.404-  27 1.90  36 1.91  22 2.10  10 2.25  11 2.32
  77  0.309  0.728  0.084-  37 1.89  38 1.89  21 2.04
  78  0.489  0.585  0.080-  33 1.86  38 1.95  19 2.01  15 2.30
  79  0.625  0.908  0.089-  29 1.79  38 1.98  23 2.14
  80  0.282  0.534  0.596-  39 1.88  32 1.92  24 2.09
  81  0.446  0.902  0.600-  36 1.86  31 1.95  14 2.26
  82  0.631  0.706  0.590-  40 1.94  35 1.98  24 2.11   2 2.30
  83  0.317  0.583  0.893-  38 1.88  37 2.01  19 2.07   2 2.25
  84  0.491  0.909  0.905-  38 1.85  29 1.97  21 2.13  14 2.35
  85  0.642  0.728  0.908-  33 1.90  23 1.95  38 2.00  13 2.27
  86  0.277  0.723  0.410-  36 1.89  39 1.90  24 2.05
  87  0.475  0.542  0.400-  35 1.93  32 2.04  24 2.07  15 2.14
  88  0.632  0.896  0.405-  31 1.91  40 1.93  24 2.07
 
  LATTYP: Found a hexagonal cell.
 ALAT       =    10.0190000534
 C/A-ratio  =     1.1196726572
  
  Lattice vectors:
  
 A1 = (  10.0190000534,   0.0000000000,   0.0000000000)
 A2 = (  -5.0095000267,   8.6767085668,   0.0000000000)
 A3 = (   0.0000000000,   0.0000000000,  11.2180004120)


Analysis of symmetry for initial positions (statically):
=====================================================================
 Subroutine PRICEL returns:
 Original cell was already a primitive cell.
 

 Routine SETGRP: Setting up the symmetry group for a 
 hexagonal supercell.


 Subroutine GETGRP returns: Found  1 space group operations
 (whereof  1 operations were pure point group operations)
 out of a pool of 24 trial point group operations.


The static configuration has the point symmetry C_1 .


Analysis of symmetry for dynamics (positions and initial velocities):
=====================================================================
 Subroutine PRICEL returns:
 Original cell was already a primitive cell.
 

 Routine SETGRP: Setting up the symmetry group for a 
 hexagonal supercell.


 Subroutine GETGRP returns: Found  1 space group operations
 (whereof  1 operations were pure point group operations)
 out of a pool of 24 trial point group operations.


The dynamic configuration has the point symmetry C_1 .


Analysis of structural, dynamic, and magnetic symmetry:
=====================================================================
 Subroutine PRICEL returns:
 Original cell was already a primitive cell.
 

 Routine SETGRP: Setting up the symmetry group for a 
 hexagonal supercell.


 Subroutine GETGRP returns: Found  1 space group operations
 (whereof  1 operations were pure point group operations)
 out of a pool of 24 trial point group operations.


The magnetic configuration has the point symmetry C_1 .


 Subroutine INISYM returns: Found  1 space group operations
 (whereof  1 operations are pure point group operations),
 and found     1 'primitive' translations

 
 

Automatic generation of k-mesh.
 generate k-points for:    2    2    2
Space group operators:
 irot       det(A)        alpha          n_x          n_y          n_z        tau_x        tau_y        tau_z
    1     1.000000     0.000000     1.000000     0.000000     0.000000     0.000000     0.000000     0.000000
 
 Subroutine IBZKPT returns following result:
 ===========================================
 
 Found      8 irreducible k-points:
 
 Following reciprocal coordinates:
            Coordinates               Weight
  0.000000  0.000000  0.000000      1.000000
  0.500000 -0.000000 -0.000000      1.000000
  0.000000  0.500000  0.000000      1.000000
  0.500000  0.500000 -0.000000      1.000000
  0.000000  0.000000  0.500000      1.000000
  0.500000 -0.000000  0.500000      1.000000
  0.000000  0.500000  0.500000      1.000000
  0.500000  0.500000  0.500000      1.000000
 
 Following cartesian coordinates:
            Coordinates               Weight
  0.000000  0.000000  0.000000      1.000000
  0.049905  0.028813 -0.000000      1.000000
  0.000000  0.057626  0.000000      1.000000
  0.049905  0.086438 -0.000000      1.000000
  0.000000  0.000000  0.044571      1.000000
  0.049905  0.028813  0.044571      1.000000
  0.000000  0.057626  0.044571      1.000000
  0.049905  0.086438  0.044571      1.000000
 


--------------------------------------------------------------------------------------------------------




 Dimension of arrays:
   k-points           NKPTS =      8   k-points in BZ     NKDIM =      8   number of bands    NBANDS=    448
   number of dos      NEDOS =    301   number of ions     NIONS =     88
   non local maximal  LDIM  =      6   non local SUM 2l+1 LMDIM =     18
   total plane-waves  NPLWV = 140000
   max r-space proj   IRMAX =   1632   max aug-charges    IRDMAX=   4555
   dimension x,y,z NGX =    50 NGY =   50 NGZ =   56
   dimension x,y,z NGXF=   100 NGYF=  100 NGZF=  112
   support grid    NGXF=   100 NGYF=  100 NGZF=  112
   ions per type =              16   8  16  48
   NGX,Y,Z   is equivalent  to a cutoff of   8.30,  8.30,  8.30 a.u.
   NGXF,Y,Z  is equivalent  to a cutoff of  16.59, 16.59, 16.60 a.u.

 SYSTEM =  unknown system                          
 POSCAR =  Na Mg Mn  O                             

 Startparameter for this run:
   NWRITE =      2    write-flag & timer
   PREC   = normal    normal or accurate (medium, high low for compatibility)
   ISTART =      0    job   : 0-new  1-cont  2-samecut
   ICHARG =      1    charge: 1-file 2-atom 10-const
   ISPIN  =      2    spin polarized calculation?
   LNONCOLLINEAR =      F non collinear calculations
   LSORBIT =      F    spin-orbit coupling
   INIWAV =      1    electr: 0-lowe 1-rand  2-diag
   LASPH  =      T    aspherical Exc in radial PAW
   METAGGA=      F    non-selfconsistent MetaGGA calc.

 Electronic Relaxation 1
   ENCUT  =  400.0 eV  29.40 Ry    5.42 a.u.  16.34 16.34 18.29*2*pi/ulx,y,z
   ENINI  =  400.0     initial cutoff
   ENAUG  =  758.8 eV  augmentation charge cutoff
   NELM   =    200;   NELMIN=  6; NELMDL=-12     # of ELM steps 
   EDIFF  = 0.1E-04   stopping-criterion for ELM
   LREAL  =      T    real-space projection
   NLSPLINE    = F    spline interpolate recip. space projectors
   LCOMPAT=      F    compatible to vasp.4.4
   GGA_COMPAT  = T    GGA compatible to vasp.4.4-vasp.4.6
   LMAXPAW     = -100 max onsite density
   LMAXMIX     =    4 max onsite mixed and CHGCAR
   VOSKOWN=      0    Vosko Wilk Nusair interpolation
   ROPT   =   -0.00050  -0.00050  -0.00050  -0.00050
 Ionic relaxation
   EDIFFG = 0.1E-03   stopping-criterion for IOM
   NSW    =      1    number of steps for IOM
   NBLOCK =      1;   KBLOCK =      1    inner block; outer block 
   IBRION =     -1    ionic relax: 0-MD 1-quasi-New 2-CG
   NFREE  =      0    steps in history (QN), initial steepest desc. (CG)
   ISIF   =      2    stress and relaxation
   IWAVPR =     10    prediction:  0-non 1-charg 2-wave 3-comb
   ISYM   =      2    0-nonsym 1-usesym 2-fastsym
   LCORR  =      T    Harris-Foulkes like correction to forces

   POTIM  = 0.5000    time-step for ionic-motion
   TEIN   =    0.0    initial temperature
   TEBEG  =    0.0;   TEEND  =   0.0 temperature during run
   SMASS  =  -3.00    Nose mass-parameter (am)
   estimated Nose-frequenzy (Omega)   =  0.10E-29 period in steps =****** mass=  -0.229E-26a.u.
   SCALEE = 1.0000    scale energy and forces
   NPACO  =    256;   APACO  = 16.0  distance and # of slots for P.C.
   PSTRESS=    0.0 pullay stress

  Mass of Ions in am
   POMASS =  22.99 24.30 54.94 16.00
  Ionic Valenz
   ZVAL   =   7.00  8.00 13.00  6.00
  Atomic Wigner-Seitz radii
   RWIGS  =  -1.00 -1.00 -1.00 -1.00
  virtual crystal weights 
   VCA    =   1.00  1.00  1.00  1.00
   NELECT =     672.0000    total number of electrons
   NUPDOWN=      48.0000    fix difference up-down

 DOS related values:
   EMIN   =  10.00;   EMAX   =-10.00  energy-range for DOS
   EFERMI =   0.00
   ISMEAR =     0;   SIGMA  =   0.05  broadening in eV -4-tet -1-fermi 0-gaus

 Electronic relaxation 2 (details)
   IALGO  =     48    algorithm
   LDIAG  =      T    sub-space diagonalisation (order eigenvalues)
   LSUBROT=      F    optimize rotation matrix (better conditioning)
   TURBO    =      0    0=normal 1=particle mesh
   IRESTART =      0    0=no restart 2=restart with 2 vectors
   NREBOOT  =      0    no. of reboots
   NMIN     =      0    reboot dimension
   EREF     =   0.00    reference energy to select bands
   IMIX   =      4    mixing-type and parameters
     AMIX     =   0.40;   BMIX     =  1.00
     AMIX_MAG =   1.60;   BMIX_MAG =  1.00
     AMIN     =   0.10
     WC   =   100.;   INIMIX=   1;  MIXPRE=   1;  MAXMIX= -45

 Intra band minimization:
   WEIMIN = 0.0000     energy-eigenvalue tresh-hold
   EBREAK =  0.56E-08  absolut break condition
   DEPER  =   0.30     relativ break condition  

   TIME   =   0.40     timestep for ELM

  volume/ion in A,a.u.               =      11.08        74.78
  Fermi-wavevector in a.u.,A,eV,Ry     =   1.445993  2.732531 28.448379  2.090897
  Thomas-Fermi vector in A             =   2.564112
 
 Write flags
   LWAVE        =      F    write WAVECAR
   LDOWNSAMPLE  =      F    k-point downsampling of WAVECAR
   LCHARG       =      F    write CHGCAR
   LVTOT        =      F    write LOCPOT, total local potential
   LVHAR        =      F    write LOCPOT, Hartree potential only
   LELF         =      F    write electronic localiz. function (ELF)
   LORBIT       =     11    0 simple, 1 ext, 2 COOP (PROOUT), +10 PAW based schemes


 Dipole corrections
   LMONO  =      F    monopole corrections only (constant potential shift)
   LDIPOL =      F    correct potential (dipole corrections)
   IDIPOL =      0    1-x, 2-y, 3-z, 4-all directions 
   EPSILON=  1.0000000 bulk dielectric constant

 Exchange correlation treatment:
   GGA     =    --    GGA type
   LEXCH   =     8    internal setting for exchange type
   VOSKOWN=      0    Vosko Wilk Nusair interpolation
   LHFCALC =     F    Hartree Fock is set to
   LHFONE  =     F    Hartree Fock one center treatment
   AEXX    =    0.0000 exact exchange contribution

 Linear response parameters
   LEPSILON=     F    determine dielectric tensor
   LRPA    =     F    only Hartree local field effects (RPA)
   LNABLA  =     F    use nabla operator in PAW spheres
   LVEL    =     F    velocity operator in full k-point grid
   LINTERFAST=   F  fast interpolation
   KINTER  =     0    interpolate to denser k-point grid
   CSHIFT  =0.1000    complex shift for real part using Kramers Kronig
   OMEGAMAX=  -1.0    maximum frequency
   DEG_THRESHOLD= 0.2000000E-02 threshold for treating states as degnerate
   RTIME   =   -0.100 relaxation time in fs
  (WPLASMAI=    0.000 imaginary part of plasma frequency in eV, 0.658/RTIME)
   DFIELD  = 0.0000000 0.0000000 0.0000000 field for delta impulse in time
 
 Orbital magnetization related:
   ORBITALMAG=     F  switch on orbital magnetization
   LCHIMAG   =     F  perturbation theory with respect to B field
   DQ        =  0.001000  dq finite difference perturbation B field
   LLRAUG    =     F  two centre corrections for induced B field



--------------------------------------------------------------------------------------------------------


 Static calculation
 charge density and potential will be updated during run
 spin polarized calculation
 RMM-DIIS sequential band-by-band
 perform sub-space diagonalisation
    before iterative eigenvector-optimisation
 modified Broyden-mixing scheme, WC =      100.0
 initial mixing is a Kerker type mixing with AMIX =  0.4000 and BMIX =      1.0000
 Hartree-type preconditioning will be used
 using additional bands          112
 real space projection scheme for non local part
 use partial core corrections
 calculate Harris-corrections to forces 
   (improved forces if not selfconsistent)
 use gradient corrections 
 use of overlap-Matrix (Vanderbilt PP)
 Gauss-broadening in eV      SIGMA  =   0.05


--------------------------------------------------------------------------------------------------------


  energy-cutoff  :      400.00
  volume of cell :      975.20
      direct lattice vectors                 reciprocal lattice vectors
    10.019000053  0.000000000  0.000000000     0.099810360  0.057625538 -0.000000000
    -5.009500027  8.676708567  0.000000000     0.000000000  0.115251076  0.000000000
     0.000000000  0.000000000 11.218000412     0.000000000  0.000000000  0.089142446

  length of vectors
    10.019000053 10.019000053 11.218000412     0.115251076  0.115251076  0.089142446


 
 k-points in units of 2pi/SCALE and weight: read from INCAR                         
   0.00000000  0.00000000  0.00000000       0.125
   0.04990518  0.02881277 -0.00000000       0.125
   0.00000000  0.05762554  0.00000000       0.125
   0.04990518  0.08643831 -0.00000000       0.125
   0.00000000  0.00000000  0.04457122       0.125
   0.04990518  0.02881277  0.04457122       0.125
   0.00000000  0.05762554  0.04457122       0.125
   0.04990518  0.08643831  0.04457122       0.125
 
 k-points in reciprocal lattice and weights: read from INCAR                         
   0.00000000  0.00000000  0.00000000       0.125
   0.50000000 -0.00000000 -0.00000000       0.125
   0.00000000  0.50000000  0.00000000       0.125
   0.50000000  0.50000000 -0.00000000       0.125
   0.00000000  0.00000000  0.50000000       0.125
   0.50000000 -0.00000000  0.50000000       0.125
   0.00000000  0.50000000  0.50000000       0.125
   0.50000000  0.50000000  0.50000000       0.125
 
 position of ions in fractional coordinates (direct lattice) 
   0.21126792  0.32406693  0.24199767
   0.46858241  0.57736838  0.74733283
   0.08983382  0.33609041  0.74564715
   0.16165059  0.07920895  0.74448473
   0.81503910  0.06934361  0.24664734
   0.45530336  0.88537984  0.25614012
   0.95427246  0.54152826  0.75210997
   0.60011196  0.35321327  0.74118557
   0.11167014  0.57207769  0.25182741
   0.95528011  0.82452365  0.26236761
   0.29993241  0.06460185  0.25870475
   0.66245374  0.07925422  0.75043855
   0.81594124  0.75323197  0.76742910
   0.30035545  0.77569836  0.75993133
   0.61294882  0.56770820  0.24731591
   0.70457812  0.30088993  0.24757888
   0.81438036  0.42374824  0.00724144
   0.45997045  0.21388640  0.50893027
   0.31631078  0.40738950  0.99212869
   0.96092410  0.21305890  0.49279816
   0.31461119  0.91539666  0.00612187
   0.96739470  0.71291895  0.50307094
   0.80606898  0.90641283  0.98973658
   0.45367330  0.71007802  0.49245764
   0.14409899  0.07876390  0.00007798
   0.46948286  0.23533463  0.00497683
   0.11886101  0.04831291  0.49426723
   0.79638064  0.37685949  0.49642715
   0.63939273  0.07157915  0.01242289
   0.97352121  0.23862044  0.00724724
   0.61893527  0.04626858  0.50176411
   0.29707909  0.38268198  0.50095470
   0.63974996  0.56578597  0.99698510
   0.97953786  0.74176860  0.99992720
   0.62948282  0.53655023  0.49919770
   0.28946135  0.88744251  0.50114190
   0.14652599  0.57485854  0.99234799
   0.47030032  0.73966642  0.98811116
   0.13524524  0.55372034  0.50484666
   0.78416344  0.87485248  0.49600194
   0.30844689  0.23840492  0.09432073
   0.48111671  0.08474066  0.11308878
   0.63702292  0.41732760  0.10187020
   0.27299746  0.04252551  0.58678194
   0.46177451  0.39275953  0.60320821
   0.63502950  0.21660057  0.59379656
   0.31651545  0.08245500  0.91839897
   0.49451188  0.40154397  0.90762165
   0.63189676  0.22617102  0.92159027
   0.27653947  0.21793172  0.40942769
   0.46273449  0.04725080  0.40257620
   0.64141163  0.38842263  0.39928774
   0.80212497  0.23516521  0.10030308
   0.98837079  0.08168420  0.09534230
   0.14146247  0.41916010  0.09092708
   0.76414175  0.02935346  0.58483774
   0.97159757  0.38950715  0.59322693
   0.13254485  0.21102703  0.57790513
   0.80484026  0.09213586  0.91511853
   0.99933323  0.42035525  0.90073985
   0.14166734  0.24532690  0.90641822
   0.79082747  0.21615339  0.39777588
   0.94857736  0.03217020  0.40252183
   0.14477821  0.40216287  0.41339275
   0.80046141  0.72495117  0.08573328
   0.99603808  0.58673631  0.09226065
   0.13430353  0.91162333  0.10005259
   0.77925277  0.52383343  0.59370296
   0.95525247  0.89091617  0.58519342
   0.14325588  0.71979253  0.59833123
   0.82564067  0.58992992  0.90380635
   0.99055361  0.90713776  0.90977889
   0.13350329  0.72538566  0.89781598
   0.78319726  0.71055861  0.41004545
   0.96240518  0.53631051  0.41946602
   0.13768985  0.89725614  0.40436707
   0.30914236  0.72841907  0.08350668
   0.48946660  0.58485196  0.07988251
   0.62483098  0.90784540  0.08929131
   0.28233425  0.53441578  0.59599570
   0.44590700  0.90196760  0.59974770
   0.63090823  0.70589671  0.59048135
   0.31721441  0.58262185  0.89345691
   0.49085263  0.90864986  0.90541091
   0.64230792  0.72820701  0.90804953
   0.27715024  0.72253205  0.41026385
   0.47465601  0.54230933  0.39996522
   0.63170989  0.89566452  0.40528524
 
 position of ions in cartesian coordinates  (Angst):
   0.49328005  2.81183427  2.71473000
   1.80240029  5.00965717  8.38358000
  -0.78359992  2.91615857  8.36467000
   1.22278000  0.68727300  8.35163000
   7.81849997  0.60167430  2.76689000
   0.12637400  7.68218287  2.87338000
   6.84807000  4.69868287  8.43717000
   4.24309992  3.06472857  8.31462000
  -1.74700011  4.96375140  2.82500000
   5.44050021  7.15415140  2.94324000
   2.68139987  0.56053143  2.90215000
   6.24010011  0.68766573  8.41842000
   4.40159976  6.53557430  8.60902000
  -0.87659971  6.73050857  8.52491000
   3.29720008  4.92583857  2.77439000
   5.55186005  2.61073427  2.77734000
   6.03651000  3.67674000  0.08123450
   3.53698000  1.85583000  5.70918000
   1.12830000  3.53480000 11.12970000
   8.56018000  1.84865000  5.52821000
  -1.43359000  7.94263000  0.06867510
   6.12096000  6.18579000  5.64345000
   3.53533000  7.86468000 11.10286541
   0.98821700  6.16114000  5.52439000
   1.04915997  0.68341143  0.00087477
   3.52484000  2.04193000  0.05583010
   0.94884500  0.41919700  5.54469000
   6.09106000  3.26990000  5.56892000
   6.04750003  0.62107143  0.13936000
   8.55834000  2.07044000  0.08129959
   5.96933000  0.40145900  5.62879000
   1.05939000  3.32042000  5.61971000
   3.57535000  4.90916000 11.18417921
   6.09810000  6.43611000 11.21718377
   3.61894000  4.65549000  5.60000000
  -1.54553000  7.70008000  5.62181000
  -1.41171000  4.98788000 11.13216021
   1.00658000  6.41787000 11.08463141
  -1.41884000  4.80447000  5.66337000
   3.47396000  7.59084000  5.56415000
   1.89604000  2.06857000  1.05809000
   4.39580000  0.73527000  1.26863000
   4.29173000  3.62103000  1.14278000
   2.52213003  0.36898143  6.58252000
   2.65899000  3.40786000  6.76679000
   5.27730000  1.87938000  6.66121000
   2.75811000  0.71543800 10.30260000
   2.94298000  3.48408000 10.18170000
   5.19797000  1.96242000 10.33840000
   1.67892000  1.89093000  4.59296000
   4.39943403  0.40998143  4.51610000
   4.48050000  3.37023000  4.47921000
   6.85843000  2.04046000  1.12520000
   9.49329000  0.70875000  1.06955000
  -0.68247005  3.63693000  1.02002000
   7.50889003  0.25469143  6.56071000
   7.78320000  3.37964000  6.65482000
   0.27082700  1.83102000  6.48294000
   7.60214000  0.79943600 10.26580000
   7.90655000  3.64730000 10.10450000
   0.19039995  2.12863000 10.16820000
   6.84048000  1.87550000  4.46225000
   9.34264003  0.27913143  4.51549000
  -0.56410200  3.48945000  4.63744000
   4.38818000  6.29019000  0.96175600
   7.04005000  5.09094000  1.03498000
  -3.22119005  7.90989000  1.12239000
   5.18319000  4.54515000  6.66016000
   5.10763000  7.73022000  6.56470000
  -2.17052000  6.24543000  6.71208000
   5.31684000  5.11865000 10.13890000
   5.38005000  7.87097000 10.20590000
  -2.29625005  6.29396000 10.07170000
   4.28731000  6.16531000  4.59989000
   6.95569000  4.65341000  4.70557000
  -3.11529000  7.78523000  4.53619000
  -0.55171800  6.32028000  0.93677800
   1.97415000  5.07459000  0.89612200
   1.71233000  7.87711000  1.00167000
   0.15155100  4.63697000  6.68588000
  -0.05086450  7.82611000  6.72797000
   2.78488000  6.12486000  6.62402000
   0.25952700  5.05524000 10.02280000
   0.36597100  7.88409000 10.15690000
   2.78733000  6.31844000 10.18650000
  -0.84275600  6.26920000  4.60234000
   2.03888000  4.70546000  4.48681000
   1.84227000  7.77142000  4.54649000
 


--------------------------------------------------------------------------------------------------------


 k-point  1 :   0.0000 0.0000 0.0000  plane waves:   17725
 k-point  2 :   0.5000-0.0000-0.0000  plane waves:   17736
 k-point  3 :   0.0000 0.5000 0.0000  plane waves:   17736
 k-point  4 :   0.5000 0.5000-0.0000  plane waves:   17736
 k-point  5 :   0.0000 0.0000 0.5000  plane waves:   17676
 k-point  6 :   0.5000-0.0000 0.5000  plane waves:   17700
 k-point  7 :   0.0000 0.5000 0.5000  plane waves:   17700
 k-point  8 :   0.5000 0.5000 0.5000  plane waves:   17700

 maximum and minimum number of plane-waves per node :     17736    17676

 maximum number of plane-waves:     17736
 maximum index in each direction: 
   IXMAX=   16   IYMAX=   16   IZMAX=   18
   IXMIN=  -16   IYMIN=  -16   IZMIN=  -18


 serial   3D FFT for wavefunctions
 parallel 3D FFT for charge:
    minimum data exchange during FFTs selected (reduces bandwidth)


 total amount of memory used by VASP MPI-rank0    88186. kBytes
=======================================================================

   base      :      30000. kBytes
   nonlr-proj:      13677. kBytes
   fftplans  :        992. kBytes
   grid      :      21513. kBytes
   one-center:       2737. kBytes
   wavefun   :      19267. kBytes
 
     INWAV:  cpu time    0.0000: real time    0.0000
 Broyden mixing: mesh for mixing (old mesh)
   NGX = 33   NGY = 33   NGZ = 37
  (NGX  =100   NGY  =100   NGZ  =112)
  gives a total of  40293 points

 initial charge density was supplied:
 charge density of overlapping atoms calculated
 number of electron     672.0000000 magnetization      48.0000000
 keeping initial charge density in first step


--------------------------------------------------------------------------------------------------------


 Maximum index for non-local projection operator         1553
 Maximum index for augmentation-charges          281 (set IRDMAX)


--------------------------------------------------------------------------------------------------------


 First call to EWALD:  gamma=   0.179
 Maximum number of real-space cells 3x 3x 2
 Maximum number of reciprocal cells 3x 3x 3

    FEWALD:  cpu time    0.0024: real time    0.0029


--------------------------------------- Iteration      1(   1)  ---------------------------------------


    POTLOK:  cpu time    0.2039: real time    0.2056
    SETDIJ:  cpu time    3.0941: real time    3.0964
    EDDIAG:  cpu time    3.7080: real time    3.7180
  RMM-DIIS:  cpu time    6.5769: real time    6.6349
    ORTHCH:  cpu time    1.1375: real time    1.1414
       DOS:  cpu time    0.0025: real time    0.0027
    --------------------------------------------
      LOOP:  cpu time   14.7229: real time   14.7989

 eigenvalue-minimisations  :  7168
 total energy-change (2. order) : 0.1876555E+04  (-0.3595488E+05)
 number of electron     672.0000000 magnetization      48.0000000
 augmentation part      672.0000000 magnetization      48.0000000

 Free energy of the ion-electron system (eV)
  ---------------------------------------------------
  alpha Z        PSCENC =      2652.81237852
  Ewald energy   TEWEN  =    -41766.62994766
  -Hartree energ DENC   =    -25839.97051570
  -exchange      EXHF   =         0.00000000
  -V(xc)+E(xc)   XCENC  =      3606.31755126
  PAW double counting   =     55594.23204139   -59034.67079123
  entropy T*S    EENTRO =        -0.05100301
  eigenvalues    EBANDS =     -7197.68298157
  atomic energy  EATOM  =     73862.19814772
  Solvation  Ediel_sol  =         0.00000000
  ---------------------------------------------------
  free energy    TOTEN  =      1876.55487973 eV

  energy without entropy =     1876.60588274  energy(sigma->0) =     1876.58038124


--------------------------------------------------------------------------------------------------------




--------------------------------------- Iteration      1(   2)  ---------------------------------------


    EDDIAG:  cpu time    3.7636: real time    3.7714
  RMM-DIIS:  cpu time    6.6238: real time    6.6367
    ORTHCH:  cpu time    1.1422: real time    1.1456
       DOS:  cpu time    0.0014: real time    0.0014
    --------------------------------------------
      LOOP:  cpu time   11.5310: real time   11.5550

 eigenvalue-minimisations  :  7168
 total energy-change (2. order) :-0.2729211E+04  (-0.8710454E+04)
 number of electron     672.0000000 magnetization      48.0000000
 augmentation part      672.0000000 magnetization      48.0000000

 Free energy of the ion-electron system (eV)
  ---------------------------------------------------
  alpha Z        PSCENC =      2652.81237852
  Ewald energy   TEWEN  =    -41766.62994766
  -Hartree energ DENC   =    -25839.97051570
  -exchange      EXHF   =         0.00000000
  -V(xc)+E(xc)   XCENC  =      3606.31755126
  PAW double counting   =     55594.23204139   -59034.67079123
  entropy T*S    EENTRO =        -0.04061405
  eigenvalues    EBANDS =     -9926.90392917
  atomic energy  EATOM  =     73862.19814772
  Solvation  Ediel_sol  =         0.00000000
  ---------------------------------------------------
  free energy    TOTEN  =      -852.65567891 eV

  energy without entropy =     -852.61506486  energy(sigma->0) =     -852.63537189


--------------------------------------------------------------------------------------------------------




--------------------------------------- Iteration      1(   3)  ---------------------------------------


    EDDIAG:  cpu time    3.7245: real time    3.7310
  RMM-DIIS:  cpu time    6.6078: real time    6.6209
    ORTHCH:  cpu time    1.1601: real time    1.2339
       DOS:  cpu time    0.0015: real time    0.0015
    --------------------------------------------
      LOOP:  cpu time   11.4938: real time   11.5873

 eigenvalue-minimisations  :  7168
 total energy-change (2. order) : 0.3199651E+03  (-0.1565476E+04)
 number of electron     672.0000000 magnetization      48.0000000
 augmentation part      672.0000000 magnetization      48.0000000

 Free energy of the ion-electron system (eV)
  ---------------------------------------------------
  alpha Z        PSCENC =      2652.81237852
  Ewald energy   TEWEN  =    -41766.62994766
  -Hartree energ DENC   =    -25839.97051570
  -exchange      EXHF   =         0.00000000
  -V(xc)+E(xc)   XCENC  =      3606.31755126
  PAW double counting   =     55594.23204139   -59034.67079123
  entropy T*S    EENTRO =        -0.03536968
  eigenvalues    EBANDS =     -9606.94407182
  atomic energy  EATOM  =     73862.19814772
  Solvation  Ediel_sol  =         0.00000000
  ---------------------------------------------------
  free energy    TOTEN  =      -532.69057720 eV

  energy without entropy =     -532.65520752  energy(sigma->0) =     -532.67289236


--------------------------------------------------------------------------------------------------------




--------------------------------------- Iteration      1(   4)  ---------------------------------------


    EDDIAG:  cpu time    3.7893: real time    3.7967
  RMM-DIIS:  cpu time    6.5980: real time    6.6396
    ORTHCH:  cpu time    1.1478: real time    1.1515
       DOS:  cpu time    0.0012: real time    0.0012
    --------------------------------------------
      LOOP:  cpu time   11.5363: real time   11.5889

 eigenvalue-minimisations  :  7168
 total energy-change (2. order) :-0.5243861E+03  (-0.5064244E+03)
 number of electron     672.0000000 magnetization      48.0000000
 augmentation part      672.0000000 magnetization      48.0000000

 Free energy of the ion-electron system (eV)
  ---------------------------------------------------
  alpha Z        PSCENC =      2652.81237852
  Ewald energy   TEWEN  =    -41766.62994766
  -Hartree energ DENC   =    -25839.97051570
  -exchange      EXHF   =         0.00000000
  -V(xc)+E(xc)   XCENC  =      3606.31755126
  PAW double counting   =     55594.23204139   -59034.67079123
  entropy T*S    EENTRO =        -0.00000000
  eigenvalues    EBANDS =    -10131.36557355
  atomic energy  EATOM  =     73862.19814772
  Solvation  Ediel_sol  =         0.00000000
  ---------------------------------------------------
  free energy    TOTEN  =     -1057.07670924 eV

  energy without entropy =    -1057.07670924  energy(sigma->0) =    -1057.07670924


--------------------------------------------------------------------------------------------------------




--------------------------------------- Iteration      1(   5)  ---------------------------------------


    EDDIAG:  cpu time    3.7268: real time    3.7336
  RMM-DIIS:  cpu time    6.6111: real time    6.6236
    ORTHCH:  cpu time    1.1440: real time    1.1473
       DOS:  cpu time    0.0013: real time    0.0013
    --------------------------------------------
      LOOP:  cpu time   11.4831: real time   11.5058

 eigenvalue-minimisations  :  7168
 total energy-change (2. order) :-0.1484095E+03  (-0.2127176E+03)
 number of electron     672.0000000 magnetization      48.0000000
 augmentation part      672.0000000 magnetization      48.0000000

 Free energy of the ion-electron system (eV)
  ---------------------------------------------------
  alpha Z        PSCENC =      2652.81237852
  Ewald energy   TEWEN  =    -41766.62994766
  -Hartree energ DENC   =    -25839.97051570
  -exchange      EXHF   =         0.00000000
  -V(xc)+E(xc)   XCENC  =      3606.31755126
  PAW double counting   =     55594.23204139   -59034.67079123
  entropy T*S    EENTRO =        -0.00000000
  eigenvalues    EBANDS =    -10279.77502585
  atomic energy  EATOM  =     73862.19814772
  Solvation  Ediel_sol  =         0.00000000
  ---------------------------------------------------
  free energy    TOTEN  =     -1205.48616155 eV

  energy without entropy =    -1205.48616155  energy(sigma->0) =    -1205.48616155


--------------------------------------------------------------------------------------------------------




--------------------------------------- Iteration      1(   6)  ---------------------------------------


    EDDIAG:  cpu time    3.7165: real time    3.7244
  RMM-DIIS:  cpu time    6.5987: real time    6.6304
    ORTHCH:  cpu time    1.1508: real time    1.1545
       DOS:  cpu time    0.0015: real time    0.0015
    --------------------------------------------
      LOOP:  cpu time   11.4674: real time   11.5108

 eigenvalue-minimisations  :  7168
 total energy-change (2. order) :-0.2164927E+02  (-0.1149871E+03)
 number of electron     672.0000000 magnetization      48.0000000
 augmentation part      672.0000000 magnetization      48.0000000

 Free energy of the ion-electron system (eV)
  ---------------------------------------------------
  alpha Z        PSCENC =      2652.81237852
  Ewald energy   TEWEN  =    -41766.62994766
  -Hartree energ DENC   =    -25839.97051570
  -exchange      EXHF   =         0.00000000
  -V(xc)+E(xc)   XCENC  =      3606.31755126
  PAW double counting   =     55594.23204139   -59034.67079123
  entropy T*S    EENTRO =        -0.00000000
  eigenvalues    EBANDS =    -10301.42429473
  atomic energy  EATOM  =     73862.19814772
  Solvation  Ediel_sol  =         0.00000000
  ---------------------------------------------------
  free energy    TOTEN  =     -1227.13543042 eV

  energy without entropy =    -1227.13543042  energy(sigma->0) =    -1227.13543042


--------------------------------------------------------------------------------------------------------




--------------------------------------- Iteration      1(   7)  ---------------------------------------


    EDDIAG:  cpu time    3.7124: real time    3.7207
  RMM-DIIS:  cpu time    6.6085: real time    6.6204
    ORTHCH:  cpu time    1.1443: real time    1.1480
       DOS:  cpu time    0.0010: real time    0.0010
    --------------------------------------------
      LOOP:  cpu time   11.4662: real time   11.4901

 eigenvalue-minimisations  :  7168
 total energy-change (2. order) :-0.6814597E+01  (-0.7594192E+02)
 number of electron     672.0000000 magnetization      48.0000000
 augmentation part      672.0000000 magnetization      48.0000000

 Free energy of the ion-electron system (eV)
  ---------------------------------------------------
  alpha Z        PSCENC =      2652.81237852
  Ewald energy   TEWEN  =    -41766.62994766
  -Hartree energ DENC   =    -25839.97051570
  -exchange      EXHF   =         0.00000000
  -V(xc)+E(xc)   XCENC  =      3606.31755126
  PAW double counting   =     55594.23204139   -59034.67079123
  entropy T*S    EENTRO =        -0.00000000
  eigenvalues    EBANDS =    -10308.23889222
  atomic energy  EATOM  =     73862.19814772
  Solvation  Ediel_sol  =         0.00000000
  ---------------------------------------------------
  free energy    TOTEN  =     -1233.95002792 eV

  energy without entropy =    -1233.95002792  energy(sigma->0) =    -1233.95002792


--------------------------------------------------------------------------------------------------------




--------------------------------------- Iteration      1(   8)  ---------------------------------------


    EDDIAG:  cpu time    3.7103: real time    3.7182
  RMM-DIIS:  cpu time    6.6184: real time    6.6320
    ORTHCH:  cpu time    1.1399: real time    1.1431
       DOS:  cpu time    0.0010: real time    0.0010
    --------------------------------------------
      LOOP:  cpu time   11.4696: real time   11.4943

 eigenvalue-minimisations  :  7168
 total energy-change (2. order) : 0.4747158E+01  (-0.5248238E+02)
 number of electron     672.0000000 magnetization      48.0000000
 augmentation part      672.0000000 magnetization      48.0000000

 Free energy of the ion-electron system (eV)
  ---------------------------------------------------
  alpha Z        PSCENC =      2652.81237852
  Ewald energy   TEWEN  =    -41766.62994766
  -Hartree energ DENC   =    -25839.97051570
  -exchange      EXHF   =         0.00000000
  -V(xc)+E(xc)   XCENC  =      3606.31755126
  PAW double counting   =     55594.23204139   -59034.67079123
  entropy T*S    EENTRO =        -0.00000002
  eigenvalues    EBANDS =    -10303.49173429
  atomic energy  EATOM  =     73862.19814772
  Solvation  Ediel_sol  =         0.00000000
  ---------------------------------------------------
  free energy    TOTEN  =     -1229.20287001 eV

  energy without entropy =    -1229.20286999  energy(sigma->0) =    -1229.20287000


--------------------------------------------------------------------------------------------------------




--------------------------------------- Iteration      1(   9)  ---------------------------------------


    EDDIAG:  cpu time    3.7676: real time    3.7841
  RMM-DIIS:  cpu time   13.8882: real time   13.9143
    ORTHCH:  cpu time    1.1430: real time    1.1470
       DOS:  cpu time    0.0010: real time    0.0010
    --------------------------------------------
      LOOP:  cpu time   18.7998: real time   18.8464

 eigenvalue-minimisations  : 20208
 total energy-change (2. order) : 0.1793793E+02  (-0.2351198E+02)
 number of electron     672.0000000 magnetization      48.0000000
 augmentation part      672.0000000 magnetization      48.0000000

 Free energy of the ion-electron system (eV)
  ---------------------------------------------------
  alpha Z        PSCENC =      2652.81237852
  Ewald energy   TEWEN  =    -41766.62994766
  -Hartree energ DENC   =    -25839.97051570
  -exchange      EXHF   =         0.00000000
  -V(xc)+E(xc)   XCENC  =      3606.31755126
  PAW double counting   =     55594.23204139   -59034.67079123
  entropy T*S    EENTRO =        -0.00000000
  eigenvalues    EBANDS =    -10285.55380150
  atomic energy  EATOM  =     73862.19814772
  Solvation  Ediel_sol  =         0.00000000
  ---------------------------------------------------
  free energy    TOTEN  =     -1211.26493719 eV

  energy without entropy =    -1211.26493719  energy(sigma->0) =    -1211.26493719


--------------------------------------------------------------------------------------------------------




--------------------------------------- Iteration      1(  10)  ---------------------------------------


    EDDIAG:  cpu time    3.7048: real time    3.7120
  RMM-DIIS:  cpu time   15.7037: real time   15.7467
    ORTHCH:  cpu time    1.1462: real time    1.1504
       DOS:  cpu time    0.0013: real time    0.0013
    --------------------------------------------
      LOOP:  cpu time   20.5560: real time   20.6104

 eigenvalue-minimisations  : 20237
 total energy-change (2. order) :-0.3048589E+01  (-0.1034300E+01)
 number of electron     672.0000000 magnetization      48.0000000
 augmentation part      672.0000000 magnetization      48.0000000

 Free energy of the ion-electron system (eV)
  ---------------------------------------------------
  alpha Z        PSCENC =      2652.81237852
  Ewald energy   TEWEN  =    -41766.62994766
  -Hartree energ DENC   =    -25839.97051570
  -exchange      EXHF   =         0.00000000
  -V(xc)+E(xc)   XCENC  =      3606.31755126
  PAW double counting   =     55594.23204139   -59034.67079123
  entropy T*S    EENTRO =        -0.00000002
  eigenvalues    EBANDS =    -10288.60239001
  atomic energy  EATOM  =     73862.19814772
  Solvation  Ediel_sol  =         0.00000000
  ---------------------------------------------------
  free energy    TOTEN  =     -1214.31352572 eV

  energy without entropy =    -1214.31352571  energy(sigma->0) =    -1214.31352572


--------------------------------------------------------------------------------------------------------




--------------------------------------- Iteration      1(  11)  ---------------------------------------


    EDDIAG:  cpu time    3.7686: real time    3.7757
  RMM-DIIS:  cpu time   15.1159: real time   15.1427
    ORTHCH:  cpu time    1.1465: real time    1.1507
       DOS:  cpu time    0.0010: real time    0.0010
    --------------------------------------------
      LOOP:  cpu time   20.0320: real time   20.0702

 eigenvalue-minimisations  : 21656
 total energy-change (2. order) : 0.1074859E+00  (-0.9614591E-01)
 number of electron     672.0000000 magnetization      48.0000000
 augmentation part      672.0000000 magnetization      48.0000000

 Free energy of the ion-electron system (eV)
  ---------------------------------------------------
  alpha Z        PSCENC =      2652.81237852
  Ewald energy   TEWEN  =    -41766.62994766
  -Hartree energ DENC   =    -25839.97051570
  -exchange      EXHF   =         0.00000000
  -V(xc)+E(xc)   XCENC  =      3606.31755126
  PAW double counting   =     55594.23204139   -59034.67079123
  entropy T*S    EENTRO =        -0.00000002
  eigenvalues    EBANDS =    -10288.49490411
  atomic energy  EATOM  =     73862.19814772
  Solvation  Ediel_sol  =         0.00000000
  ---------------------------------------------------
  free energy    TOTEN  =     -1214.20603983 eV

  energy without entropy =    -1214.20603981  energy(sigma->0) =    -1214.20603982


--------------------------------------------------------------------------------------------------------




--------------------------------------- Iteration      1(  12)  ---------------------------------------


    EDDIAG:  cpu time    3.7158: real time    3.7928
  RMM-DIIS:  cpu time   16.1249: real time   16.1548
    ORTHCH:  cpu time    1.1619: real time    1.1652
       DOS:  cpu time    0.0013: real time    0.0013
    CHARGE:  cpu time    1.3412: real time    1.3438
    MIXING:  cpu time    0.0012: real time    0.0015
    --------------------------------------------
      LOOP:  cpu time   22.3463: real time   22.4595

 eigenvalue-minimisations  : 22877
 total energy-change (2. order) : 0.6079683E-02  (-0.7149402E-02)
 number of electron     672.0000243 magnetization      48.0000006
 augmentation part      239.1057939 magnetization      29.0252962

 Broyden mixing:
  rms(total) = 0.12628E+02    rms(broyden)= 0.12618E+02
  rms(prec ) = 0.14474E+02
  weight for this iteration     100.00

 Free energy of the ion-electron system (eV)
  ---------------------------------------------------
  alpha Z        PSCENC =      2652.81237852
  Ewald energy   TEWEN  =    -41766.62994766
  -Hartree energ DENC   =    -25839.97051570
  -exchange      EXHF   =         0.00000000
  -V(xc)+E(xc)   XCENC  =      3606.31755126
  PAW double counting   =     55594.23204139   -59034.67079123
  entropy T*S    EENTRO =        -0.00000001
  eigenvalues    EBANDS =    -10288.48882443
  atomic energy  EATOM  =     73862.19814772
  Solvation  Ediel_sol  =         0.00000000
  ---------------------------------------------------
  free energy    TOTEN  =     -1214.19996014 eV

  energy without entropy =    -1214.19996013  energy(sigma->0) =    -1214.19996014


--------------------------------------------------------------------------------------------------------




--------------------------------------- Iteration      1(  13)  ---------------------------------------


    POTLOK:  cpu time    0.1980: real time    0.1990
    SETDIJ:  cpu time    3.2619: real time    3.2642
    EDDIAG:  cpu time    3.7209: real time    3.7296
  RMM-DIIS:  cpu time   13.0232: real time   13.0698
    ORTHCH:  cpu time    1.1699: real time    1.1731
       DOS:  cpu time    0.0014: real time    0.0014
    CHARGE:  cpu time    1.3426: real time    1.3452
    MIXING:  cpu time    0.0008: real time    0.0008
    --------------------------------------------
      LOOP:  cpu time   22.7186: real time   22.7832

 eigenvalue-minimisations  : 17316
 total energy-change (2. order) : 0.2246593E+03  (-0.1387972E+03)
 number of electron     672.0000351 magnetization      48.0000006
 augmentation part      269.0189333 magnetization      26.5173439

 Broyden mixing:
  rms(total) = 0.13993E+02    rms(broyden)= 0.13990E+02
  rms(prec ) = 0.15724E+02
  weight for this iteration     100.00

 eigenvalues of (default mixing * dielectric matrix)
  average eigenvalue GAMMA=   0.3183
  0.3183

 Free energy of the ion-electron system (eV)
  ---------------------------------------------------
  alpha Z        PSCENC =      2652.81237852
  Ewald energy   TEWEN  =    -41766.62994766
  -Hartree energ DENC   =    -25174.02538778
  -exchange      EXHF   =         0.00000000
  -V(xc)+E(xc)   XCENC  =      3696.78751631
  PAW double counting   =     59937.88069775   -63363.39591643
  entropy T*S    EENTRO =        -0.06507621
  eigenvalues    EBANDS =    -10835.10309465
  atomic energy  EATOM  =     73862.19814772
  Solvation  Ediel_sol  =         0.00000000
  ---------------------------------------------------
  free energy    TOTEN  =      -989.54068242 eV

  energy without entropy =     -989.47560621  energy(sigma->0) =     -989.50814431


--------------------------------------------------------------------------------------------------------




--------------------------------------- Iteration      1(  14)  ---------------------------------------


    POTLOK:  cpu time    0.2015: real time    0.2019
    SETDIJ:  cpu time    3.2551: real time    3.2572
    EDDIAG:  cpu time    3.7160: real time    3.7242
  RMM-DIIS:  cpu time   13.6122: real time   13.6540
    ORTHCH:  cpu time    1.1526: real time    1.1564
       DOS:  cpu time    0.0012: real time    0.0012
    CHARGE:  cpu time    1.3411: real time    1.3433
    MIXING:  cpu time    0.0007: real time    0.0007
    --------------------------------------------
      LOOP:  cpu time   23.2804: real time   23.3389

 eigenvalue-minimisations  : 17782
 total energy-change (2. order) : 0.7464710E+02  (-0.1879788E+02)
 number of electron     672.0000289 magnetization      48.0000009
 augmentation part      246.6978455 magnetization      32.1869183

 Broyden mixing:
  rms(total) = 0.52904E+01    rms(broyden)= 0.52861E+01
  rms(prec ) = 0.57174E+01
  weight for this iteration     100.00

 eigenvalues of (default mixing * dielectric matrix)
  average eigenvalue GAMMA=   0.7304
  1.1012  0.3596

 Free energy of the ion-electron system (eV)
  ---------------------------------------------------
  alpha Z        PSCENC =      2652.81237852
  Ewald energy   TEWEN  =    -41766.62994766
  -Hartree energ DENC   =    -25784.42329800
  -exchange      EXHF   =         0.00000000
  -V(xc)+E(xc)   XCENC  =      3674.67720215
  PAW double counting   =     63372.25649747   -66854.96646653
  entropy T*S    EENTRO =        -0.00000000
  eigenvalues    EBANDS =    -10070.81809224
  atomic energy  EATOM  =     73862.19814772
  Solvation  Ediel_sol  =         0.00000000
  ---------------------------------------------------
  free energy    TOTEN  =      -914.89357856 eV

  energy without entropy =     -914.89357856  energy(sigma->0) =     -914.89357856


--------------------------------------------------------------------------------------------------------




--------------------------------------- Iteration      1(  15)  ---------------------------------------


    POTLOK:  cpu time    0.2014: real time    0.2027
    SETDIJ:  cpu time    3.2567: real time    3.2596
    EDDIAG:  cpu time    3.7396: real time    3.7475
  RMM-DIIS:  cpu time   13.5515: real time   13.5762
    ORTHCH:  cpu time    1.1512: real time    1.1544
       DOS:  cpu time    0.0010: real time    0.0010
    CHARGE:  cpu time    1.3410: real time    1.3431
    MIXING:  cpu time    0.0006: real time    0.0006
    --------------------------------------------
      LOOP:  cpu time   23.2429: real time   23.2851

 eigenvalue-minimisations  : 18357
 total energy-change (2. order) : 0.1373111E+02  (-0.2303908E+01)
 number of electron     672.0000303 magnetization      48.0000013
 augmentation part      249.6468697 magnetization      33.7800177

 Broyden mixing:
  rms(total) = 0.22528E+01    rms(broyden)= 0.22524E+01
  rms(prec ) = 0.23459E+01
  weight for this iteration     100.00

 eigenvalues of (default mixing * dielectric matrix)
  average eigenvalue GAMMA=   0.9195
  1.6435  0.3872  0.7277

 Free energy of the ion-electron system (eV)
  ---------------------------------------------------
  alpha Z        PSCENC =      2652.81237852
  Ewald energy   TEWEN  =    -41766.62994766
  -Hartree energ DENC   =    -25710.52100878
  -exchange      EXHF   =         0.00000000
  -V(xc)+E(xc)   XCENC  =      3707.11943139
  PAW double counting   =     67480.18696717   -71003.56251308
  entropy T*S    EENTRO =        -0.00000000
  eigenvalues    EBANDS =    -10122.76592798
  atomic energy  EATOM  =     73862.19814772
  Solvation  Ediel_sol  =         0.00000000
  ---------------------------------------------------
  free energy    TOTEN  =      -901.16247270 eV

  energy without entropy =     -901.16247270  energy(sigma->0) =     -901.16247270


--------------------------------------------------------------------------------------------------------




--------------------------------------- Iteration      1(  16)  ---------------------------------------


    POTLOK:  cpu time    0.2044: real time    0.2049
    SETDIJ:  cpu time    3.2783: real time    3.2956
    EDDIAG:  cpu time    3.7339: real time    3.7420
  RMM-DIIS:  cpu time   13.2103: real time   13.2335
    ORTHCH:  cpu time    1.1486: real time    1.1520
       DOS:  cpu time    0.0012: real time    0.0012
    CHARGE:  cpu time    1.3406: real time    1.3426
    MIXING:  cpu time    0.0009: real time    0.0009
    --------------------------------------------
      LOOP:  cpu time   22.9183: real time   22.9728

 eigenvalue-minimisations  : 17534
 total energy-change (2. order) :-0.1268803E+01  (-0.7324567E+00)
 number of electron     672.0000307 magnetization      48.0000014
 augmentation part      251.0709927 magnetization      33.8855553

 Broyden mixing:
  rms(total) = 0.15323E+01    rms(broyden)= 0.15318E+01
  rms(prec ) = 0.16144E+01
  weight for this iteration     100.00

 eigenvalues of (default mixing * dielectric matrix)
  average eigenvalue GAMMA=   0.9607
  2.0670  0.8842  0.3937  0.4980

 Free energy of the ion-electron system (eV)
  ---------------------------------------------------
  alpha Z        PSCENC =      2652.81237852
  Ewald energy   TEWEN  =    -41766.62994766
  -Hartree energ DENC   =    -25662.72936329
  -exchange      EXHF   =         0.00000000
  -V(xc)+E(xc)   XCENC  =      3708.22047042
  PAW double counting   =     70328.43911201   -73880.51691830
  entropy T*S    EENTRO =        -0.00000000
  eigenvalues    EBANDS =    -10144.22515515
  atomic energy  EATOM  =     73862.19814772
  Solvation  Ediel_sol  =         0.00000000
  ---------------------------------------------------
  free energy    TOTEN  =      -902.43127573 eV

  energy without entropy =     -902.43127573  energy(sigma->0) =     -902.43127573


--------------------------------------------------------------------------------------------------------




--------------------------------------- Iteration      1(  17)  ---------------------------------------


    POTLOK:  cpu time    0.2047: real time    0.2049
    SETDIJ:  cpu time    3.2958: real time    3.2982
    EDDIAG:  cpu time    3.7322: real time    3.7419
  RMM-DIIS:  cpu time   13.8942: real time   14.0205
    ORTHCH:  cpu time    1.1553: real time    1.1587
       DOS:  cpu time    0.0010: real time    0.0010
    CHARGE:  cpu time    1.3430: real time    1.3451
    MIXING:  cpu time    0.0017: real time    0.0017
    --------------------------------------------
      LOOP:  cpu time   23.6279: real time   23.7720

 eigenvalue-minimisations  : 18642
 total energy-change (2. order) : 0.9589902E-01  (-0.9858998E-01)
 number of electron     672.0000309 magnetization      48.0000016
 augmentation part      251.1344453 magnetization      33.8877254

 Broyden mixing:
  rms(total) = 0.79972E+00    rms(broyden)= 0.79951E+00
  rms(prec ) = 0.90338E+00
  weight for this iteration     100.00

 eigenvalues of (default mixing * dielectric matrix)
  average eigenvalue GAMMA=   0.9795
  2.2137  1.0942  0.3807  0.6667  0.5424

 Free energy of the ion-electron system (eV)
  ---------------------------------------------------
  alpha Z        PSCENC =      2652.81237852
  Ewald energy   TEWEN  =    -41766.62994766
  -Hartree energ DENC   =    -25651.47027421
  -exchange      EXHF   =         0.00000000
  -V(xc)+E(xc)   XCENC  =      3705.81245176
  PAW double counting   =     71286.29957877   -74847.70242665
  entropy T*S    EENTRO =        -0.00000000
  eigenvalues    EBANDS =    -10143.65528496
  atomic energy  EATOM  =     73862.19814772
  Solvation  Ediel_sol  =         0.00000000
  ---------------------------------------------------
  free energy    TOTEN  =      -902.33537671 eV

  energy without entropy =     -902.33537671  energy(sigma->0) =     -902.33537671


--------------------------------------------------------------------------------------------------------




--------------------------------------- Iteration      1(  18)  ---------------------------------------


    POTLOK:  cpu time    0.1981: real time    0.1983
    SETDIJ:  cpu time    3.2784: real time    3.2813
    EDDIAG:  cpu time    3.7465: real time    3.7534
  RMM-DIIS:  cpu time   13.3693: real time   13.4122
    ORTHCH:  cpu time    1.1564: real time    1.1597
       DOS:  cpu time    0.0011: real time    0.0011
    CHARGE:  cpu time    1.3406: real time    1.3426
    MIXING:  cpu time    0.0013: real time    0.0013
    --------------------------------------------
      LOOP:  cpu time   23.0917: real time   23.1499

 eigenvalue-minimisations  : 17697
 total energy-change (2. order) : 0.4272630E+00  (-0.7431327E-01)
 number of electron     672.0000306 magnetization      48.0000017
 augmentation part      250.6454747 magnetization      33.8596368

 Broyden mixing:
  rms(total) = 0.30880E+00    rms(broyden)= 0.30857E+00
  rms(prec ) = 0.32623E+00
  weight for this iteration     100.00

 eigenvalues of (default mixing * dielectric matrix)
  average eigenvalue GAMMA=   1.0125
  2.4496  1.3637  0.8360  0.5845  0.3833  0.4581

[...]
   4      -1.015    -0.908     1.923    -0.056     0.059     0.031
   5      -0.579    -0.871     1.450     0.028     0.073    -0.547
   6      -0.842    -0.773     1.615     0.143    -0.418     0.221
   7      -0.615    -0.877     1.492     0.051     0.050     0.515
   8      -0.858    -0.724     1.582    -0.098    -0.412    -0.248
   9      -0.994    -0.794     1.788    -0.013    -0.054    -0.052
  10      -0.753    -0.575     1.328     0.116    -0.317     0.236
  11      -0.679    -0.864     1.543    -0.002    -0.070    -0.547
  12      -0.992    -0.818     1.810    -0.009     0.034     0.023
  13      -0.697    -0.721     1.418     0.137     0.395    -0.309
  14      -0.865    -0.700     1.565     0.012     0.369    -0.264
  15      -1.028    -0.778     1.806     0.015     0.050    -0.004
  16      -0.839    -0.566     1.406    -0.066     0.284     0.321
  17       1.236     1.591    -2.827     0.176     0.022    -0.164
  18       1.511     1.335    -2.846     0.105    -0.021     0.025
  19       1.398     1.574    -2.972     0.046     0.014    -0.186
  20       1.564     1.399    -2.963     0.023     0.034     0.028
  21       1.313     1.577    -2.890    -0.411    -0.001     0.027
  22       1.376     1.593    -2.969    -0.124     0.054    -0.016
  23       1.481     1.470    -2.950    -0.025    -0.061     0.157
  24       1.497     1.299    -2.796     0.049    -0.072    -0.144
  25      -0.209    -1.205     1.413    -0.451     0.694    -0.793
  26       0.301    -0.552     0.252    -0.944    -0.439    -0.138
  27      -0.261    -1.827     2.088     0.093    -0.037    -0.754
  28      -0.295    -0.018     0.313    -0.891     0.807    -0.975
  29       2.573    -3.217     0.644     0.816     0.859     0.733
  30      -0.855    -0.467     1.322    -1.559    -0.656     0.224
  31      -2.885     3.108    -0.222     1.052     0.336     0.019
  32      -0.013    -0.741     0.754     0.209    -0.315    -1.049
  33      -0.184    -1.462     1.646     0.562    -0.106    -0.505
  34       0.621    -0.631     0.010     0.845    -1.258    -0.468
  35      -0.172     1.553    -1.382     1.258     0.258     0.966
  36       1.349     0.259    -1.608     0.670    -1.228    -0.243
  37       1.405     0.414    -1.819     0.261    -0.351    -1.273
  38       0.797    -1.986     1.189     0.948     0.136    -0.003
  39       0.371    -1.445     1.074     1.216    -0.267     0.747
  40      -1.731    -0.308     2.039     1.245    -0.250     1.047
  41      -2.907     2.005     0.902    -4.267     1.895    -5.199
  42      -3.073     3.429    -0.356     4.621     0.799     3.378
  43       4.336    -3.824    -0.512     0.588    -5.644     1.312
  44      -3.832     2.620     1.212     5.341    -3.504    -4.296
  45      -2.949     4.603    -1.654    -4.651    -0.788     2.169
  46       4.212    -4.486     0.274     0.370     3.940     0.426
  47      -4.187     0.417     3.770    -4.844     1.775    -6.164
  48       6.525    -6.872     0.346     0.195    -3.068    -0.128
  49      -5.652     4.295     1.357     3.103     1.911     4.234
  50       6.043    -6.645     0.602    -0.848     5.598    -1.275
  51      -2.149     2.724    -0.575    -4.504    -1.637     3.284
  52      -3.819     4.339    -0.519     5.276    -2.828    -5.319
  53      -4.221     0.860     3.361    -3.384     3.668    -4.633
  54      -3.266     1.926     1.339     6.059     2.265     4.719
  55       5.775    -6.692     0.918    -0.887    -4.682     0.337
  56      -5.744     4.185     1.559     5.511    -3.582    -5.509
  57      -2.792     1.606     1.186    -4.520    -2.634     4.055
  58       4.434    -6.549     2.115    -1.512     4.917    -0.563
  59      -3.057     3.946    -0.889    -5.603     0.945    -3.783
  60       7.726    -6.012    -1.713    -1.506    -4.662    -0.030
  61      -2.489     0.875     1.614     2.911     2.542     4.408
  62       4.707    -5.677     0.969     0.604     3.568    -1.480
  63      -2.766     1.506     1.260    -4.755    -2.103     3.960
  64      -3.595     2.587     1.008     5.304    -2.519    -4.398
  65      -4.773     2.707     2.066    -4.553     2.567    -3.386
  66      -2.735     3.264    -0.528     4.881     2.162     3.083
  67       5.283    -5.551     0.268     1.200    -5.461     1.453
  68      -3.252     2.972     0.280     4.262    -1.275    -3.058
  69      -3.130     2.032     1.098    -5.044    -2.673     4.032
  70       5.472    -5.969     0.497     0.882     3.913     0.700
  71      -0.084     0.313    -0.230    -5.226     0.593    -4.344
  72       5.464    -6.484     1.020    -0.112    -4.455    -0.308
  73      -1.412     1.871    -0.459     5.540     2.000     2.816
  74       4.823    -6.539     1.717     1.120     4.373     0.218
  75      -2.584    -0.717     3.302    -5.508    -2.826     3.953
  76      -3.194     3.035     0.159     4.995    -1.614    -3.570
  77      -2.689     2.696    -0.008    -4.480     4.154    -2.410
  78      -5.308     4.990     0.318     5.205     3.685     3.680
  79       5.996    -7.531     1.535     0.975    -4.719     0.851
  80      -2.721     3.166    -0.445     6.041    -2.783    -3.393
  81      -4.032     4.648    -0.617    -6.691    -2.189     4.443
  82       4.377    -5.712     1.334     1.115     5.071     0.994
  83      -1.297    -0.368     1.665    -4.645     0.865    -4.825
  84       7.307    -6.505    -0.802     0.581    -4.711     0.509
  85      -2.680    -0.867     3.547     3.040     1.463     4.213
  86       6.415    -5.391    -1.023     0.671     3.514     0.400
  87      -3.662     3.970    -0.307    -3.555    -2.132     4.313
  88      -2.710     3.940    -1.230     5.789    -1.683    -4.371
 ---------------------------------------------------------------------


 Total hyperfine coupling parameters after diagonalization (MHz)
 (convention: |A_zz| > |A_xx| > |A_yy|)
 ----------------------------------------------------------------------
  ion      A_xx      A_yy      A_zz     asymmetry (A_yy - A_xx)/ A_zz 
 ----------------------------------------------------------------------
   1       1.259     0.904     3.191      -0.111
   2       2.077     1.719     4.234      -0.085
   3       2.185     1.653     4.193      -0.127
   4       0.285     0.129     3.093      -0.050
   5       1.770     1.348     3.921      -0.107
   6       2.352     1.978     4.714      -0.079
   7       2.707     2.331     4.920      -0.076
   8       2.505     2.178     4.849      -0.067
   9       0.789     0.587     3.373      -0.060
  10       1.752     1.393     3.671      -0.098
  11       1.760     1.457     4.104      -0.074
  12       0.357     0.181     2.984      -0.059
  13       2.373     1.996     4.471      -0.084
  14       2.069     1.853     4.433      -0.049
  15       0.408     0.155     2.992      -0.085
  16       0.860     0.526     2.925      -0.114
  17      12.887     8.889    13.390      -0.299
  18      12.833     8.701    13.107      -0.315
  19      14.415    10.048    14.620      -0.299
  20      15.106    10.746    15.277      -0.285
  21      13.318     9.414    14.180      -0.275
  22      15.274    10.984    15.603      -0.275
  23      15.666    11.259    15.721      -0.280
  24      12.770     8.677    12.990      -0.315
  25      99.988    98.951   102.363      -0.010
  26      95.836    94.371    96.648      -0.015
  27      96.854    95.140    99.342      -0.017
  28      93.669    93.364    96.236      -0.003
  29      96.538    92.758    99.250      -0.038
  30     103.332   100.572   104.610      -0.026
  31      95.122    92.206    98.597      -0.030
  32      99.278    98.107   100.785      -0.012
  33      92.346    90.632    94.108      -0.018
  34      96.305    96.015    99.103      -0.003
  35      94.952    94.050    98.198      -0.009
  36      95.947    93.915    98.039      -0.021
  37      92.658    89.483    93.532      -0.034
  38      98.312    95.032    98.589      -0.033
  39      97.891    94.697    98.228      -0.033
  40      99.239    96.534   101.562      -0.027
  41       5.658     2.839    16.915      -0.167
  42       6.259     2.296    15.252      -0.260
  43       5.096     2.230    15.751      -0.182
  44       4.932     0.272    16.602      -0.281
  45       6.979     4.021    16.601      -0.178
  46       4.874     2.499    13.697      -0.173
  47       7.412     1.996    19.527      -0.277
  48       8.131     2.173    16.842      -0.354
  49       5.634     0.665    15.538      -0.320
  50       4.417     0.355    16.885      -0.241
  51       6.064     3.492    15.495      -0.166
  52       4.939     2.381    19.087      -0.134
  53       2.942    -0.589    14.388      -0.245
  54       7.855     2.491    19.138      -0.280
  55       5.128     0.295    15.727      -0.307
  56       6.241     0.631    20.064      -0.280
  57       2.541    -0.790    12.740      -0.261
  58       4.799    -0.227    15.011      -0.335
  59       5.975     1.757    16.711      -0.252
  60       4.614     1.838    17.868      -0.155
  61       2.710     1.567    12.931      -0.088
  62       6.737     1.246    14.299      -0.384
  63       5.942     1.891    15.453      -0.262
  64       4.186    -0.208    15.328      -0.287
  65       4.791    -1.392    13.500      -0.458
  66       3.238    -0.068    13.136      -0.252
  67       2.976    -1.427    13.957      -0.315
  68       6.401     2.350    14.591      -0.278
  69       4.857     0.760    15.323      -0.267
  70       5.620     1.197    14.976      -0.295
  71       6.007     0.340    13.932      -0.407
  72       5.931     1.139    15.867      -0.302
  73       4.581     0.985    14.040      -0.256
  74       4.475    -0.850    13.789      -0.386
  75       5.629    -0.404    15.327      -0.394
  76       6.202     2.030    15.822      -0.264
  77       7.131     1.919    15.961      -0.327
  78       5.254    -1.158    16.594      -0.386
  79       9.107     2.537    19.312      -0.340
  80       7.345     3.178    18.703      -0.223
  81       5.477     0.618    18.781      -0.259
  82       2.211    -1.230    12.953      -0.266
  83       7.614     1.800    15.587      -0.373
  84       6.512     2.694    18.815      -0.203
  85       2.843    -0.690    11.508      -0.307
  86       5.887     2.862    16.161      -0.187
  87       3.376     1.234    14.463      -0.148
  88       4.313     1.200    16.744      -0.186
 ---------------------------------------------------------------------



--------------------------------------------------------------------------------------------------------


 stress matrix after NEB project (eV)
    -40.42683     -2.31821     10.10507
     -2.31984    -42.14215      4.93606
     10.03615      4.93473    -56.99692
  FORCES: max atom, RMS     2.638619    1.190244
  FORCE total and by dimension   11.165481    2.178651
  Stress total and by dimension   83.194031   56.996919
     LOOP+:  cpu time  567.6475: real time  569.3893
    4ORBIT:  cpu time    0.0000: real time    0.0000
 


 total charge     
 
# of ion       s       p       d       tot
------------------------------------------
    1        0.051   5.994   0.000   6.045
    2        0.053   5.995   0.000   6.048
    3        0.054   5.996   0.000   6.050
    4        0.046   5.989   0.000   6.035
    5        0.049   5.992   0.000   6.041
    6        0.049   5.991   0.000   6.039
    7        0.054   5.996   0.000   6.050
    8        0.053   5.996   0.000   6.049
    9        0.050   5.994   0.000   6.045
   10        0.051   5.993   0.000   6.044
   11        0.052   5.994   0.000   6.046
   12        0.048   5.993   0.000   6.041
   13        0.051   5.994   0.000   6.045
   14        0.057   6.002   0.000   6.058
   15        0.055   6.001   0.000   6.056
   16        0.060   6.006   0.000   6.066
   17        0.148   6.126   0.082   6.356
   18        0.148   6.126   0.082   6.356
   19        0.155   6.138   0.092   6.385
   20        0.149   6.130   0.085   6.364
   21        0.149   6.128   0.083   6.361
   22        0.147   6.125   0.081   6.353
   23        0.147   6.124   0.081   6.353
   24        0.141   6.113   0.073   6.327
   25        0.365   6.434   4.807  11.605
   26        0.377   6.454   4.837  11.668
   27        0.397   6.501   4.877  11.775
   28        0.373   6.451   4.824  11.648
   29        0.387   6.482   4.865  11.734
   30        0.346   6.391   4.771  11.509
   31        0.377   6.459   4.846  11.682
   32        0.372   6.448   4.826  11.646
   33        0.394   6.490   4.879  11.763
   34        0.366   6.436   4.807  11.609
   35        0.371   6.448   4.821  11.640
   36        0.382   6.470   4.845  11.697
   37        0.388   6.486   4.860  11.735
   38        0.377   6.454   4.833  11.663
   39        0.390   6.485   4.861  11.736
   40        0.372   6.447   4.808  11.627
   41        1.600   3.511   0.000   5.111
   42        1.595   3.481   0.000   5.075
   43        1.598   3.502   0.000   5.100
   44        1.602   3.525   0.000   5.127
   45        1.597   3.493   0.000   5.090
   46        1.597   3.529   0.000   5.126
   47        1.605   3.523   0.000   5.129
   48        1.599   3.532   0.000   5.131
   49        1.599   3.504   0.000   5.103
   50        1.600   3.516   0.000   5.116
   51        1.597   3.503   0.000   5.100
   52        1.602   3.484   0.000   5.087
   53        1.599   3.496   0.000   5.094
   54        1.601   3.476   0.000   5.077
   55        1.598   3.501   0.000   5.099
   56        1.603   3.508   0.000   5.111
   57        1.597   3.499   0.000   5.096
   58        1.601   3.557   0.000   5.159
   59        1.603   3.498   0.000   5.100
   60        1.600   3.492   0.000   5.093
   61        1.598   3.501   0.000   5.099
   62        1.597   3.491   0.000   5.089
   63        1.598   3.511   0.000   5.109
   64        1.600   3.520   0.000   5.120
   65        1.599   3.497   0.000   5.096
   66        1.601   3.508   0.000   5.109
   67        1.597   3.477   0.000   5.075
   68        1.597   3.513   0.000   5.110
   69        1.598   3.503   0.000   5.101
   70        1.599   3.510   0.000   5.109
   71        1.597   3.528   0.000   5.124
   72        1.597   3.516   0.000   5.113
   73        1.600   3.489   0.000   5.089
   74        1.598   3.511   0.000   5.109
   75        1.602   3.535   0.000   5.137
   76        1.597   3.530   0.000   5.127
   77        1.601   3.516   0.000   5.116
   78        1.603   3.506   0.000   5.109
   79        1.601   3.514   0.000   5.115
   80        1.599   3.510   0.000   5.109
   81        1.603   3.477   0.000   5.079
   82        1.597   3.484   0.000   5.082
   83        1.598   3.503   0.000   5.101
   84        1.600   3.504   0.000   5.104
   85        1.596   3.536   0.000   5.132
   86        1.598   3.527   0.000   5.125
   87        1.601   3.473   0.000   5.074
   88        1.598   3.501   0.000   5.099
--------------------------------------------------
tot         84.816 416.591  78.027 579.434
 


 magnetization (x)
 
# of ion       s       p       d       tot
------------------------------------------
    1        0.001   0.000   0.000   0.002
    2        0.002   0.000   0.000   0.002
    3        0.002   0.001   0.000   0.002
    4        0.001   0.000   0.000   0.001
    5        0.002  -0.000   0.000   0.002
    6        0.002   0.000   0.000   0.003
    7        0.002   0.000   0.000   0.003
    8        0.002   0.001   0.000   0.003
    9        0.001   0.001   0.000   0.002
   10        0.002   0.000   0.000   0.002
   11        0.002   0.000   0.000   0.002
   12        0.001   0.000   0.000   0.001
   13        0.002   0.000   0.000   0.002
   14        0.002   0.000   0.000   0.002
   15        0.001   0.000   0.000   0.001
   16        0.001  -0.000   0.000   0.001
   17        0.007   0.002   0.001   0.010
   18        0.006   0.001   0.001   0.009
   19        0.007   0.002   0.001   0.011
   20        0.007   0.003   0.001   0.011
   21        0.007   0.002   0.001   0.010
   22        0.008   0.003   0.001   0.012
   23        0.008   0.003   0.001   0.012
   24        0.007   0.001   0.001   0.009
   25        0.016   0.030   2.793   2.839
   26        0.015   0.028   2.747   2.790
   27        0.015   0.032   2.721   2.768
   28        0.015   0.029   2.760   2.804
   29        0.015   0.031   2.718   2.765
   30        0.016   0.029   2.832   2.877
   31        0.015   0.029   2.739   2.782
   32        0.016   0.031   2.762   2.809
   33        0.014   0.030   2.711   2.755
   34        0.015   0.030   2.775   2.820
   35        0.015   0.030   2.761   2.806
   36        0.015   0.031   2.737   2.782
   37        0.014   0.029   2.716   2.760
   38        0.016   0.030   2.751   2.797
   39        0.016   0.032   2.728   2.776
   40        0.016   0.031   2.776   2.823
   41        0.002   0.036   0.000   0.038
   42        0.002   0.027   0.000   0.029
   43        0.002   0.036   0.000   0.038
   44        0.002   0.038   0.000   0.040
   45        0.003   0.035   0.000   0.037
   46        0.002   0.033   0.000   0.035
   47        0.002   0.053   0.000   0.055
   48        0.002   0.051   0.000   0.053
   49        0.002   0.041   0.000   0.043
   50        0.002   0.041   0.000   0.043
   51        0.002   0.035   0.000   0.037
   52        0.002   0.039   0.000   0.041
   53        0.002   0.016   0.000   0.018
   54        0.003   0.038   0.000   0.041
   55        0.002   0.035   0.000   0.037
   56        0.002   0.058   0.000   0.060
   57        0.001   0.009   0.000   0.011
   58        0.002   0.039   0.000   0.040
   59        0.002   0.027   0.000   0.029
   60        0.002   0.033   0.000   0.035
   61        0.002   0.010   0.000   0.012
   62        0.002   0.024   0.000   0.026
   63        0.002   0.034   0.000   0.037
   64        0.002   0.031   0.000   0.032
   65        0.002   0.021   0.000   0.022
   66        0.002   0.015   0.000   0.017
   67        0.002   0.009   0.000   0.010
   68        0.002   0.042   0.000   0.044
   69        0.002   0.032   0.000   0.034
   70        0.002   0.030   0.000   0.032
   71        0.002   0.027   0.000   0.028
   72        0.002   0.039   0.000   0.041
   73        0.002   0.026   0.000   0.028
   74        0.002   0.025   0.000   0.027
   75        0.002   0.043   0.000   0.045
   76        0.002   0.045   0.000   0.047
   77        0.002   0.043   0.000   0.045
   78        0.002   0.025   0.000   0.027
   79        0.002   0.063   0.000   0.066
   80        0.002   0.051   0.000   0.054
   81        0.002   0.040   0.000   0.042
   82        0.001   0.011   0.000   0.013
   83        0.002   0.039   0.000   0.041
   84        0.002   0.044   0.000   0.047
   85        0.001   0.020   0.000   0.021
   86        0.002   0.043   0.000   0.045
   87        0.002   0.018   0.000   0.019
   88        0.002   0.028   0.000   0.030
--------------------------------------------------
tot          0.421   2.103  44.036  46.561
 

 total amount of memory used by VASP MPI-rank0    88186. kBytes
=======================================================================

   base      :      30000. kBytes
   nonlr-proj:      13677. kBytes
   fftplans  :        992. kBytes
   grid      :      21513. kBytes
   one-center:       2737. kBytes
   wavefun   :      19267. kBytes
 
  
  
 General timing and accounting informations for this job:
 ========================================================
  
                  Total CPU time used (sec):      586.133
                            User time (sec):      580.758
                          System time (sec):        5.376
                         Elapsed time (sec):      590.762
  
                   Maximum memory used (kb):      183464.
                   Average memory used (kb):           0.
  
                          Minor page faults:       308731
                          Major page faults:            0
                 Voluntary context switches:         3462
