 vasp.5.4.4.18Apr17-6-g9f103f2a35 (build Dec 02 2020 12:53:39) complex          
  
 executed on             LinuxIFC date 2021.08.04  05:12:28
 running on  112 total cores
 distrk:  each k-point on  112 cores,    1 groups
 distr:  one band on NCORES_PER_BAND=   1 cores,  112 groups


--------------------------------------------------------------------------------------------------------


 INCAR:
 POTCAR:    PAW_PBE Na_pv 19Sep2006               
 POTCAR:    PAW_PBE Mg_pv 13Apr2007               
 POTCAR:    PAW_PBE Mn_pv 02Aug2007               
 POTCAR:    PAW_PBE O 08Apr2002                   

 ----------------------------------------------------------------------------- 
|                                                                             |
|           W    W    AA    RRRRR   N    N  II  N    N   GGGG   !!!           |
|           W    W   A  A   R    R  NN   N  II  NN   N  G    G  !!!           |
|           W    W  A    A  R    R  N N  N  II  N N  N  G       !!!           |
|           W WW W  AAAAAA  RRRRR   N  N N  II  N  N N  G  GGG   !            |
|           WW  WW  A    A  R   R   N   NN  II  N   NN  G    G                |
|           W    W  A    A  R    R  N    N  II  N    N   GGGG   !!!           |
|                                                                             |
|      For optimal performance we recommend to set                            |
|        NCORE= 4 - approx SQRT( number of cores)                             |
|      NCORE specifies how many cores store one orbital (NPAR=cpu/NCORE).     |
|      This setting can  greatly improve the performance of VASP for DFT.     |
|      The default,   NCORE=1            might be grossly inefficient         |
|      on modern multi-core architectures or massively parallel machines.     |
|      Do your own testing !!!!                                               |
|      Unfortunately you need to use the default for GW and RPA calculations. |
|      (for HF NCORE is supported but not extensively tested yet)             |
|                                                                             |
 ----------------------------------------------------------------------------- 

 POTCAR:    PAW_PBE Na_pv 19Sep2006               
   VRHFIN =Na: p6s1                                                             
   LEXCH  = PE                                                                  
   EATOM  =   766.0439 eV,   56.3026 Ry                                         
                                                                                
   TITEL  = PAW_PBE Na_pv 19Sep2006                                             
   LULTRA =        F    use ultrasoft PP ?                                      
   IUNSCR =        1    unscreen: 0-lin 1-nonlin 2-no                           
   RPACOR =    1.800    partial core radius                                     
   POMASS =   22.990; ZVAL   =    7.000    mass and valenz                      
   RCORE  =    2.200    outmost cutoff radius                                   
   RWIGS  =    2.200; RWIGS  =    1.164    wigner-seitz radius (au A)           
   ENMAX  =  259.561; ENMIN  =  194.671 eV                                      
   ICORE  =        2    local potential                                         
   LCOR   =        T    correct aug charges                                     
   LPAW   =        T    paw PP                                                  
   EAUG   =  368.056                                                            
   DEXC   =    0.000                                                            
   RMAX   =    2.245    core radius for proj-oper                               
   RAUG   =    1.300    factor for augmentation sphere                          
   RDEP   =    2.259    radius for radial grids                                 
   RDEPT  =    1.738    core radius for aug-charge                              
                                                                                
   Atomic configuration                                                         
    5 entries                                                                   
     n  l   j            E        occ.                                          
     1  0  0.50     -1033.6933   2.0000                                         
     2  0  0.50       -56.7526   2.0000                                         
     2  1  1.50       -28.6721   6.0000                                         
     3  0  0.50        -2.7440   1.0000                                         
     3  2  1.50        -1.3606   0.0000                                         
   Description                                                                  
     l       E           TYP  RCUT    TYP  RCUT                                 
     1    -28.6720912     23  2.000                                             
     1      6.8029130     23  2.000                                             
     0     -2.7439560     23  2.200                                             
     0     34.0145650     23  2.200                                             
     2     -1.3605826     23  2.200                                             
  local pseudopotential read in
  partial core-charges read in
  partial kinetic energy density read in
  atomic valenz-charges read in
  non local Contribution for L=           1  read in
    real space projection operators read in
  non local Contribution for L=           1  read in
    real space projection operators read in
  non local Contribution for L=           0  read in
    real space projection operators read in
  non local Contribution for L=           0  read in
    real space projection operators read in
    PAW grid and wavefunctions read in
 
   number of l-projection  operators is LMAX  =           4
   number of lm-projection operators is LMMAX =           8
 
 POTCAR:    PAW_PBE Mg_pv 13Apr2007               
   VRHFIN =Mg: p6s2                                                             
   LEXCH  = PE                                                                  
   EATOM  =  1056.7344 eV,   77.6678 Ry                                         
                                                                                
   TITEL  = PAW_PBE Mg_pv 13Apr2007                                             
   LULTRA =        F    use ultrasoft PP ?                                      
   IUNSCR =        1    unscreen: 0-lin 1-nonlin 2-no                           
   RPACOR =    1.500    partial core radius                                     
   POMASS =   24.305; ZVAL   =    8.000    mass and valenz                      
   RCORE  =    2.000    outmost cutoff radius                                   
   RWIGS  =    2.000; RWIGS  =    1.058    wigner-seitz radius (au A)           
   ENMAX  =  403.929; ENMIN  =  302.947 eV                                      
   RCLOC  =    1.506    cutoff for local pot                                    
   LCOR   =        T    correct aug charges                                     
   LPAW   =        T    paw PP                                                  
   EAUG   =  758.780                                                            
   DEXC   =    0.000                                                            
   RMAX   =    2.045    core radius for proj-oper                               
   RAUG   =    1.300    factor for augmentation sphere                          
   RDEP   =    2.025    radius for radial grids                                 
   RDEPT  =    1.557    core radius for aug-charge                              
                                                                                
   Atomic configuration                                                         
    5 entries                                                                   
     n  l   j            E        occ.                                          
     1  0  0.50     -1259.6230   2.0000                                         
     2  0  0.50       -79.8442   2.0000                                         
     2  1  1.50       -46.6121   6.0000                                         
     3  0  0.50        -4.7055   2.0000                                         
     3  2  1.50        -1.3606   0.0000                                         
   Description                                                                  
     l       E           TYP  RCUT    TYP  RCUT                                 
     1    -46.6121073     23  1.600                                             
     1      2.7211652     23  1.600                                             
     0     -4.7054661     23  2.000                                             
     0     61.2262170     23  2.000                                             
     2     -1.3605826     23  2.000                                             
  local pseudopotential read in
  partial core-charges read in
  partial kinetic energy density read in
  atomic valenz-charges read in
  non local Contribution for L=           1  read in
    real space projection operators read in
  non local Contribution for L=           1  read in
    real space projection operators read in
  non local Contribution for L=           0  read in
    real space projection operators read in
  non local Contribution for L=           0  read in
    real space projection operators read in
  non local Contribution for L=           2  read in
    real space projection operators read in
    PAW grid and wavefunctions read in
 
   number of l-projection  operators is LMAX  =           5
   number of lm-projection operators is LMMAX =          13
 
 POTCAR:    PAW_PBE Mn_pv 02Aug2007               
   VRHFIN =Mn: 3p4s3d                                                           
   LEXCH  = PE                                                                  
   EATOM  =  2025.2664 eV,  148.8529 Ry                                         
                                                                                
   TITEL  = PAW_PBE Mn_pv 02Aug2007                                             
   LULTRA =        F    use ultrasoft PP ?                                      
   IUNSCR =        1    unscreen: 0-lin 1-nonlin 2-no                           
   RPACOR =    2.080    partial core radius                                     
   POMASS =   54.938; ZVAL   =   13.000    mass and valenz                      
   RCORE  =    2.300    outmost cutoff radius                                   
   RWIGS  =    2.500; RWIGS  =    1.323    wigner-seitz radius (au A)           
   ENMAX  =  269.864; ENMIN  =  202.398 eV                                      
   ICORE  =        3    local potential                                         
   LCOR   =        T    correct aug charges                                     
   LPAW   =        T    paw PP                                                  
   EAUG   =  569.085                                                            
   DEXC   =    0.000                                                            
   RMAX   =    2.343    core radius for proj-oper                               
   RAUG   =    1.300    factor for augmentation sphere                          
   RDEP   =    2.338    radius for radial grids                                 
   RDEPT  =    1.798    core radius for aug-charge                              
                                                                                
   Atomic configuration                                                         
    8 entries                                                                   
     n  l   j            E        occ.                                          
     1  0  0.50     -6424.8287   2.0000                                         
     2  0  0.50      -739.1154   2.0000                                         
     2  1  1.50      -625.3949   6.0000                                         
     3  0  0.50       -81.6100   2.0000                                         
     3  1  1.50       -50.4667   6.0000                                         
     3  2  2.50        -3.3745   6.0000                                         
     4  0  0.50        -4.1331   1.0000                                         
     4  3  2.50        -1.3606   0.0000                                         
   Description                                                                  
     l       E           TYP  RCUT    TYP  RCUT                                 
     1    -50.4666628     23  2.000                                             
     1     -1.3605826     23  2.000                                             
     2     -3.3744729     23  2.300                                             
     2     -4.7350555     23  2.300                                             
     0     -4.1331431     23  2.300                                             
     0      7.6656591     23  2.300                                             
     3      9.5240782     23  2.300                                             
  local pseudopotential read in
  partial core-charges read in
  partial kinetic energy density read in
  atomic valenz-charges read in
  non local Contribution for L=           1  read in
    real space projection operators read in
  non local Contribution for L=           1  read in
    real space projection operators read in
  non local Contribution for L=           2  read in
    real space projection operators read in
  non local Contribution for L=           2  read in
    real space projection operators read in
  non local Contribution for L=           0  read in
    real space projection operators read in
  non local Contribution for L=           0  read in
    real space projection operators read in
    PAW grid and wavefunctions read in
 
   number of l-projection  operators is LMAX  =           6
   number of lm-projection operators is LMMAX =          18
 
 POTCAR:    PAW_PBE O 08Apr2002                   
   VRHFIN =O: s2p4                                                              
   LEXCH  = PE                                                                  
   EATOM  =   432.3788 eV,   31.7789 Ry                                         
                                                                                
   TITEL  = PAW_PBE O 08Apr2002                                                 
   LULTRA =        F    use ultrasoft PP ?                                      
   IUNSCR =        1    unscreen: 0-lin 1-nonlin 2-no                           
   RPACOR =    1.200    partial core radius                                     
   POMASS =   16.000; ZVAL   =    6.000    mass and valenz                      
   RCORE  =    1.520    outmost cutoff radius                                   
   RWIGS  =    1.550; RWIGS  =    0.820    wigner-seitz radius (au A)           
   ENMAX  =  400.000; ENMIN  =  300.000 eV                                      
   ICORE  =        2    local potential                                         
   LCOR   =        T    correct aug charges                                     
   LPAW   =        T    paw PP                                                  
   EAUG   =  605.392                                                            
   DEXC   =    0.000                                                            
   RMAX   =    1.553    core radius for proj-oper                               
   RAUG   =    1.300    factor for augmentation sphere                          
   RDEP   =    1.550    radius for radial grids                                 
   RDEPT  =    1.329    core radius for aug-charge                              
                                                                                
   Atomic configuration                                                         
    4 entries                                                                   
     n  l   j            E        occ.                                          
     1  0  0.50      -514.6923   2.0000                                         
     2  0  0.50       -23.9615   2.0000                                         
     2  1  0.50        -9.0305   4.0000                                         
     3  2  1.50        -9.5241   0.0000                                         
   Description                                                                  
     l       E           TYP  RCUT    TYP  RCUT                                 
     0    -23.9615318     23  1.200                                             
     0     -9.5240782     23  1.200                                             
     1     -9.0304911     23  1.520                                             
     1      8.1634956     23  1.520                                             
     2     -9.5240782      7  1.500                                             
  local pseudopotential read in
  partial core-charges read in
  partial kinetic energy density read in
  kinetic energy density of atom read in
  atomic valenz-charges read in
  non local Contribution for L=           0  read in
    real space projection operators read in
  non local Contribution for L=           0  read in
    real space projection operators read in
  non local Contribution for L=           1  read in
    real space projection operators read in
  non local Contribution for L=           1  read in
    real space projection operators read in
    PAW grid and wavefunctions read in
 
   number of l-projection  operators is LMAX  =           4
   number of lm-projection operators is LMMAX =           8
 
 Optimization of the real space projectors (new method)

 maximal supplied QI-value         = 17.01
 optimisation between [QCUT,QGAM] = [ 10.20, 20.41] = [ 29.16,116.64] Ry 
 Optimized for a Real-space Cutoff    1.30 Angstroem

   l    n(q)    QCUT    max X(q) W(low)/X(q) W(high)/X(q)  e(spline) 
   1      7    10.205     4.940    0.23E-03    0.84E-03    0.11E-06
   1      7    10.205     6.253    0.40E-03    0.13E-02    0.18E-06
   0      8    10.205    37.438    0.23E-03    0.37E-03    0.42E-07
   0      8    10.205     9.606    0.16E-03    0.26E-03    0.31E-07
 Optimization of the real space projectors (new method)

 maximal supplied QI-value         = 18.90
 optimisation between [QCUT,QGAM] = [ 10.20, 20.41] = [ 29.16,116.64] Ry 
 Optimized for a Real-space Cutoff    1.26 Angstroem

   l    n(q)    QCUT    max X(q) W(low)/X(q) W(high)/X(q)  e(spline) 
   1      7    10.205     2.974    0.63E-04    0.14E-03    0.13E-06
   1      7    10.205     4.279    0.11E-03    0.45E-03    0.24E-06
   0      8    10.205    16.381    0.44E-03    0.15E-03    0.55E-07
   0      8    10.205     5.611    0.31E-03    0.11E-03    0.40E-07
   2      7    10.205     4.652    0.50E-03    0.47E-03    0.57E-07
 Optimization of the real space projectors (new method)

 maximal supplied QI-value         = 16.25
 optimisation between [QCUT,QGAM] = [ 10.24, 20.48] = [ 29.35,117.42] Ry 
 Optimized for a Real-space Cutoff    1.34 Angstroem

   l    n(q)    QCUT    max X(q) W(low)/X(q) W(high)/X(q)  e(spline) 
   1      8    10.239     3.658    0.23E-03    0.30E-03    0.98E-07
   1      8    10.239     5.612    0.32E-03    0.65E-03    0.21E-06
   2      7    10.239    55.373    0.42E-03    0.45E-03    0.65E-07
   2      7    10.239    50.863    0.43E-03    0.48E-03    0.67E-07
   0      8    10.239    79.536    0.11E-03    0.21E-03    0.56E-07
   0      8    10.239    38.668    0.96E-04    0.19E-03    0.52E-07
 Optimization of the real space projectors (new method)

 maximal supplied QI-value         = 24.76
 optimisation between [QCUT,QGAM] = [ 10.15, 20.30] = [ 28.85,115.39] Ry 
 Optimized for a Real-space Cutoff    1.38 Angstroem

   l    n(q)    QCUT    max X(q) W(low)/X(q) W(high)/X(q)  e(spline) 
   0      8    10.150    20.381    0.22E-03    0.32E-03    0.29E-06
   0      8    10.150    15.268    0.23E-03    0.35E-03    0.30E-06
   1      8    10.150     5.964    0.46E-03    0.53E-03    0.21E-06
   1      8    10.150     5.382    0.38E-03    0.45E-03    0.19E-06
  PAW_PBE Na_pv 19Sep2006               :
 energy of atom  1       EATOM= -766.0439
 kinetic energy error for atom=    0.0103 (will be added to EATOM!!)
  PAW_PBE Mg_pv 13Apr2007               :
 energy of atom  2       EATOM=-1056.7344
 kinetic energy error for atom=    0.0820 (will be added to EATOM!!)
  PAW_PBE Mn_pv 02Aug2007               :
 energy of atom  3       EATOM=-2025.2664
 kinetic energy error for atom=    0.0284 (will be added to EATOM!!)
  PAW_PBE O 08Apr2002                   :
 energy of atom  4       EATOM= -432.3788
 kinetic energy error for atom=    0.1156 (will be added to EATOM!!)
 
 
 POSCAR: Na Mg Mn  O                             
  positions in cartesian coordinates
  No initial velocities read in

 METAGGA = SCAN     LMAXTAU =  6    LMIXTAU =  F

 exchange correlation table for  LEXCH =        8
   RHO(1)=    0.500       N(1)  =     2000
   RHO(2)=  100.500       N(2)  =     4000

 VTST: version 3.2, (02/03/18)

 CHAIN: initializing optimizer
 
 OPT: Using VASP Dynamics algorithm
 CHAIN: Read ICHAIN            0
 
 POSCAR: Na Mg Mn  O                             
  positions in cartesian coordinates
  No initial velocities read in
 


--------------------------------------------------------------------------------------------------------


 ion  position               nearest neighbor table
   1  0.689  0.601  0.240-  43 2.22  52 2.25  65 2.28  33 2.81  35 2.93
   2  0.463  0.081  0.762-  84 2.23  81 2.36
   3  0.458  0.600  0.754-  80 2.32  45 2.35
   4  0.896  0.818  0.747-  69 2.25  72 2.30
   5  0.656  0.086  0.255-  88 2.22  79 2.25  51 2.29  31 2.83  29 2.94
   6  0.945  0.954  0.244-  74 2.33  63 2.34  15 2.78
   7  0.680  0.457  0.741-  68 2.27  46 2.33  45 2.37
   8  0.665  0.948  0.754-  85 2.36
   9  0.399  0.191  0.256-  50 2.25  41 2.32  51 2.35
  10  0.972  0.473  0.252-  75 2.14  66 2.32
  11  0.391  0.655  0.254-  87 2.25  78 2.26
  12  0.145  0.637  0.749-  57 2.26  73 2.27  70 2.30  37 2.87  39 2.91
  13  0.952  0.293  0.743-  56 2.26  57 2.31  59 2.33  30 2.92
  14  0.155  0.140  0.758-  61 2.27  25 2.81  27 2.96
  15  0.145  0.271  0.258-  63 2.10  50 2.33  54 2.34   6 2.78
  16  0.172  0.808  0.239-  66 2.30  77 2.31  67 2.34
  17  0.811  0.446  0.999-  53 1.93  43 1.96  60 2.05  49 2.08  71 2.11  66 2.24  29 2.82  33 2.85

  18  0.506  0.298  0.504-  45 2.02  44 2.05  51 2.12  50 2.13  52 2.15  46 2.23  27 2.84  35 2.85

  19  0.314  0.449  0.996-  61 1.91  55 2.01  41 2.06  83 2.08  78 2.13  48 2.16  37 2.83  25 2.83
                            30 2.85
  20  0.003  0.287  0.497-  63 1.94  62 1.97  58 2.00  56 2.09  57 2.16  64 2.17  31 2.79  40 2.83

  21  0.319  0.947  0.005-  77 2.00  84 2.07  42 2.07  47 2.11  73 2.13  38 2.82  37 2.84
  22  0.013  0.799  0.500-  69 2.00  70 2.02  76 2.02  74 2.02  68 2.09  75 2.12  39 2.83
  23  0.817  0.947  0.007-  79 1.95  65 1.99  54 2.09  85 2.10  72 2.10  59 2.15  34 2.85
  24  0.514  0.790  0.508-  82 1.98  87 2.07  81 2.08  88 2.10  80 2.11  86 2.15  32 2.84  35 2.85
                            40 2.85
  25  0.152  0.123  0.008-  72 1.85  67 1.89  41 1.89  47 1.89  54 1.96  61 1.97  14 2.81  19 2.83
                            26 2.84  30 2.88  34 2.91
  26  0.479  0.284  0.999-  47 1.83  43 1.89  41 1.90  48 1.92  42 1.94  49 2.01  25 2.84  33 2.89
                            29 2.96
  27  0.179  0.131  0.495-  58 1.88  44 1.91  76 1.92  69 1.95  63 1.98  50 1.98  18 2.84  32 2.88
                            40 2.92  36 2.93  14 2.96
  28  0.844  0.465  0.495-  52 1.86  46 1.92  75 1.93  62 1.94  57 2.00  68 2.00  39 2.81  35 2.83
                            31 2.92
  29  0.658  0.121  0.995-  42 1.82  53 1.86  59 1.93  84 1.96  49 1.98  79 1.98  17 2.82  30 2.84
                            38 2.86   5 2.94  26 2.96
  30  0.985  0.288  0.001-  54 1.83  53 1.92  59 1.92  60 1.94  61 1.95  55 2.03  29 2.84  19 2.85
                            25 2.88  37 2.88  13 2.92
  31  0.682  0.129  0.506-  88 1.91  81 1.91  62 1.93  46 1.93  56 1.94  51 1.94  20 2.79   5 2.83
                            40 2.84  28 2.92  36 2.94
  32  0.338  0.463  0.502-  64 1.87  58 1.92  87 1.92  50 1.94  80 2.01  45 2.01  24 2.84  27 2.88
                            39 2.92  35 2.95
  33  0.654  0.616  0.993-  71 1.86  48 1.88  85 1.89  65 1.90  43 1.92  78 1.92   1 2.81  17 2.85
                            34 2.88  26 2.89  38 2.96
  34  0.986  0.788  0.997-  73 1.86  71 1.89  72 1.90  66 1.92  65 1.92  67 1.94  23 2.85  33 2.88
                            25 2.91  37 2.96
  35  0.679  0.626  0.500-  52 1.88  68 1.92  74 1.92  87 1.94  82 1.99  45 2.01  28 2.83  18 2.85
                            24 2.85  40 2.91   1 2.93  32 2.95
  36  0.343  0.957  0.505-  70 1.85  81 1.88  44 1.89  86 1.94  76 2.00  51 2.12  39 2.85  27 2.93
                            31 2.94
  37  0.159  0.620  0.004-  83 1.85  73 1.87  55 1.92  77 1.94  60 1.95  66 2.02  19 2.83  21 2.84
                            38 2.86  12 2.87  30 2.88  34 2.96
  38  0.488  0.792  0.999-  84 1.84  78 1.88  83 1.91  77 1.93  79 1.93  85 2.06  21 2.82  29 2.86
                            37 2.86  33 2.96
  39  0.168  0.629  0.490-  75 1.79  70 1.89  64 1.91  86 1.93  57 1.95  80 1.96  28 2.81  22 2.83
                            36 2.85  12 2.91  32 2.92
  40  0.842  0.962  0.504-  88 1.88  82 1.88  56 1.88  69 1.89  74 1.98  63 2.06  20 2.83  31 2.84
                            24 2.85  35 2.91  27 2.92
  41  0.320  0.278  0.094-  25 1.89  26 1.90  19 2.06   9 2.32
  42  0.511  0.132  0.082-  29 1.82  26 1.94  21 2.07
  43  0.641  0.448  0.084-  26 1.89  33 1.92  17 1.96   1 2.22
  44  0.329  0.113  0.588-  36 1.89  27 1.91  18 2.05
  45  0.508  0.468  0.602-  35 2.01  32 2.01  18 2.02   3 2.35   7 2.37
  46  0.703  0.301  0.598-  28 1.92  31 1.93  18 2.23   7 2.33
  47  0.316  0.132  0.918-  26 1.83  25 1.89  21 2.11
  48  0.503  0.452  0.902-  33 1.88  26 1.92  19 2.16
  49  0.638  0.274  0.896-  29 1.98  26 2.01  17 2.08
  50  0.332  0.305  0.398-  32 1.94  27 1.98  18 2.13   9 2.25  15 2.33
  51  0.525  0.130  0.404-  31 1.94  36 2.12  18 2.12   5 2.29   9 2.35
  52  0.695  0.480  0.407-  28 1.86  35 1.88  18 2.15   1 2.25
  53  0.813  0.279  0.084-  29 1.86  30 1.92  17 1.93
  54  0.991  0.140  0.094-  30 1.83  25 1.96  23 2.09  15 2.34
  55  0.154  0.459  0.100-  37 1.92  19 2.01  30 2.03
  56  0.833  0.111  0.601-  40 1.88  31 1.94  20 2.09  13 2.26
  57  0.014  0.478  0.597-  39 1.95  28 2.00  20 2.16  12 2.26  13 2.31
  58  0.178  0.288  0.584-  27 1.88  32 1.92  20 2.00
  59  0.826  0.131  0.904-  30 1.92  29 1.93  23 2.15  13 2.33
  60  0.995  0.456  0.910-  30 1.94  37 1.95  17 2.05
  61  0.149  0.285  0.910-  19 1.91  30 1.95  25 1.97  14 2.27
  62  0.836  0.293  0.410-  31 1.93  28 1.94  20 1.97
  63  0.013  0.131  0.401-  20 1.94  27 1.98  40 2.06  15 2.10   6 2.34
  64  0.194  0.478  0.406-  32 1.87  39 1.91  20 2.17
  65  0.815  0.769  0.088-  33 1.90  34 1.92  23 1.99   1 2.28
  66  0.000  0.642  0.099-  34 1.92  37 2.02  17 2.24  16 2.30  10 2.32
  67  0.123  0.954  0.102-  25 1.89  34 1.94  16 2.34
  68  0.834  0.624  0.598-  35 1.92  28 2.00  22 2.09   7 2.27
  69  0.010  0.971  0.588-  40 1.89  27 1.95  22 2.00   4 2.25
  70  0.186  0.793  0.586-  36 1.85  39 1.89  22 2.02  12 2.30
  71  0.821  0.634  0.907-  33 1.86  34 1.89  17 2.11
  72  0.008  0.963  0.915-  25 1.85  34 1.90  23 2.10   4 2.30
  73  0.133  0.762  0.914-  34 1.86  37 1.87  21 2.13  12 2.27
  74  0.836  0.793  0.408-  35 1.92  40 1.98  22 2.02   6 2.33
  75  0.014  0.618  0.403-  39 1.79  28 1.93  22 2.12  10 2.14
  76  0.185  0.970  0.405-  27 1.92  36 2.00  22 2.02
  77  0.324  0.779  0.097-  38 1.93  37 1.94  21 2.00  16 2.31
  78  0.503  0.637  0.083-  38 1.88  33 1.92  19 2.13  11 2.26
  79  0.650  0.953  0.093-  38 1.93  23 1.95  29 1.98   5 2.25
  80  0.317  0.620  0.599-  39 1.96  32 2.01  24 2.11   3 2.32
  81  0.511  0.973  0.592-  36 1.88  31 1.91  24 2.08   2 2.36
  82  0.691  0.799  0.596-  40 1.88  24 1.98  35 1.99
  83  0.319  0.636  0.911-  37 1.85  38 1.91  19 2.08
  84  0.494  0.947  0.907-  38 1.84  29 1.96  21 2.07   2 2.23
  85  0.650  0.772  0.900-  33 1.89  38 2.06  23 2.10   8 2.36
  86  0.336  0.796  0.405-  39 1.93  36 1.94  24 2.15
  87  0.508  0.613  0.409-  32 1.92  35 1.94  24 2.07  11 2.25
  88  0.691  0.974  0.414-  40 1.88  31 1.91  24 2.10   5 2.22
 
  LATTYP: Found a hexagonal cell.
 ALAT       =    10.0190000534
 C/A-ratio  =     1.1196726572
  
  Lattice vectors:
  
 A1 = (  10.0190000534,   0.0000000000,   0.0000000000)
 A2 = (  -5.0095000267,   8.6767085668,   0.0000000000)
 A3 = (   0.0000000000,   0.0000000000,  11.2180004120)


Analysis of symmetry for initial positions (statically):
=====================================================================
 Subroutine PRICEL returns:
 Original cell was already a primitive cell.
 

 Routine SETGRP: Setting up the symmetry group for a 
 hexagonal supercell.


 Subroutine GETGRP returns: Found  1 space group operations
 (whereof  1 operations were pure point group operations)
 out of a pool of 24 trial point group operations.


The static configuration has the point symmetry C_1 .


Analysis of symmetry for dynamics (positions and initial velocities):
=====================================================================
 Subroutine PRICEL returns:
 Original cell was already a primitive cell.
 

 Routine SETGRP: Setting up the symmetry group for a 
 hexagonal supercell.


 Subroutine GETGRP returns: Found  1 space group operations
 (whereof  1 operations were pure point group operations)
 out of a pool of 24 trial point group operations.


The dynamic configuration has the point symmetry C_1 .


Analysis of structural, dynamic, and magnetic symmetry:
=====================================================================
 Subroutine PRICEL returns:
 Original cell was already a primitive cell.
 

 Routine SETGRP: Setting up the symmetry group for a 
 hexagonal supercell.


 Subroutine GETGRP returns: Found  1 space group operations
 (whereof  1 operations were pure point group operations)
 out of a pool of 24 trial point group operations.


The magnetic configuration has the point symmetry C_1 .


 Subroutine INISYM returns: Found  1 space group operations
 (whereof  1 operations are pure point group operations),
 and found     1 'primitive' translations

 
 

Automatic generation of k-mesh.
 generate k-points for:    2    2    2
Space group operators:
 irot       det(A)        alpha          n_x          n_y          n_z        tau_x        tau_y        tau_z
    1     1.000000     0.000000     1.000000     0.000000     0.000000     0.000000     0.000000     0.000000
 
 Subroutine IBZKPT returns following result:
 ===========================================
 
 Found      8 irreducible k-points:
 
 Following reciprocal coordinates:
            Coordinates               Weight
  0.000000  0.000000  0.000000      1.000000
  0.500000 -0.000000 -0.000000      1.000000
  0.000000  0.500000  0.000000      1.000000
  0.500000  0.500000 -0.000000      1.000000
  0.000000  0.000000  0.500000      1.000000
  0.500000 -0.000000  0.500000      1.000000
  0.000000  0.500000  0.500000      1.000000
  0.500000  0.500000  0.500000      1.000000
 
 Following cartesian coordinates:
            Coordinates               Weight
  0.000000  0.000000  0.000000      1.000000
  0.049905  0.028813 -0.000000      1.000000
  0.000000  0.057626  0.000000      1.000000
  0.049905  0.086438 -0.000000      1.000000
  0.000000  0.000000  0.044571      1.000000
  0.049905  0.028813  0.044571      1.000000
  0.000000  0.057626  0.044571      1.000000
  0.049905  0.086438  0.044571      1.000000
 


--------------------------------------------------------------------------------------------------------




 Dimension of arrays:
   k-points           NKPTS =      8   k-points in BZ     NKDIM =      8   number of bands    NBANDS=    448
   number of dos      NEDOS =    301   number of ions     NIONS =     88
   non local maximal  LDIM  =      6   non local SUM 2l+1 LMDIM =     18
   total plane-waves  NPLWV = 140000
   max r-space proj   IRMAX =   1632   max aug-charges    IRDMAX=   4555
   dimension x,y,z NGX =    50 NGY =   50 NGZ =   56
   dimension x,y,z NGXF=   100 NGYF=  100 NGZF=  112
   support grid    NGXF=   100 NGYF=  100 NGZF=  112
   ions per type =              16   8  16  48
   NGX,Y,Z   is equivalent  to a cutoff of   8.30,  8.30,  8.30 a.u.
   NGXF,Y,Z  is equivalent  to a cutoff of  16.59, 16.59, 16.60 a.u.

 SYSTEM =  unknown system                          
 POSCAR =  Na Mg Mn  O                             

 Startparameter for this run:
   NWRITE =      2    write-flag & timer
   PREC   = normal    normal or accurate (medium, high low for compatibility)
   ISTART =      0    job   : 0-new  1-cont  2-samecut
   ICHARG =      1    charge: 1-file 2-atom 10-const
   ISPIN  =      2    spin polarized calculation?
   LNONCOLLINEAR =      F non collinear calculations
   LSORBIT =      F    spin-orbit coupling
   INIWAV =      1    electr: 0-lowe 1-rand  2-diag
   LASPH  =      T    aspherical Exc in radial PAW
   METAGGA=      F    non-selfconsistent MetaGGA calc.

 Electronic Relaxation 1
   ENCUT  =  400.0 eV  29.40 Ry    5.42 a.u.  16.34 16.34 18.29*2*pi/ulx,y,z
   ENINI  =  400.0     initial cutoff
   ENAUG  =  758.8 eV  augmentation charge cutoff
   NELM   =    200;   NELMIN=  6; NELMDL=-12     # of ELM steps 
   EDIFF  = 0.1E-04   stopping-criterion for ELM
   LREAL  =      T    real-space projection
   NLSPLINE    = F    spline interpolate recip. space projectors
   LCOMPAT=      F    compatible to vasp.4.4
   GGA_COMPAT  = T    GGA compatible to vasp.4.4-vasp.4.6
   LMAXPAW     = -100 max onsite density
   LMAXMIX     =    4 max onsite mixed and CHGCAR
   VOSKOWN=      0    Vosko Wilk Nusair interpolation
   ROPT   =   -0.00050  -0.00050  -0.00050  -0.00050
 Ionic relaxation
   EDIFFG = 0.1E-03   stopping-criterion for IOM
   NSW    =      1    number of steps for IOM
   NBLOCK =      1;   KBLOCK =      1    inner block; outer block 
   IBRION =     -1    ionic relax: 0-MD 1-quasi-New 2-CG
   NFREE  =      0    steps in history (QN), initial steepest desc. (CG)
   ISIF   =      2    stress and relaxation
   IWAVPR =     10    prediction:  0-non 1-charg 2-wave 3-comb
   ISYM   =      2    0-nonsym 1-usesym 2-fastsym
   LCORR  =      T    Harris-Foulkes like correction to forces

   POTIM  = 0.5000    time-step for ionic-motion
   TEIN   =    0.0    initial temperature
   TEBEG  =    0.0;   TEEND  =   0.0 temperature during run
   SMASS  =  -3.00    Nose mass-parameter (am)
   estimated Nose-frequenzy (Omega)   =  0.10E-29 period in steps =****** mass=  -0.229E-26a.u.
   SCALEE = 1.0000    scale energy and forces
   NPACO  =    256;   APACO  = 16.0  distance and # of slots for P.C.
   PSTRESS=    0.0 pullay stress

  Mass of Ions in am
   POMASS =  22.99 24.30 54.94 16.00
  Ionic Valenz
   ZVAL   =   7.00  8.00 13.00  6.00
  Atomic Wigner-Seitz radii
   RWIGS  =  -1.00 -1.00 -1.00 -1.00
  virtual crystal weights 
   VCA    =   1.00  1.00  1.00  1.00
   NELECT =     672.0000    total number of electrons
   NUPDOWN=      48.0000    fix difference up-down

 DOS related values:
   EMIN   =  10.00;   EMAX   =-10.00  energy-range for DOS
   EFERMI =   0.00
   ISMEAR =     0;   SIGMA  =   0.05  broadening in eV -4-tet -1-fermi 0-gaus

 Electronic relaxation 2 (details)
   IALGO  =     48    algorithm
   LDIAG  =      T    sub-space diagonalisation (order eigenvalues)
   LSUBROT=      F    optimize rotation matrix (better conditioning)
   TURBO    =      0    0=normal 1=particle mesh
   IRESTART =      0    0=no restart 2=restart with 2 vectors
   NREBOOT  =      0    no. of reboots
   NMIN     =      0    reboot dimension
   EREF     =   0.00    reference energy to select bands
   IMIX   =      4    mixing-type and parameters
     AMIX     =   0.40;   BMIX     =  1.00
     AMIX_MAG =   1.60;   BMIX_MAG =  1.00
     AMIN     =   0.10
     WC   =   100.;   INIMIX=   1;  MIXPRE=   1;  MAXMIX= -45

 Intra band minimization:
   WEIMIN = 0.0000     energy-eigenvalue tresh-hold
   EBREAK =  0.56E-08  absolut break condition
   DEPER  =   0.30     relativ break condition  

   TIME   =   0.40     timestep for ELM

  volume/ion in A,a.u.               =      11.08        74.78
  Fermi-wavevector in a.u.,A,eV,Ry     =   1.445993  2.732531 28.448379  2.090897
  Thomas-Fermi vector in A             =   2.564112
 
 Write flags
   LWAVE        =      F    write WAVECAR
   LDOWNSAMPLE  =      F    k-point downsampling of WAVECAR
   LCHARG       =      F    write CHGCAR
   LVTOT        =      F    write LOCPOT, total local potential
   LVHAR        =      F    write LOCPOT, Hartree potential only
   LELF         =      F    write electronic localiz. function (ELF)
   LORBIT       =     11    0 simple, 1 ext, 2 COOP (PROOUT), +10 PAW based schemes


 Dipole corrections
   LMONO  =      F    monopole corrections only (constant potential shift)
   LDIPOL =      F    correct potential (dipole corrections)
   IDIPOL =      0    1-x, 2-y, 3-z, 4-all directions 
   EPSILON=  1.0000000 bulk dielectric constant

 Exchange correlation treatment:
   GGA     =    --    GGA type
   LEXCH   =     8    internal setting for exchange type
   VOSKOWN=      0    Vosko Wilk Nusair interpolation
   LHFCALC =     F    Hartree Fock is set to
   LHFONE  =     F    Hartree Fock one center treatment
   AEXX    =    0.0000 exact exchange contribution

 Linear response parameters
   LEPSILON=     F    determine dielectric tensor
   LRPA    =     F    only Hartree local field effects (RPA)
   LNABLA  =     F    use nabla operator in PAW spheres
   LVEL    =     F    velocity operator in full k-point grid
   LINTERFAST=   F  fast interpolation
   KINTER  =     0    interpolate to denser k-point grid
   CSHIFT  =0.1000    complex shift for real part using Kramers Kronig
   OMEGAMAX=  -1.0    maximum frequency
   DEG_THRESHOLD= 0.2000000E-02 threshold for treating states as degnerate
   RTIME   =   -0.100 relaxation time in fs
  (WPLASMAI=    0.000 imaginary part of plasma frequency in eV, 0.658/RTIME)
   DFIELD  = 0.0000000 0.0000000 0.0000000 field for delta impulse in time
 
 Orbital magnetization related:
   ORBITALMAG=     F  switch on orbital magnetization
   LCHIMAG   =     F  perturbation theory with respect to B field
   DQ        =  0.001000  dq finite difference perturbation B field
   LLRAUG    =     F  two centre corrections for induced B field



--------------------------------------------------------------------------------------------------------


 Static calculation
 charge density and potential will be updated during run
 spin polarized calculation
 RMM-DIIS sequential band-by-band
 perform sub-space diagonalisation
    before iterative eigenvector-optimisation
 modified Broyden-mixing scheme, WC =      100.0
 initial mixing is a Kerker type mixing with AMIX =  0.4000 and BMIX =      1.0000
 Hartree-type preconditioning will be used
 using additional bands          112
 real space projection scheme for non local part
 use partial core corrections
 calculate Harris-corrections to forces 
   (improved forces if not selfconsistent)
 use gradient corrections 
 use of overlap-Matrix (Vanderbilt PP)
 Gauss-broadening in eV      SIGMA  =   0.05


--------------------------------------------------------------------------------------------------------


  energy-cutoff  :      400.00
  volume of cell :      975.20
      direct lattice vectors                 reciprocal lattice vectors
    10.019000053  0.000000000  0.000000000     0.099810360  0.057625538 -0.000000000
    -5.009500027  8.676708567  0.000000000     0.000000000  0.115251076  0.000000000
     0.000000000  0.000000000 11.218000412     0.000000000  0.000000000  0.089142446

  length of vectors
    10.019000053 10.019000053 11.218000412     0.115251076  0.115251076  0.089142446


 
 k-points in units of 2pi/SCALE and weight: read from INCAR                         
   0.00000000  0.00000000  0.00000000       0.125
   0.04990518  0.02881277 -0.00000000       0.125
   0.00000000  0.05762554  0.00000000       0.125
   0.04990518  0.08643831 -0.00000000       0.125
   0.00000000  0.00000000  0.04457122       0.125
   0.04990518  0.02881277  0.04457122       0.125
   0.00000000  0.05762554  0.04457122       0.125
   0.04990518  0.08643831  0.04457122       0.125
 
 k-points in reciprocal lattice and weights: read from INCAR                         
   0.00000000  0.00000000  0.00000000       0.125
   0.50000000 -0.00000000 -0.00000000       0.125
   0.00000000  0.50000000  0.00000000       0.125
   0.50000000  0.50000000 -0.00000000       0.125
   0.00000000  0.00000000  0.50000000       0.125
   0.50000000 -0.00000000  0.50000000       0.125
   0.00000000  0.50000000  0.50000000       0.125
   0.50000000  0.50000000  0.50000000       0.125
 
 position of ions in fractional coordinates (direct lattice) 
   0.68938132  0.60141963  0.24010607
   0.46254136  0.08122600  0.76248526
   0.45820316  0.59960821  0.75422087
   0.89566271  0.81801970  0.74650470
   0.65594966  0.08627399  0.25539222
   0.94491781  0.95409352  0.24448029
   0.67967794  0.45742955  0.74083078
   0.66497676  0.94836653  0.75368512
   0.39859268  0.19053802  0.25594044
   0.97173766  0.47332859  0.25152878
   0.39119911  0.65500628  0.25379122
   0.14485220  0.63694265  0.74883131
   0.95206025  0.29308151  0.74275002
   0.15464520  0.13967261  0.75779370
   0.14548197  0.27051041  0.25808254
   0.17192433  0.80766143  0.23850062
   0.81138635  0.44585686  0.99850738
   0.50565767  0.29841385  0.50364145
   0.31365729  0.44906545  0.99642535
   0.00320518  0.28743042  0.49738276
   0.31910063  0.94747564  0.00545235
   0.01287059  0.79933536  0.49985825
   0.81726200  0.94714602  0.00705316
   0.51371527  0.78960241  0.50844979
   0.15231631  0.12301571  0.00765394
   0.47948570  0.28409967  0.99924258
   0.17889803  0.13088719  0.49485468
   0.84402701  0.46519944  0.49543589
   0.65787454  0.12102186  0.99495082
   0.98480124  0.28758832  0.00131927
   0.68168870  0.12904663  0.50565964
   0.33826403  0.46309957  0.50222854
   0.65419784  0.61639848  0.99284995
   0.98578868  0.78764084  0.99685163
   0.67850770  0.62627781  0.49999998
   0.34251465  0.95694467  0.50487340
   0.15883683  0.61980761  0.00362201
   0.48813778  0.79170805  0.99898572
   0.16829633  0.62938036  0.49024423
   0.84212256  0.96184169  0.50404705
   0.31972432  0.27838667  0.09421554
   0.51064211  0.13204777  0.08248163
   0.64143546  0.44772969  0.08381253
   0.32863614  0.11322397  0.58776874
   0.50769850  0.46832044  0.60202975
   0.70292354  0.30149336  0.59805846
   0.31613171  0.13213766  0.91760560
   0.50281742  0.45182110  0.90219287
   0.63788534  0.27367866  0.89640753
   0.33235487  0.30526668  0.39831787
   0.52544410  0.12987891  0.40367444
   0.69505680  0.47977525  0.40663129
   0.81339649  0.27949884  0.08400882
   0.99114515  0.14013839  0.09396951
   0.15438514  0.45868545  0.09991799
   0.83268938  0.11057089  0.60088784
   0.01368487  0.47750250  0.59683364
   0.17754391  0.28826599  0.58435637
   0.82605759  0.13144846  0.90350327
   0.99504435  0.45641270  0.90992152
   0.14881523  0.28509428  0.91033158
   0.83604989  0.29304200  0.40968620
   0.01255682  0.13132185  0.40067925
   0.19353265  0.47810872  0.40617399
   0.81492456  0.76919836  0.08783562
   0.00040494  0.64245675  0.09920930
   0.12301156  0.95435728  0.10187734
   0.83434336  0.62372615  0.59796664
   0.00984346  0.97149051  0.58835263
   0.18626610  0.79268192  0.58632018
   0.82056689  0.63372187  0.90672131
   0.00761874  0.96321433  0.91471738
   0.13254802  0.76220953  0.91371008
   0.83571761  0.79280063  0.40821446
   0.01399937  0.61845687  0.40306381
   0.18473686  0.97034606  0.40506149
   0.32404960  0.77897972  0.09736316
   0.50258866  0.63742604  0.08336076
   0.65046335  0.95268038  0.09282403
   0.31651820  0.61998164  0.59889372
   0.51053531  0.97294267  0.59203332
   0.69055946  0.79914866  0.59573095
   0.31921239  0.63636343  0.91083077
   0.49370623  0.94680142  0.90733639
   0.65015452  0.77193096  0.89983951
   0.33643623  0.79648520  0.40475484
   0.50781937  0.61333511  0.40892136
   0.69069337  0.97362150  0.41371277
 
 position of ions in cartesian coordinates  (Angst):
   3.89409987  5.21834283  2.69351000
   4.22730029  0.70477430  8.55356000
   1.58700013  5.20262570  8.46085000
   4.87577503  7.09771857  8.37429000
   6.13977008  0.74857430  2.86499000
   4.68760008  8.27839143  2.74258000
   4.51819995  3.96898287  8.31064000
   1.91156000  8.22870000  8.45484000
   3.03899992  1.65324283  2.87114000
   7.36470011  4.10693427  2.82165000
   0.63816997  5.68329857  2.84703000
  -1.73949000  5.52656573  8.40039000
   8.07049984  2.54298287  8.33217000
   0.84970035  1.21189857  8.50093000
   0.10246200  2.34714000  2.89517000
  -2.32347003  7.00784283  2.67550000
   5.89576000  3.86857000 11.20125621
   3.57128000  2.58925000  5.64985000
   0.89293900  3.89641000 11.17790000
  -1.40777005  2.49395000  5.57964000
  -1.54931000  8.22097000  0.06116450
  -3.87532005  6.93560000  5.60741000
   3.44342000  8.21811000  0.07912240
   1.19140000  6.85115000  5.70379000
   0.90980997  1.06737143  0.08586190
   3.38077000  2.46505000 11.20950366
   1.13670000  1.13567000  5.55128000
   6.12589000  4.03640000  5.55780000
   5.98498603  1.05007143 11.16135871
   8.42605000  2.49532000  0.01479959
   6.18338000  1.11970000  5.67249000
   1.06917000  4.01818000  5.63400000
   3.46656000  5.34831000 11.13779111
   5.93093000  6.83413000 11.18268201
   3.66063000  5.43403000  5.60900000
  -1.36216000  8.30313000  5.66367000
  -1.51354000  5.37789000  0.04063170
   0.92459100  6.86942000 11.20662221
  -1.46672000  5.46095000  5.49956000
   3.61888000  8.34562000  5.65440000
   1.80874000  2.41548000  1.05691000
   4.45463000  1.14574000  0.92527900
   4.18364000  3.88482000  0.94020900
   2.72541003  0.98241143  6.59359000
   2.74058000  4.06348000  6.75357000
   5.53226000  2.61597000  6.70902000
   2.50538000  1.14652000 10.29370000
   2.77433000  3.92032000 10.12080000
   5.01998000  2.37463000 10.05590000
   1.80063000  2.64871000  4.46833000
   4.61379603  1.12692143  4.52842000
   4.56034000  4.16287000  4.56159000
   6.74927000  2.42513000  0.94241100
   9.22826000  1.21594000  1.05415000
  -0.75100005  3.97988000  1.12088000
   7.78881003  0.95939143  6.74076000
  -2.25494005  4.14315000  6.69528000
   0.33474400  2.50120000  6.55531000
   7.61778000  1.14054000 10.13550000
   7.68295000  3.96016000 10.20750000
   0.06279995  2.47368000 10.21210000
   6.90839000  2.54264000  4.59586000
  -0.53205003  1.13944143  4.49482000
  -0.45608200  4.14841000  4.55646000
   4.31143000  6.67411000  0.98534000
  -3.21433005  5.57441000  1.11293000
  -3.54840005  8.28068000  1.14286000
   5.23473000  5.41189000  6.70799000
  -4.76806005  8.42934000  6.60014000
  -2.10474000  6.87787000  6.57734000
   5.04663000  5.49862000 10.17160000
  -4.74889005  8.35753000 10.26130000
  -2.49029005  6.61347000 10.25000000
   4.40152000  6.87890000  4.57935000
  -2.95790005  5.36617000  4.52157000
  -3.01007000  8.41941000  4.54398000
  -0.65564600  6.75898000  1.09222000
   1.84225000  5.53076000  0.93514100
   1.74454000  8.26613000  1.04130000
   0.06539780  5.37940000  6.71839000
   0.24109700  8.44194000  6.64143000
   2.91538000  6.93398000  6.68291000
   0.01032630  5.52154000 10.21770000
   0.20344100  8.21512000 10.17850000
   2.64691000  6.69782000 10.09440000
  -0.61923800  6.91087000  4.54054000
   2.01534000  5.32173000  4.58728000
   2.04270000  8.44783000  4.64103000
 


--------------------------------------------------------------------------------------------------------


 k-point  1 :   0.0000 0.0000 0.0000  plane waves:   17725
 k-point  2 :   0.5000-0.0000-0.0000  plane waves:   17736
 k-point  3 :   0.0000 0.5000 0.0000  plane waves:   17736
 k-point  4 :   0.5000 0.5000-0.0000  plane waves:   17736
 k-point  5 :   0.0000 0.0000 0.5000  plane waves:   17676
 k-point  6 :   0.5000-0.0000 0.5000  plane waves:   17700
 k-point  7 :   0.0000 0.5000 0.5000  plane waves:   17700
 k-point  8 :   0.5000 0.5000 0.5000  plane waves:   17700

 maximum and minimum number of plane-waves per node :     17736    17676

 maximum number of plane-waves:     17736
 maximum index in each direction: 
   IXMAX=   16   IYMAX=   16   IZMAX=   18
   IXMIN=  -16   IYMIN=  -16   IZMIN=  -18


 serial   3D FFT for wavefunctions
 parallel 3D FFT for charge:
    minimum data exchange during FFTs selected (reduces bandwidth)


 total amount of memory used by VASP MPI-rank0    88179. kBytes
=======================================================================

   base      :      30000. kBytes
   nonlr-proj:      13670. kBytes
   fftplans  :        992. kBytes
   grid      :      21513. kBytes
   one-center:       2737. kBytes
   wavefun   :      19267. kBytes
 
     INWAV:  cpu time    0.0000: real time    0.0001
 Broyden mixing: mesh for mixing (old mesh)
   NGX = 33   NGY = 33   NGZ = 37
  (NGX  =100   NGY  =100   NGZ  =112)
  gives a total of  40293 points

 initial charge density was supplied:
 charge density of overlapping atoms calculated
 number of electron     672.0000000 magnetization      48.0000000
 keeping initial charge density in first step


--------------------------------------------------------------------------------------------------------


 Maximum index for non-local projection operator         1547
 Maximum index for augmentation-charges          281 (set IRDMAX)


--------------------------------------------------------------------------------------------------------


 First call to EWALD:  gamma=   0.179
 Maximum number of real-space cells 3x 3x 2
 Maximum number of reciprocal cells 3x 3x 3

    FEWALD:  cpu time    0.0023: real time    0.0029


--------------------------------------- Iteration      1(   1)  ---------------------------------------


    POTLOK:  cpu time    0.2031: real time    0.2044
    SETDIJ:  cpu time    3.1291: real time    3.1325
    EDDIAG:  cpu time    3.7389: real time    3.7500
  RMM-DIIS:  cpu time    6.5975: real time    6.6413
    ORTHCH:  cpu time    1.1424: real time    1.1459
       DOS:  cpu time    0.0028: real time    0.0030
    --------------------------------------------
      LOOP:  cpu time   14.8140: real time   14.8772

 eigenvalue-minimisations  :  7168
 total energy-change (2. order) : 0.1878583E+04  (-0.3594246E+05)
 number of electron     672.0000000 magnetization      48.0000000
 augmentation part      672.0000000 magnetization      48.0000000

 Free energy of the ion-electron system (eV)
  ---------------------------------------------------
  alpha Z        PSCENC =      2652.81237852
  Ewald energy   TEWEN  =    -41834.52518708
  -Hartree energ DENC   =    -25778.31080121
  -exchange      EXHF   =         0.00000000
  -V(xc)+E(xc)   XCENC  =      3606.18272388
  PAW double counting   =     55594.23204139   -59034.67079123
  entropy T*S    EENTRO =        -0.05040693
  eigenvalues    EBANDS =     -7189.28532553
  atomic energy  EATOM  =     73862.19814772
  Solvation  Ediel_sol  =         0.00000000
  ---------------------------------------------------
  free energy    TOTEN  =      1878.58277952 eV

  energy without entropy =     1878.63318645  energy(sigma->0) =     1878.60798299


--------------------------------------------------------------------------------------------------------




--------------------------------------- Iteration      1(   2)  ---------------------------------------


    EDDIAG:  cpu time    3.7771: real time    3.7855
  RMM-DIIS:  cpu time    6.6386: real time    6.6542
    ORTHCH:  cpu time    1.1395: real time    1.1430
       DOS:  cpu time    0.0015: real time    0.0015
    --------------------------------------------
      LOOP:  cpu time   11.5567: real time   11.5842

 eigenvalue-minimisations  :  7168
 total energy-change (2. order) :-0.2720764E+04  (-0.8692017E+04)
 number of electron     672.0000000 magnetization      48.0000000
 augmentation part      672.0000000 magnetization      48.0000000

 Free energy of the ion-electron system (eV)
  ---------------------------------------------------
  alpha Z        PSCENC =      2652.81237852
  Ewald energy   TEWEN  =    -41834.52518708
  -Hartree energ DENC   =    -25778.31080121
  -exchange      EXHF   =         0.00000000
  -V(xc)+E(xc)   XCENC  =      3606.18272388
  PAW double counting   =     55594.23204139   -59034.67079123
  entropy T*S    EENTRO =        -0.05386723
  eigenvalues    EBANDS =     -9910.04579565
  atomic energy  EATOM  =     73862.19814772
  Solvation  Ediel_sol  =         0.00000000
  ---------------------------------------------------
  free energy    TOTEN  =      -842.18115089 eV

  energy without entropy =     -842.12728367  energy(sigma->0) =     -842.15421728


--------------------------------------------------------------------------------------------------------




--------------------------------------- Iteration      1(   3)  ---------------------------------------


    EDDIAG:  cpu time    3.7236: real time    3.7332
  RMM-DIIS:  cpu time    6.6192: real time    6.6361
    ORTHCH:  cpu time    1.1456: real time    1.1503
       DOS:  cpu time    0.0017: real time    0.0017
    --------------------------------------------
      LOOP:  cpu time   11.4901: real time   11.5213

 eigenvalue-minimisations  :  7168
 total energy-change (2. order) : 0.3083149E+03  (-0.1561499E+04)
 number of electron     672.0000000 magnetization      48.0000000
 augmentation part      672.0000000 magnetization      48.0000000

 Free energy of the ion-electron system (eV)
  ---------------------------------------------------
  alpha Z        PSCENC =      2652.81237852
  Ewald energy   TEWEN  =    -41834.52518708
  -Hartree energ DENC   =    -25778.31080121
  -exchange      EXHF   =         0.00000000
  -V(xc)+E(xc)   XCENC  =      3606.18272388
  PAW double counting   =     55594.23204139   -59034.67079123
  entropy T*S    EENTRO =        -0.04580722
  eigenvalues    EBANDS =     -9601.73894718
  atomic energy  EATOM  =     73862.19814772
  Solvation  Ediel_sol  =         0.00000000
  ---------------------------------------------------
  free energy    TOTEN  =      -533.86624242 eV

  energy without entropy =     -533.82043520  energy(sigma->0) =     -533.84333881


--------------------------------------------------------------------------------------------------------




--------------------------------------- Iteration      1(   4)  ---------------------------------------


    EDDIAG:  cpu time    3.7206: real time    3.7296
  RMM-DIIS:  cpu time    6.5736: real time    6.6185
    ORTHCH:  cpu time    1.1378: real time    1.1412
       DOS:  cpu time    0.0014: real time    0.0014
    --------------------------------------------
      LOOP:  cpu time   11.4334: real time   11.4907

 eigenvalue-minimisations  :  7168
 total energy-change (2. order) :-0.5238608E+03  (-0.5053038E+03)
 number of electron     672.0000000 magnetization      48.0000000
 augmentation part      672.0000000 magnetization      48.0000000

 Free energy of the ion-electron system (eV)
  ---------------------------------------------------
  alpha Z        PSCENC =      2652.81237852
  Ewald energy   TEWEN  =    -41834.52518708
  -Hartree energ DENC   =    -25778.31080121
  -exchange      EXHF   =         0.00000000
  -V(xc)+E(xc)   XCENC  =      3606.18272388
  PAW double counting   =     55594.23204139   -59034.67079123
  entropy T*S    EENTRO =        -0.00033650
  eigenvalues    EBANDS =    -10125.64526535
  atomic energy  EATOM  =     73862.19814772
  Solvation  Ediel_sol  =         0.00000000
  ---------------------------------------------------
  free energy    TOTEN  =     -1057.72708987 eV

  energy without entropy =    -1057.72675337  energy(sigma->0) =    -1057.72692162


--------------------------------------------------------------------------------------------------------




--------------------------------------- Iteration      1(   5)  ---------------------------------------


    EDDIAG:  cpu time    3.7289: real time    3.7383
  RMM-DIIS:  cpu time    6.6125: real time    6.6268
    ORTHCH:  cpu time    1.1387: real time    1.1421
       DOS:  cpu time    0.0010: real time    0.0010
    --------------------------------------------
      LOOP:  cpu time   11.4811: real time   11.5081

 eigenvalue-minimisations  :  7168
 total energy-change (2. order) :-0.1473608E+03  (-0.2125118E+03)
 number of electron     672.0000000 magnetization      48.0000000
 augmentation part      672.0000000 magnetization      48.0000000

 Free energy of the ion-electron system (eV)
  ---------------------------------------------------
  alpha Z        PSCENC =      2652.81237852
  Ewald energy   TEWEN  =    -41834.52518708
  -Hartree energ DENC   =    -25778.31080121
  -exchange      EXHF   =         0.00000000
  -V(xc)+E(xc)   XCENC  =      3606.18272388
  PAW double counting   =     55594.23204139   -59034.67079123
  entropy T*S    EENTRO =        -0.00000000
  eigenvalues    EBANDS =    -10273.00642702
  atomic energy  EATOM  =     73862.19814772
  Solvation  Ediel_sol  =         0.00000000
  ---------------------------------------------------
  free energy    TOTEN  =     -1205.08791504 eV

  energy without entropy =    -1205.08791504  energy(sigma->0) =    -1205.08791504


--------------------------------------------------------------------------------------------------------




--------------------------------------- Iteration      1(   6)  ---------------------------------------


    EDDIAG:  cpu time    3.7125: real time    3.7227
  RMM-DIIS:  cpu time    6.6091: real time    6.6238
    ORTHCH:  cpu time    1.1388: real time    1.1431
       DOS:  cpu time    0.0012: real time    0.0012
    --------------------------------------------
      LOOP:  cpu time   11.4616: real time   11.4908

 eigenvalue-minimisations  :  7168
 total energy-change (2. order) :-0.2141003E+02  (-0.1151327E+03)
 number of electron     672.0000000 magnetization      48.0000000
 augmentation part      672.0000000 magnetization      48.0000000

 Free energy of the ion-electron system (eV)
  ---------------------------------------------------
  alpha Z        PSCENC =      2652.81237852
  Ewald energy   TEWEN  =    -41834.52518708
  -Hartree energ DENC   =    -25778.31080121
  -exchange      EXHF   =         0.00000000
  -V(xc)+E(xc)   XCENC  =      3606.18272388
  PAW double counting   =     55594.23204139   -59034.67079123
  entropy T*S    EENTRO =        -0.00000000
  eigenvalues    EBANDS =    -10294.41645851
  atomic energy  EATOM  =     73862.19814772
  Solvation  Ediel_sol  =         0.00000000
  ---------------------------------------------------
  free energy    TOTEN  =     -1226.49794653 eV

  energy without entropy =    -1226.49794653  energy(sigma->0) =    -1226.49794653


--------------------------------------------------------------------------------------------------------




--------------------------------------- Iteration      1(   7)  ---------------------------------------


    EDDIAG:  cpu time    3.7365: real time    3.8231
  RMM-DIIS:  cpu time    6.6343: real time    6.6493
    ORTHCH:  cpu time    1.1456: real time    1.1495
       DOS:  cpu time    0.0012: real time    0.0012
    --------------------------------------------
      LOOP:  cpu time   11.5177: real time   11.6231

 eigenvalue-minimisations  :  7168
 total energy-change (2. order) :-0.6646856E+01  (-0.7595552E+02)
 number of electron     672.0000000 magnetization      48.0000000
 augmentation part      672.0000000 magnetization      48.0000000

 Free energy of the ion-electron system (eV)
  ---------------------------------------------------
  alpha Z        PSCENC =      2652.81237852
  Ewald energy   TEWEN  =    -41834.52518708
  -Hartree energ DENC   =    -25778.31080121
  -exchange      EXHF   =         0.00000000
  -V(xc)+E(xc)   XCENC  =      3606.18272388
  PAW double counting   =     55594.23204139   -59034.67079123
  entropy T*S    EENTRO =        -0.00000000
  eigenvalues    EBANDS =    -10301.06331476
  atomic energy  EATOM  =     73862.19814772
  Solvation  Ediel_sol  =         0.00000000
  ---------------------------------------------------
  free energy    TOTEN  =     -1233.14480278 eV

  energy without entropy =    -1233.14480278  energy(sigma->0) =    -1233.14480278


--------------------------------------------------------------------------------------------------------




--------------------------------------- Iteration      1(   8)  ---------------------------------------


    EDDIAG:  cpu time    3.7357: real time    3.7424
  RMM-DIIS:  cpu time    6.6579: real time    6.6711
    ORTHCH:  cpu time    1.1443: real time    1.1474
       DOS:  cpu time    0.0012: real time    0.0012
    --------------------------------------------
      LOOP:  cpu time   11.5391: real time   11.5621

 eigenvalue-minimisations  :  7168
 total energy-change (2. order) : 0.4736368E+01  (-0.5247278E+02)
 number of electron     672.0000000 magnetization      48.0000000
 augmentation part      672.0000000 magnetization      48.0000000

 Free energy of the ion-electron system (eV)
  ---------------------------------------------------
  alpha Z        PSCENC =      2652.81237852
  Ewald energy   TEWEN  =    -41834.52518708
  -Hartree energ DENC   =    -25778.31080121
  -exchange      EXHF   =         0.00000000
  -V(xc)+E(xc)   XCENC  =      3606.18272388
  PAW double counting   =     55594.23204139   -59034.67079123
  entropy T*S    EENTRO =        -0.00000000
  eigenvalues    EBANDS =    -10296.32694656
  atomic energy  EATOM  =     73862.19814772
  Solvation  Ediel_sol  =         0.00000000
  ---------------------------------------------------
  free energy    TOTEN  =     -1228.40843457 eV

  energy without entropy =    -1228.40843457  energy(sigma->0) =    -1228.40843457


--------------------------------------------------------------------------------------------------------




--------------------------------------- Iteration      1(   9)  ---------------------------------------


    EDDIAG:  cpu time    3.7189: real time    3.7281
  RMM-DIIS:  cpu time   13.8114: real time   13.8617
    ORTHCH:  cpu time    1.1357: real time    1.1394
       DOS:  cpu time    0.0011: real time    0.0011
    --------------------------------------------
      LOOP:  cpu time   18.6671: real time   18.7303

 eigenvalue-minimisations  : 20226
 total energy-change (2. order) : 0.1794089E+02  (-0.2346944E+02)
 number of electron     672.0000000 magnetization      48.0000000
 augmentation part      672.0000000 magnetization      48.0000000

 Free energy of the ion-electron system (eV)
  ---------------------------------------------------
  alpha Z        PSCENC =      2652.81237852
  Ewald energy   TEWEN  =    -41834.52518708
  -Hartree energ DENC   =    -25778.31080121
  -exchange      EXHF   =         0.00000000
  -V(xc)+E(xc)   XCENC  =      3606.18272388
  PAW double counting   =     55594.23204139   -59034.67079123
  entropy T*S    EENTRO =        -0.00000000
  eigenvalues    EBANDS =    -10278.38605174
  atomic energy  EATOM  =     73862.19814772
  Solvation  Ediel_sol  =         0.00000000
  ---------------------------------------------------
  free energy    TOTEN  =     -1210.46753975 eV

  energy without entropy =    -1210.46753975  energy(sigma->0) =    -1210.46753975


--------------------------------------------------------------------------------------------------------




--------------------------------------- Iteration      1(  10)  ---------------------------------------


    EDDIAG:  cpu time    3.7610: real time    3.7685
  RMM-DIIS:  cpu time   15.6454: real time   15.6978
    ORTHCH:  cpu time    1.1436: real time    1.1474
       DOS:  cpu time    0.0011: real time    0.0011
    --------------------------------------------
      LOOP:  cpu time   20.5510: real time   20.6148

 eigenvalue-minimisations  : 20264
 total energy-change (2. order) :-0.3043338E+01  (-0.7042311E+00)
 number of electron     672.0000000 magnetization      48.0000000
 augmentation part      672.0000000 magnetization      48.0000000

 Free energy of the ion-electron system (eV)
  ---------------------------------------------------
  alpha Z        PSCENC =      2652.81237852
  Ewald energy   TEWEN  =    -41834.52518708
  -Hartree energ DENC   =    -25778.31080121
  -exchange      EXHF   =         0.00000000
  -V(xc)+E(xc)   XCENC  =      3606.18272388
  PAW double counting   =     55594.23204139   -59034.67079123
  entropy T*S    EENTRO =        -0.00000002
  eigenvalues    EBANDS =    -10281.42939012
  atomic energy  EATOM  =     73862.19814772
  Solvation  Ediel_sol  =         0.00000000
  ---------------------------------------------------
  free energy    TOTEN  =     -1213.51087816 eV

  energy without entropy =    -1213.51087814  energy(sigma->0) =    -1213.51087815


--------------------------------------------------------------------------------------------------------




--------------------------------------- Iteration      1(  11)  ---------------------------------------


    EDDIAG:  cpu time    3.7880: real time    3.7958
  RMM-DIIS:  cpu time   15.1266: real time   15.1569
    ORTHCH:  cpu time    1.1368: real time    1.1399
       DOS:  cpu time    0.0011: real time    0.0011
    --------------------------------------------
      LOOP:  cpu time   20.0524: real time   20.0936

 eigenvalue-minimisations  : 21655
 total energy-change (2. order) : 0.7839001E-01  (-0.1298103E+00)
 number of electron     672.0000000 magnetization      48.0000000
 augmentation part      672.0000000 magnetization      48.0000000

 Free energy of the ion-electron system (eV)
  ---------------------------------------------------
  alpha Z        PSCENC =      2652.81237852
  Ewald energy   TEWEN  =    -41834.52518708
  -Hartree energ DENC   =    -25778.31080121
  -exchange      EXHF   =         0.00000000
  -V(xc)+E(xc)   XCENC  =      3606.18272388
  PAW double counting   =     55594.23204139   -59034.67079123
  entropy T*S    EENTRO =        -0.00000002
  eigenvalues    EBANDS =    -10281.35100011
  atomic energy  EATOM  =     73862.19814772
  Solvation  Ediel_sol  =         0.00000000
  ---------------------------------------------------
  free energy    TOTEN  =     -1213.43248815 eV

  energy without entropy =    -1213.43248813  energy(sigma->0) =    -1213.43248814


--------------------------------------------------------------------------------------------------------




--------------------------------------- Iteration      1(  12)  ---------------------------------------


    EDDIAG:  cpu time    3.7186: real time    3.7271
  RMM-DIIS:  cpu time   16.0222: real time   16.0786
    ORTHCH:  cpu time    1.2062: real time    1.2096
       DOS:  cpu time    0.0012: real time    0.0012
    CHARGE:  cpu time    1.3434: real time    1.3458
    MIXING:  cpu time    0.0013: real time    0.0015
    --------------------------------------------
      LOOP:  cpu time   22.2930: real time   22.3639

 eigenvalue-minimisations  : 22837
 total energy-change (2. order) : 0.5654766E-02  (-0.9286037E-02)
 number of electron     671.9999887 magnetization      48.0000023
 augmentation part      239.1033176 magnetization      29.0420600

 Broyden mixing:
  rms(total) = 0.12636E+02    rms(broyden)= 0.12627E+02
  rms(prec ) = 0.14472E+02
  weight for this iteration     100.00

 Free energy of the ion-electron system (eV)
  ---------------------------------------------------
  alpha Z        PSCENC =      2652.81237852
  Ewald energy   TEWEN  =    -41834.52518708
  -Hartree energ DENC   =    -25778.31080121
  -exchange      EXHF   =         0.00000000
  -V(xc)+E(xc)   XCENC  =      3606.18272388
  PAW double counting   =     55594.23204139   -59034.67079123
  entropy T*S    EENTRO =        -0.00000002
  eigenvalues    EBANDS =    -10281.34534535
  atomic energy  EATOM  =     73862.19814772
  Solvation  Ediel_sol  =         0.00000000
  ---------------------------------------------------
  free energy    TOTEN  =     -1213.42683338 eV

  energy without entropy =    -1213.42683336  energy(sigma->0) =    -1213.42683337


--------------------------------------------------------------------------------------------------------




--------------------------------------- Iteration      1(  13)  ---------------------------------------


    POTLOK:  cpu time    0.1960: real time    0.1971
    SETDIJ:  cpu time    3.3020: real time    3.3042
    EDDIAG:  cpu time    3.7382: real time    3.7469
  RMM-DIIS:  cpu time   12.8823: real time   13.0107
    ORTHCH:  cpu time    1.2199: real time    1.2232
       DOS:  cpu time    0.0012: real time    0.0012
    CHARGE:  cpu time    1.3453: real time    1.3476
    MIXING:  cpu time    0.0008: real time    0.0008
    --------------------------------------------
      LOOP:  cpu time   22.6857: real time   22.8318

 eigenvalue-minimisations  : 17316
 total energy-change (2. order) : 0.2253089E+03  (-0.1375645E+03)
 number of electron     671.9999991 magnetization      48.0000024
 augmentation part      268.6435121 magnetization      26.8257681

 Broyden mixing:
  rms(total) = 0.13846E+02    rms(broyden)= 0.13842E+02
  rms(prec ) = 0.15522E+02
  weight for this iteration     100.00

 eigenvalues of (default mixing * dielectric matrix)
  average eigenvalue GAMMA=   0.3192
  0.3192

 Free energy of the ion-electron system (eV)
  ---------------------------------------------------
  alpha Z        PSCENC =      2652.81237852
  Ewald energy   TEWEN  =    -41834.52518708
  -Hartree energ DENC   =    -25109.90278048
  -exchange      EXHF   =         0.00000000
  -V(xc)+E(xc)   XCENC  =      3696.66650306
  PAW double counting   =     59950.79047967   -63376.12645467
  entropy T*S    EENTRO =        -0.08088091
  eigenvalues    EBANDS =    -10829.95017986
  atomic energy  EATOM  =     73862.19814772
  Solvation  Ediel_sol  =         0.00000000
  ---------------------------------------------------
  free energy    TOTEN  =      -988.11797402 eV

  energy without entropy =     -988.03709311  energy(sigma->0) =     -988.07753357


--------------------------------------------------------------------------------------------------------




--------------------------------------- Iteration      1(  14)  ---------------------------------------


    POTLOK:  cpu time    0.2060: real time    0.2062
    SETDIJ:  cpu time    3.2887: real time    3.2928
    EDDIAG:  cpu time    3.7563: real time    3.7741
  RMM-DIIS:  cpu time   13.6303: real time   13.6553
    ORTHCH:  cpu time    1.1614: real time    1.1646
       DOS:  cpu time    0.0010: real time    0.0010
    CHARGE:  cpu time    1.3426: real time    1.3461
    MIXING:  cpu time    0.0007: real time    0.0007
    --------------------------------------------
      LOOP:  cpu time   23.3869: real time   23.4407

 eigenvalue-minimisations  : 17793
 total energy-change (2. order) : 0.7389818E+02  (-0.1819317E+02)
 number of electron     671.9999926 magnetization      48.0000039
 augmentation part      246.7293915 magnetization      32.2383300

 Broyden mixing:
  rms(total) = 0.52822E+01    rms(broyden)= 0.52780E+01
  rms(prec ) = 0.56808E+01
  weight for this iteration     100.00

 eigenvalues of (default mixing * dielectric matrix)
  average eigenvalue GAMMA=   0.7336
  1.1059  0.3612

 Free energy of the ion-electron system (eV)
  ---------------------------------------------------
  alpha Z        PSCENC =      2652.81237852
  Ewald energy   TEWEN  =    -41834.52518708
  -Hartree energ DENC   =    -25717.50807762
  -exchange      EXHF   =         0.00000000
  -V(xc)+E(xc)   XCENC  =      3674.72844766
  PAW double counting   =     63391.17664333   -66873.71869650
  entropy T*S    EENTRO =        -0.00000000
  eigenvalues    EBANDS =    -10069.38344724
  atomic energy  EATOM  =     73862.19814772
  Solvation  Ediel_sol  =         0.00000000
  ---------------------------------------------------
  free energy    TOTEN  =      -914.21979121 eV

  energy without entropy =     -914.21979121  energy(sigma->0) =     -914.21979121


--------------------------------------------------------------------------------------------------------




--------------------------------------- Iteration      1(  15)  ---------------------------------------


    POTLOK:  cpu time    0.2012: real time    0.2183
    SETDIJ:  cpu time    3.2984: real time    3.3009
    EDDIAG:  cpu time    3.7498: real time    3.7572
  RMM-DIIS:  cpu time   13.5909: real time   13.6169
    ORTHCH:  cpu time    1.1426: real time    1.1456
       DOS:  cpu time    0.0010: real time    0.0010
    CHARGE:  cpu time    1.3480: real time    1.3502
    MIXING:  cpu time    0.0006: real time    0.0006
    --------------------------------------------
      LOOP:  cpu time   23.3325: real time   23.3908

 eigenvalue-minimisations  : 18376
 total energy-change (2. order) : 0.1317368E+02  (-0.1915784E+01)
 number of electron     671.9999932 magnetization      48.0000052
 augmentation part      249.6538947 magnetization      33.8053857

 Broyden mixing:
  rms(total) = 0.21447E+01    rms(broyden)= 0.21444E+01
  rms(prec ) = 0.22265E+01
  weight for this iteration     100.00

 eigenvalues of (default mixing * dielectric matrix)
  average eigenvalue GAMMA=   0.9643
  0.3882  0.7586  1.7462

 Free energy of the ion-electron system (eV)
  ---------------------------------------------------
  alpha Z        PSCENC =      2652.81237852
  Ewald energy   TEWEN  =    -41834.52518708
  -Hartree energ DENC   =    -25641.42075089
  -exchange      EXHF   =         0.00000000
  -V(xc)+E(xc)   XCENC  =      3706.86451028
  PAW double counting   =     67524.41432335   -71047.59412553
  entropy T*S    EENTRO =        -0.00000000
  eigenvalues    EBANDS =    -10123.79540935
  atomic energy  EATOM  =     73862.19814772
  Solvation  Ediel_sol  =         0.00000000
  ---------------------------------------------------
  free energy    TOTEN  =      -901.04611298 eV

  energy without entropy =     -901.04611298  energy(sigma->0) =     -901.04611298


--------------------------------------------------------------------------------------------------------




--------------------------------------- Iteration      1(  16)  ---------------------------------------


    POTLOK:  cpu time    0.2044: real time    0.2047
    SETDIJ:  cpu time    3.3302: real time    3.3330
    EDDIAG:  cpu time    3.7362: real time    3.7562
  RMM-DIIS:  cpu time   13.0798: real time   13.1039
    ORTHCH:  cpu time    1.1440: real time    1.1473
       DOS:  cpu time    0.0010: real time    0.0010
    CHARGE:  cpu time    1.3465: real time    1.3489
    MIXING:  cpu time    0.0010: real time    0.0009
    --------------------------------------------
      LOOP:  cpu time   22.8431: real time   22.8958

 eigenvalue-minimisations  : 17353
 total energy-change (2. order) :-0.1547967E+01  (-0.7144546E+00)
 number of electron     671.9999940 magnetization      48.0000057
 augmentation part      251.1982492 magnetization      33.8900599

 Broyden mixing:
  rms(total) = 0.13877E+01    rms(broyden)= 0.13871E+01
  rms(prec ) = 0.14797E+01
  weight for this iteration     100.00

 eigenvalues of (default mixing * dielectric matrix)
  average eigenvalue GAMMA=   0.9783
  2.0853  0.9016  0.3957  0.5307

 Free energy of the ion-electron system (eV)
  ---------------------------------------------------
  alpha Z        PSCENC =      2652.81237852
  Ewald energy   TEWEN  =    -41834.52518708
  -Hartree energ DENC   =    -25589.24086592
  -exchange      EXHF   =         0.00000000
  -V(xc)+E(xc)   XCENC  =      3708.29509715
  PAW double counting   =     70565.57346377   -74119.24640523
  entropy T*S    EENTRO =        -0.00000000
  eigenvalues    EBANDS =    -10148.46070927
  atomic energy  EATOM  =     73862.19814772
  Solvation  Ediel_sol  =         0.00000000
  ---------------------------------------------------
  free energy    TOTEN  =      -902.59408036 eV

  energy without entropy =     -902.59408036  energy(sigma->0) =     -902.59408036


--------------------------------------------------------------------------------------------------------




--------------------------------------- Iteration      1(  17)  ---------------------------------------


    POTLOK:  cpu time    0.2104: real time    0.2106
    SETDIJ:  cpu time    3.3344: real time    3.3372
    EDDIAG:  cpu time    3.7636: real time    3.7712
  RMM-DIIS:  cpu time   13.7717: real time   13.8214
    ORTHCH:  cpu time    1.1493: real time    1.1525
       DOS:  cpu time    0.0010: real time    0.0010
    CHARGE:  cpu time    1.3441: real time    1.3482
    MIXING:  cpu time    0.0015: real time    0.0015
    --------------------------------------------
      LOOP:  cpu time   23.5760: real time   23.6437

 eigenvalue-minimisations  : 18542
 total energy-change (2. order) : 0.2014026E+00  (-0.6451954E-01)
 number of electron     671.9999938 magnetization      48.0000060
 augmentation part      251.0718997 magnetization      33.8806439

 Broyden mixing:
  rms(total) = 0.74705E+00    rms(broyden)= 0.74696E+00
  rms(prec ) = 0.83948E+00
  weight for this iteration     100.00

 eigenvalues of (default mixing * dielectric matrix)
  average eigenvalue GAMMA=   1.0080
  2.2485  1.1364  0.3857  0.7042  0.5654

 Free energy of the ion-electron system (eV)
  ---------------------------------------------------
  alpha Z        PSCENC =      2652.81237852
  Ewald energy   TEWEN  =    -41834.52518708
  -Hartree energ DENC   =    -25582.14573238
  -exchange      EXHF   =         0.00000000
  -V(xc)+E(xc)   XCENC  =      3705.19642257
  PAW double counting   =     71361.00310268   -74922.40173120
  entropy T*S    EENTRO =        -0.00000000
  eigenvalues    EBANDS =    -10144.53007855
  atomic energy  EATOM  =     73862.19814772
  Solvation  Ediel_sol  =         0.00000000
  ---------------------------------------------------
  free energy    TOTEN  =      -902.39267772 eV

  energy without entropy =     -902.39267772  energy(sigma->0) =     -902.39267772


--------------------------------------------------------------------------------------------------------




--------------------------------------- Iteration      1(  18)  ---------------------------------------


    POTLOK:  cpu time    0.1980: real time    0.1991
    SETDIJ:  cpu time    3.3094: real time    3.3117
    EDDIAG:  cpu time    3.7214: real time    3.7301
  RMM-DIIS:  cpu time   13.2942: real time   13.3319
    ORTHCH:  cpu time    1.1538: real time    1.1570
       DOS:  cpu time    0.0014: real time    0.0014
    CHARGE:  cpu time    1.3534: real time    1.3539
    MIXING:  cpu time    0.0010: real time    0.0010
    --------------------------------------------
      LOOP:  cpu time   23.0326: real time   23.0859

 eigenvalue-minimisations  : 17667
 total energy-change (2. order) : 0.3790961E+00  (-0.7176077E-01)
 number of electron     671.9999937 magnetization      48.0000061
 augmentation part      250.5810979 magnetization      33.8415790

 Broyden mixing:
  rms(total) = 0.26046E+00    rms(broyden)= 0.26015E+00
  rms(prec ) = 0.27277E+00
  weight for this iteration     100.00

 eigenvalues of (default mixing * dielectric matrix)
  average eigenvalue GAMMA=   1.0231
  2.4771  1.3599  0.8485  0.3872  0.5864  0.4797

 Free energy of the ion-electron system (eV)
[...]
   4      -0.781    -0.639     1.420     0.150     0.397    -0.259
   5      -0.919    -0.898     1.817     0.089     0.074     0.098
   6      -0.762    -0.686     1.448     0.125    -0.429     0.114
   7      -0.796    -0.723     1.519    -0.085    -0.469    -0.210
   8      -0.761    -0.762     1.524    -0.065    -0.507    -0.263
   9      -0.570    -0.817     1.387     0.094    -0.049    -0.346
  10      -0.862    -0.818     1.680     0.124    -0.429     0.427
  11      -0.549    -0.878     1.427     0.005    -0.046    -0.484
  12      -0.899    -0.923     1.822     0.026    -0.013    -0.038
  13      -0.692    -0.669     1.361     0.099     0.160     0.005
  14      -0.872    -0.956     1.828     0.035     0.010    -0.038
  15      -0.856    -0.761     1.617    -0.109     0.478     0.278
  16      -0.831    -0.655     1.485    -0.080     0.406     0.155
  17       1.598     1.349    -2.947    -0.331     0.005    -0.125
  18       1.312     1.430    -2.741     0.089    -0.056    -0.048
  19       1.353     1.615    -2.969    -0.009    -0.028    -0.043
  20       1.689     1.258    -2.947    -0.073     0.045    -0.114
  21       1.278     1.599    -2.877    -0.097     0.017    -0.054
  22       1.568     1.375    -2.943    -0.025    -0.062     0.043
  23       1.459     1.499    -2.958    -0.057    -0.011     0.071
  24       1.447     1.448    -2.896     0.033     0.006     0.073
  25       1.292    -1.664     0.372    -0.904     0.817    -0.061
  26      -0.009    -1.267     1.276    -1.062    -0.069    -0.643
  27      -0.431    -1.042     1.474     2.296    -0.033     0.585
  28       0.637     0.539    -1.175     1.318    -1.272     1.089
  29      -1.488     0.150     1.338    -0.054     0.211    -0.961
  30      -1.350     0.196     1.155     0.516    -0.937     0.634
  31       0.695    -0.657    -0.038     0.411    -0.865     0.050
  32      -0.381     0.943    -0.562    -0.145     0.453     0.627
  33      -0.045    -0.883     0.927    -0.213    -0.279    -0.300
  34       0.486     0.394    -0.880     1.529    -0.234    -1.185
  35      -0.690     0.954    -0.264     0.103     0.026    -0.415
  36      -0.919    -1.461     2.380    -0.413    -0.241    -0.530
  37      -1.458     1.410     0.048     0.681    -0.722     0.185
  38      -0.305    -0.227     0.533     0.528    -0.824     0.480
  39      -0.164     0.938    -0.774    -0.199    -0.565    -0.288
  40      -0.826     0.286     0.540     0.588    -0.335     0.328
  41      -3.761     2.052     1.709    -5.217     2.784    -4.204
  42      -4.928     3.381     1.547     4.405     2.915     2.496
  43       4.501    -5.874     1.373    -0.460    -5.445     0.288
  44      -3.147     0.972     2.175     5.658    -4.107    -3.740
  45      -2.733     2.968    -0.235    -4.397    -1.147     4.150
  46       7.804    -6.090    -1.714     0.805     3.323     1.413
  47      -2.276     1.514     0.762    -5.654     3.461    -4.270
  48       6.928    -6.442    -0.487    -2.534    -3.996     1.254
  49      -2.824     3.424    -0.600     4.337     1.739     4.639
  50       5.943    -5.642    -0.301     0.199     4.492     0.737
  51      -2.525     3.114    -0.589    -3.386    -3.601     3.429
  52      -4.261     3.509     0.752     7.066    -1.482    -5.131
  53      -4.380     1.748     2.631    -3.890     2.419    -5.176
  54      -3.120     2.363     0.758     4.796     0.777     4.433
  55       4.514    -5.376     0.862    -1.543    -4.326     1.310
  56      -2.686     1.995     0.691     5.121    -1.746    -4.981
  57      -1.124     3.006    -1.882    -4.644    -2.442     3.977
  58       4.462    -6.612     2.150     1.542     5.241    -0.816
  59      -1.874     1.435     0.439    -4.817     1.579    -4.761
  60       3.772    -5.922     2.149    -0.675    -4.908     0.069
  61      -3.240     2.361     0.879     3.442     2.369     3.736
  62       4.619    -5.636     1.017     2.324     5.236     0.553
  63      -3.168     2.411     0.758    -2.827    -2.671     3.080
  64      -4.901     4.661     0.240     5.176    -3.957    -2.740
  65      -1.650     2.369    -0.719    -5.004     2.068    -3.399
  66      -2.723     5.267    -2.544     5.053     0.867     3.394
  67       7.791    -5.684    -2.107     1.061    -2.879     1.033
  68      -2.583     3.836    -1.253     4.060    -3.384    -3.768
  69      -3.886     1.868     2.018    -4.373    -1.063     3.384
  70       5.772    -6.808     1.036    -3.917     4.687    -0.282
  71      -3.779     2.570     1.209    -6.319     2.410    -3.547
  72       6.500    -6.664     0.165     0.667    -3.973    -1.988
  73      -4.059     3.847     0.212     7.017     1.808     3.962
  74       4.307    -5.989     1.681    -0.051     4.702     0.742
  75      -5.930     3.773     2.157    -5.335    -2.930     3.247
  76      -0.797     0.781     0.016     5.234    -2.864    -3.862
  77      -2.310     1.753     0.557    -4.044     2.710    -3.372
  78      -2.153     1.015     1.138     6.449     1.916     3.018
  79       4.576    -6.125     1.550    -0.146    -5.329     0.103
  80      -0.596     1.153    -0.556     5.746    -0.989    -3.959
  81      -4.056     1.868     2.187    -5.398    -2.123     3.498
  82       4.185    -5.339     1.154    -1.513     3.981     1.383
  83      -2.955     1.933     1.022    -5.457     3.160    -2.915
  84       4.555    -5.000     0.445    -0.820    -4.090     1.517
  85      -2.561     2.205     0.356     4.398     2.494     3.888
  86       3.833    -4.837     1.004    -2.691     4.988    -2.713
  87      -5.021     4.396     0.624    -4.635    -1.155     4.645
  88      -3.119     3.276    -0.156     6.165    -3.037    -3.714
 ---------------------------------------------------------------------


 Total hyperfine coupling parameters after diagonalization (MHz)
 (convention: |A_zz| > |A_xx| > |A_yy|)
 ----------------------------------------------------------------------
  ion      A_xx      A_yy      A_zz     asymmetry (A_yy - A_xx)/ A_zz 
 ----------------------------------------------------------------------
   1       0.445     0.292     3.183      -0.048
   2       1.908     1.575     4.097      -0.081
   3       1.508     1.207     3.660      -0.082
   4       1.839     1.413     3.898      -0.109
   5       0.487     0.313     3.134      -0.056
   6       1.795     1.470     3.931      -0.083
   7       2.020     1.732     4.315      -0.067
   8       2.151     1.902     4.510      -0.055
   9       1.019     0.675     3.009      -0.114
  10       1.764     1.382     4.290      -0.089
  11       2.139     1.713     4.215      -0.101
  12       0.971     0.914     3.676      -0.015
  13       1.051     0.850     3.010      -0.067
  14       0.834     0.724     3.522      -0.031
  15       2.147     1.795     4.569      -0.077
  16       2.320     2.004     4.507      -0.070
  17      14.613    10.539    15.319      -0.266
  18      12.412     8.405    12.626      -0.317
  19      14.571    10.249    14.834      -0.291
  20      13.604     9.405    14.058      -0.299
  21      15.869    11.741    16.245      -0.254
  22      14.773    10.457    14.973      -0.288
  23      14.593    10.215    14.713      -0.298
  24      13.996     9.684    14.063      -0.307
  25      98.910    97.003   100.889      -0.019
  26      99.882    97.379   100.819      -0.025
  27      97.329    93.038    98.048      -0.044
  28      99.339    95.983   100.539      -0.033
  29      96.325    95.205    98.596      -0.011
  30      96.098    93.924    97.437      -0.022
  31      97.040    96.500    98.749      -0.005
  32      95.791    94.757    97.029      -0.011
  33      94.999    94.028    96.061      -0.010
  34      96.017    94.704    98.802      -0.013
  35      96.834    96.511    98.302      -0.003
  36      98.473    97.405   101.632      -0.011
  37      97.322    95.091    98.552      -0.023
  38      96.133    94.626    96.964      -0.016
  39      93.896    92.555    94.720      -0.014
  40      94.037    92.422    94.382      -0.017
  41       7.329     2.384    17.953      -0.275
  42       7.574     0.573    15.156      -0.462
  43       5.484     2.317    16.834      -0.188
  44       6.166     0.711    17.209      -0.317
  45       4.246     1.082    14.091      -0.225
  46       6.803     2.729    18.183      -0.224
  47       6.289     2.725    18.257      -0.195
  48       6.676     1.946    18.084      -0.262
  49      -1.603     0.404    11.936       0.168
  50       3.294     0.080    14.153      -0.227
  51       2.513    -0.728    12.088      -0.268
  52       8.875     2.004    21.140      -0.325
  53       5.708     2.040    17.177      -0.214
  54       7.012     2.095    16.193      -0.304
  55       5.960     2.253    15.645      -0.237
  56       5.154     1.210    16.146      -0.244
  57       2.733     2.496    14.893      -0.016
  58       7.008     1.419    17.271      -0.324
  59       6.017     2.316    16.144      -0.229
  60       5.102     1.097    15.037      -0.266
  61       4.433     1.630    13.691      -0.205
  62       3.745     0.035    14.939      -0.248
  63       2.564    -0.656    10.478      -0.307
  64       6.785    -0.381    16.621      -0.431
  65       4.306     1.857    14.544      -0.168
  66       2.067    -0.007    14.169      -0.146
  67       5.091     1.278    16.097      -0.237
  68       4.705     2.068    15.860      -0.166
  69       6.139     0.313    13.408      -0.434
  70       7.877     1.169    18.648      -0.360
  71       7.237     0.739    17.286      -0.376
  72       7.252     1.379    17.149      -0.342
  73       7.762     1.279    19.356      -0.335
  74       3.743    -0.554    13.426      -0.320
  75      11.147     2.955    20.223      -0.405
  76       4.245     1.692    15.155      -0.168
  77       4.035     1.340    13.309      -0.202
  78       6.815     0.297    15.460      -0.422
  79       5.324     1.673    16.405      -0.223
  80       3.441    -1.332    12.670      -0.377
  81       6.595     0.055    15.269      -0.428
  82       5.118    -0.368    12.796      -0.429
  83       6.943     1.587    16.246      -0.330
  84       7.296     3.753    16.415      -0.216
  85       1.440    -1.214    11.692      -0.227
  86       5.597     2.299    16.945      -0.195
  87       5.563     0.551    16.538      -0.303
  88       7.074     2.562    18.909      -0.239
 ---------------------------------------------------------------------



--------------------------------------------------------------------------------------------------------


 stress matrix after NEB project (eV)
    -44.49702     -0.28812      4.41636
     -0.29701    -42.42187      2.92999
      4.42729      2.94829    -57.75623
  FORCES: max atom, RMS     3.683363    1.215817
  FORCE total and by dimension   11.405370    3.049314
  Stress total and by dimension   84.687283   57.756230
     LOOP+:  cpu time  568.9500: real time  570.4042
    4ORBIT:  cpu time    0.0000: real time    0.0000
 


 total charge     
 
# of ion       s       p       d       tot
------------------------------------------
    1        0.051   5.995   0.000   6.046
    2        0.048   5.991   0.000   6.039
    3        0.049   5.991   0.000   6.040
    4        0.050   5.992   0.000   6.042
    5        0.050   5.995   0.000   6.045
    6        0.051   5.992   0.000   6.043
    7        0.051   5.994   0.000   6.044
    8        0.051   5.992   0.000   6.043
    9        0.048   5.990   0.000   6.039
   10        0.051   5.994   0.000   6.045
   11        0.048   5.991   0.000   6.039
   12        0.052   5.996   0.000   6.048
   13        0.051   5.993   0.000   6.045
   14        0.048   5.991   0.000   6.039
   15        0.057   6.001   0.000   6.058
   16        0.052   5.994   0.000   6.046
   17        0.150   6.131   0.087   6.368
   18        0.141   6.113   0.072   6.326
   19        0.151   6.132   0.087   6.371
   20        0.155   6.136   0.090   6.381
   21        0.142   6.115   0.074   6.330
   22        0.151   6.133   0.088   6.372
   23        0.151   6.130   0.085   6.366
   24        0.146   6.122   0.079   6.347
   25        0.387   6.480   4.861  11.728
   26        0.383   6.473   4.848  11.705
   27        0.371   6.447   4.819  11.637
   28        0.367   6.436   4.816  11.619
   29        0.381   6.465   4.846  11.691
   30        0.375   6.454   4.827  11.656
   31        0.374   6.454   4.825  11.653
   32        0.365   6.431   4.803  11.599
   33        0.393   6.493   4.865  11.751
   34        0.385   6.476   4.852  11.713
   35        0.368   6.438   4.816  11.622
   36        0.370   6.438   4.818  11.626
   37        0.379   6.461   4.842  11.683
   38        0.378   6.464   4.837  11.679
   39        0.393   6.491   4.877  11.761
   40        0.378   6.459   4.834  11.670
   41        1.599   3.522   0.000   5.121
   42        1.599   3.524   0.000   5.123
   43        1.601   3.531   0.000   5.132
   44        1.598   3.510   0.000   5.109
   45        1.596   3.480   0.000   5.076
   46        1.600   3.469   0.000   5.070
   47        1.601   3.529   0.000   5.130
   48        1.600   3.498   0.000   5.098
   49        1.598   3.471   0.000   5.069
   50        1.599   3.486   0.000   5.085
   51        1.596   3.467   0.000   5.063
   52        1.604   3.500   0.000   5.105
   53        1.602   3.525   0.000   5.127
   54        1.599   3.525   0.000   5.124
   55        1.596   3.486   0.000   5.082
   56        1.599   3.516   0.000   5.115
   57        1.600   3.480   0.000   5.079
   58        1.601   3.516   0.000   5.117
   59        1.597   3.498   0.000   5.096
   60        1.599   3.498   0.000   5.096
   61        1.599   3.517   0.000   5.116
   62        1.599   3.505   0.000   5.104
   63        1.598   3.515   0.000   5.112
   64        1.599   3.504   0.000   5.103
   65        1.599   3.538   0.000   5.137
   66        1.597   3.481   0.000   5.078
   67        1.599   3.494   0.000   5.093
   68        1.599   3.488   0.000   5.087
   69        1.598   3.529   0.000   5.127
   70        1.605   3.517   0.000   5.122
   71        1.600   3.520   0.000   5.120
   72        1.599   3.537   0.000   5.136
   73        1.602   3.515   0.000   5.117
   74        1.598   3.497   0.000   5.095
   75        1.602   3.548   0.000   5.150
   76        1.596   3.493   0.000   5.090
   77        1.598   3.512   0.000   5.111
   78        1.598   3.513   0.000   5.112
   79        1.601   3.497   0.000   5.098
   80        1.598   3.473   0.000   5.070
   81        1.597   3.518   0.000   5.116
   82        1.597   3.513   0.000   5.111
   83        1.601   3.520   0.000   5.121
   84        1.598   3.534   0.000   5.132
   85        1.595   3.492   0.000   5.088
   86        1.599   3.480   0.000   5.078
   87        1.599   3.499   0.000   5.098
   88        1.604   3.503   0.000   5.106
--------------------------------------------------
tot         84.804 416.548  78.047 579.399
 


 magnetization (x)
 
# of ion       s       p       d       tot
------------------------------------------
    1        0.001   0.000   0.000   0.001
    2        0.002   0.000   0.000   0.002
    3        0.002   0.000   0.000   0.002
    4        0.002   0.000   0.000   0.002
    5        0.001   0.000   0.000   0.001
    6        0.002   0.000   0.000   0.002
    7        0.002   0.000   0.000   0.002
    8        0.002   0.000   0.000   0.002
    9        0.001  -0.000   0.000   0.001
   10        0.002   0.000   0.000   0.002
   11        0.002   0.000   0.000   0.002
   12        0.001   0.001   0.000   0.002
   13        0.001   0.001   0.000   0.002
   14        0.001   0.001   0.000   0.002
   15        0.002   0.000   0.000   0.002
   16        0.002   0.000   0.000   0.002
   17        0.007   0.003   0.001   0.012
   18        0.006   0.001   0.001   0.009
   19        0.007   0.002   0.001   0.011
   20        0.007   0.002   0.001   0.011
   21        0.008   0.002   0.001   0.012
   22        0.007   0.002   0.001   0.011
   23        0.007   0.003   0.001   0.012
   24        0.007   0.002   0.001   0.011
   25        0.016   0.032   2.735   2.783
   26        0.017   0.033   2.741   2.791
   27        0.015   0.029   2.772   2.816
   28        0.016   0.030   2.770   2.816
   29        0.015   0.030   2.745   2.791
   30        0.015   0.029   2.762   2.806
   31        0.015   0.031   2.756   2.802
   32        0.015   0.030   2.778   2.823
   33        0.015   0.032   2.723   2.770
   34        0.016   0.033   2.721   2.770
   35        0.015   0.029   2.775   2.819
   36        0.015   0.029   2.765   2.810
   37        0.015   0.031   2.746   2.792
   38        0.015   0.030   2.745   2.791
   39        0.015   0.032   2.709   2.755
   40        0.014   0.029   2.748   2.791
   41        0.002   0.052   0.000   0.055
   42        0.002   0.047   0.000   0.049
   43        0.002   0.043   0.000   0.045
   44        0.002   0.046   0.000   0.048
   45        0.002   0.015   0.000   0.017
   46        0.003   0.035   0.000   0.038
   47        0.002   0.052   0.000   0.054
   48        0.002   0.042   0.000   0.045
   49        0.001  -0.008   0.000  -0.007
   50        0.002   0.014   0.000   0.015
   51        0.001   0.004   0.000   0.005
   52        0.003   0.060   0.000   0.063
   53        0.002   0.042   0.000   0.044
   54        0.002   0.046   0.000   0.048
   55        0.002   0.029   0.000   0.031
   56        0.002   0.038   0.000   0.039
   57        0.002   0.020   0.000   0.022
   58        0.002   0.044   0.000   0.046
   59        0.002   0.038   0.000   0.040
   60        0.002   0.032   0.000   0.034
   61        0.002   0.022   0.000   0.023
   62        0.002   0.023   0.000   0.024
   63        0.001   0.001   0.000   0.002
   64        0.002   0.043   0.000   0.045
   65        0.002   0.030   0.000   0.032
   66        0.002   0.014   0.000   0.016
   67        0.002   0.029   0.000   0.031
   68        0.002   0.024   0.000   0.026
   69        0.002   0.033   0.000   0.034
   70        0.002   0.046   0.000   0.048
   71        0.002   0.049   0.000   0.051
   72        0.002   0.055   0.000   0.057
   73        0.002   0.057   0.000   0.059
   74        0.002   0.020   0.000   0.022
   75        0.003   0.077   0.000   0.079
   76        0.002   0.024   0.000   0.026
   77        0.002   0.018   0.000   0.020
   78        0.002   0.047   0.000   0.049
   79        0.002   0.029   0.000   0.031
   80        0.002   0.010   0.000   0.011
   81        0.002   0.041   0.000   0.043
   82        0.002   0.021   0.000   0.023
   83        0.002   0.047   0.000   0.049
   84        0.002   0.050   0.000   0.052
   85        0.001   0.008   0.000   0.009
   86        0.002   0.035   0.000   0.037
   87        0.002   0.036   0.000   0.038
   88        0.002   0.048   0.000   0.050
--------------------------------------------------
tot          0.425   2.135  44.002  46.563
 

 total amount of memory used by VASP MPI-rank0    88179. kBytes
=======================================================================

   base      :      30000. kBytes
   nonlr-proj:      13670. kBytes
   fftplans  :        992. kBytes
   grid      :      21513. kBytes
   one-center:       2737. kBytes
   wavefun   :      19267. kBytes
 
  
  
 General timing and accounting informations for this job:
 ========================================================
  
                  Total CPU time used (sec):      587.375
                            User time (sec):      582.015
                          System time (sec):        5.360
                         Elapsed time (sec):      591.696
  
                   Maximum memory used (kb):      182152.
                   Average memory used (kb):           0.
  
                          Minor page faults:       301343
                          Major page faults:            0
                 Voluntary context switches:         3784
