 vasp.5.4.4.18Apr17-6-g9f103f2a35 (build Dec 02 2020 12:53:39) complex          
  
 executed on             LinuxIFC date 2021.08.05  02:54:11
 running on   96 total cores
 distrk:  each k-point on   96 cores,    1 groups
 distr:  one band on NCORES_PER_BAND=   1 cores,   96 groups


--------------------------------------------------------------------------------------------------------


 INCAR:
 POTCAR:    PAW_PBE Na_pv 19Sep2006               
 POTCAR:    PAW_PBE Mg_pv 13Apr2007               
 POTCAR:    PAW_PBE Mn_pv 02Aug2007               
 POTCAR:    PAW_PBE O 08Apr2002                   

 ----------------------------------------------------------------------------- 
|                                                                             |
|           W    W    AA    RRRRR   N    N  II  N    N   GGGG   !!!           |
|           W    W   A  A   R    R  NN   N  II  NN   N  G    G  !!!           |
|           W    W  A    A  R    R  N N  N  II  N N  N  G       !!!           |
|           W WW W  AAAAAA  RRRRR   N  N N  II  N  N N  G  GGG   !            |
|           WW  WW  A    A  R   R   N   NN  II  N   NN  G    G                |
|           W    W  A    A  R    R  N    N  II  N    N   GGGG   !!!           |
|                                                                             |
|      For optimal performance we recommend to set                            |
|        NCORE= 4 - approx SQRT( number of cores)                             |
|      NCORE specifies how many cores store one orbital (NPAR=cpu/NCORE).     |
|      This setting can  greatly improve the performance of VASP for DFT.     |
|      The default,   NCORE=1            might be grossly inefficient         |
|      on modern multi-core architectures or massively parallel machines.     |
|      Do your own testing !!!!                                               |
|      Unfortunately you need to use the default for GW and RPA calculations. |
|      (for HF NCORE is supported but not extensively tested yet)             |
|                                                                             |
 ----------------------------------------------------------------------------- 

 POTCAR:    PAW_PBE Na_pv 19Sep2006               
   VRHFIN =Na: p6s1                                                             
   LEXCH  = PE                                                                  
   EATOM  =   766.0439 eV,   56.3026 Ry                                         
                                                                                
   TITEL  = PAW_PBE Na_pv 19Sep2006                                             
   LULTRA =        F    use ultrasoft PP ?                                      
   IUNSCR =        1    unscreen: 0-lin 1-nonlin 2-no                           
   RPACOR =    1.800    partial core radius                                     
   POMASS =   22.990; ZVAL   =    7.000    mass and valenz                      
   RCORE  =    2.200    outmost cutoff radius                                   
   RWIGS  =    2.200; RWIGS  =    1.164    wigner-seitz radius (au A)           
   ENMAX  =  259.561; ENMIN  =  194.671 eV                                      
   ICORE  =        2    local potential                                         
   LCOR   =        T    correct aug charges                                     
   LPAW   =        T    paw PP                                                  
   EAUG   =  368.056                                                            
   DEXC   =    0.000                                                            
   RMAX   =    2.245    core radius for proj-oper                               
   RAUG   =    1.300    factor for augmentation sphere                          
   RDEP   =    2.259    radius for radial grids                                 
   RDEPT  =    1.738    core radius for aug-charge                              
                                                                                
   Atomic configuration                                                         
    5 entries                                                                   
     n  l   j            E        occ.                                          
     1  0  0.50     -1033.6933   2.0000                                         
     2  0  0.50       -56.7526   2.0000                                         
     2  1  1.50       -28.6721   6.0000                                         
     3  0  0.50        -2.7440   1.0000                                         
     3  2  1.50        -1.3606   0.0000                                         
   Description                                                                  
     l       E           TYP  RCUT    TYP  RCUT                                 
     1    -28.6720912     23  2.000                                             
     1      6.8029130     23  2.000                                             
     0     -2.7439560     23  2.200                                             
     0     34.0145650     23  2.200                                             
     2     -1.3605826     23  2.200                                             
  local pseudopotential read in
  partial core-charges read in
  partial kinetic energy density read in
  atomic valenz-charges read in
  non local Contribution for L=           1  read in
    real space projection operators read in
  non local Contribution for L=           1  read in
    real space projection operators read in
  non local Contribution for L=           0  read in
    real space projection operators read in
  non local Contribution for L=           0  read in
    real space projection operators read in
    PAW grid and wavefunctions read in
 
   number of l-projection  operators is LMAX  =           4
   number of lm-projection operators is LMMAX =           8
 
 POTCAR:    PAW_PBE Mg_pv 13Apr2007               
   VRHFIN =Mg: p6s2                                                             
   LEXCH  = PE                                                                  
   EATOM  =  1056.7344 eV,   77.6678 Ry                                         
                                                                                
   TITEL  = PAW_PBE Mg_pv 13Apr2007                                             
   LULTRA =        F    use ultrasoft PP ?                                      
   IUNSCR =        1    unscreen: 0-lin 1-nonlin 2-no                           
   RPACOR =    1.500    partial core radius                                     
   POMASS =   24.305; ZVAL   =    8.000    mass and valenz                      
   RCORE  =    2.000    outmost cutoff radius                                   
   RWIGS  =    2.000; RWIGS  =    1.058    wigner-seitz radius (au A)           
   ENMAX  =  403.929; ENMIN  =  302.947 eV                                      
   RCLOC  =    1.506    cutoff for local pot                                    
   LCOR   =        T    correct aug charges                                     
   LPAW   =        T    paw PP                                                  
   EAUG   =  758.780                                                            
   DEXC   =    0.000                                                            
   RMAX   =    2.045    core radius for proj-oper                               
   RAUG   =    1.300    factor for augmentation sphere                          
   RDEP   =    2.025    radius for radial grids                                 
   RDEPT  =    1.557    core radius for aug-charge                              
                                                                                
   Atomic configuration                                                         
    5 entries                                                                   
     n  l   j            E        occ.                                          
     1  0  0.50     -1259.6230   2.0000                                         
     2  0  0.50       -79.8442   2.0000                                         
     2  1  1.50       -46.6121   6.0000                                         
     3  0  0.50        -4.7055   2.0000                                         
     3  2  1.50        -1.3606   0.0000                                         
   Description                                                                  
     l       E           TYP  RCUT    TYP  RCUT                                 
     1    -46.6121073     23  1.600                                             
     1      2.7211652     23  1.600                                             
     0     -4.7054661     23  2.000                                             
     0     61.2262170     23  2.000                                             
     2     -1.3605826     23  2.000                                             
  local pseudopotential read in
  partial core-charges read in
  partial kinetic energy density read in
  atomic valenz-charges read in
  non local Contribution for L=           1  read in
    real space projection operators read in
  non local Contribution for L=           1  read in
    real space projection operators read in
  non local Contribution for L=           0  read in
    real space projection operators read in
  non local Contribution for L=           0  read in
    real space projection operators read in
  non local Contribution for L=           2  read in
    real space projection operators read in
    PAW grid and wavefunctions read in
 
   number of l-projection  operators is LMAX  =           5
   number of lm-projection operators is LMMAX =          13
 
 POTCAR:    PAW_PBE Mn_pv 02Aug2007               
   VRHFIN =Mn: 3p4s3d                                                           
   LEXCH  = PE                                                                  
   EATOM  =  2025.2664 eV,  148.8529 Ry                                         
                                                                                
   TITEL  = PAW_PBE Mn_pv 02Aug2007                                             
   LULTRA =        F    use ultrasoft PP ?                                      
   IUNSCR =        1    unscreen: 0-lin 1-nonlin 2-no                           
   RPACOR =    2.080    partial core radius                                     
   POMASS =   54.938; ZVAL   =   13.000    mass and valenz                      
   RCORE  =    2.300    outmost cutoff radius                                   
   RWIGS  =    2.500; RWIGS  =    1.323    wigner-seitz radius (au A)           
   ENMAX  =  269.864; ENMIN  =  202.398 eV                                      
   ICORE  =        3    local potential                                         
   LCOR   =        T    correct aug charges                                     
   LPAW   =        T    paw PP                                                  
   EAUG   =  569.085                                                            
   DEXC   =    0.000                                                            
   RMAX   =    2.343    core radius for proj-oper                               
   RAUG   =    1.300    factor for augmentation sphere                          
   RDEP   =    2.338    radius for radial grids                                 
   RDEPT  =    1.798    core radius for aug-charge                              
                                                                                
   Atomic configuration                                                         
    8 entries                                                                   
     n  l   j            E        occ.                                          
     1  0  0.50     -6424.8287   2.0000                                         
     2  0  0.50      -739.1154   2.0000                                         
     2  1  1.50      -625.3949   6.0000                                         
     3  0  0.50       -81.6100   2.0000                                         
     3  1  1.50       -50.4667   6.0000                                         
     3  2  2.50        -3.3745   6.0000                                         
     4  0  0.50        -4.1331   1.0000                                         
     4  3  2.50        -1.3606   0.0000                                         
   Description                                                                  
     l       E           TYP  RCUT    TYP  RCUT                                 
     1    -50.4666628     23  2.000                                             
     1     -1.3605826     23  2.000                                             
     2     -3.3744729     23  2.300                                             
     2     -4.7350555     23  2.300                                             
     0     -4.1331431     23  2.300                                             
     0      7.6656591     23  2.300                                             
     3      9.5240782     23  2.300                                             
  local pseudopotential read in
  partial core-charges read in
  partial kinetic energy density read in
  atomic valenz-charges read in
  non local Contribution for L=           1  read in
    real space projection operators read in
  non local Contribution for L=           1  read in
    real space projection operators read in
  non local Contribution for L=           2  read in
    real space projection operators read in
  non local Contribution for L=           2  read in
    real space projection operators read in
  non local Contribution for L=           0  read in
    real space projection operators read in
  non local Contribution for L=           0  read in
    real space projection operators read in
    PAW grid and wavefunctions read in
 
   number of l-projection  operators is LMAX  =           6
   number of lm-projection operators is LMMAX =          18
 
 POTCAR:    PAW_PBE O 08Apr2002                   
   VRHFIN =O: s2p4                                                              
   LEXCH  = PE                                                                  
   EATOM  =   432.3788 eV,   31.7789 Ry                                         
                                                                                
   TITEL  = PAW_PBE O 08Apr2002                                                 
   LULTRA =        F    use ultrasoft PP ?                                      
   IUNSCR =        1    unscreen: 0-lin 1-nonlin 2-no                           
   RPACOR =    1.200    partial core radius                                     
   POMASS =   16.000; ZVAL   =    6.000    mass and valenz                      
   RCORE  =    1.520    outmost cutoff radius                                   
   RWIGS  =    1.550; RWIGS  =    0.820    wigner-seitz radius (au A)           
   ENMAX  =  400.000; ENMIN  =  300.000 eV                                      
   ICORE  =        2    local potential                                         
   LCOR   =        T    correct aug charges                                     
   LPAW   =        T    paw PP                                                  
   EAUG   =  605.392                                                            
   DEXC   =    0.000                                                            
   RMAX   =    1.553    core radius for proj-oper                               
   RAUG   =    1.300    factor for augmentation sphere                          
   RDEP   =    1.550    radius for radial grids                                 
   RDEPT  =    1.329    core radius for aug-charge                              
                                                                                
   Atomic configuration                                                         
    4 entries                                                                   
     n  l   j            E        occ.                                          
     1  0  0.50      -514.6923   2.0000                                         
     2  0  0.50       -23.9615   2.0000                                         
     2  1  0.50        -9.0305   4.0000                                         
     3  2  1.50        -9.5241   0.0000                                         
   Description                                                                  
     l       E           TYP  RCUT    TYP  RCUT                                 
     0    -23.9615318     23  1.200                                             
     0     -9.5240782     23  1.200                                             
     1     -9.0304911     23  1.520                                             
     1      8.1634956     23  1.520                                             
     2     -9.5240782      7  1.500                                             
  local pseudopotential read in
  partial core-charges read in
  partial kinetic energy density read in
  kinetic energy density of atom read in
  atomic valenz-charges read in
  non local Contribution for L=           0  read in
    real space projection operators read in
  non local Contribution for L=           0  read in
    real space projection operators read in
  non local Contribution for L=           1  read in
    real space projection operators read in
  non local Contribution for L=           1  read in
    real space projection operators read in
    PAW grid and wavefunctions read in
 
   number of l-projection  operators is LMAX  =           4
   number of lm-projection operators is LMMAX =           8
 
 Optimization of the real space projectors (new method)

 maximal supplied QI-value         = 17.01
 optimisation between [QCUT,QGAM] = [ 10.20, 20.41] = [ 29.16,116.64] Ry 
 Optimized for a Real-space Cutoff    1.30 Angstroem

   l    n(q)    QCUT    max X(q) W(low)/X(q) W(high)/X(q)  e(spline) 
   1      7    10.205     4.940    0.23E-03    0.84E-03    0.11E-06
   1      7    10.205     6.253    0.40E-03    0.13E-02    0.18E-06
   0      8    10.205    37.438    0.23E-03    0.37E-03    0.42E-07
   0      8    10.205     9.606    0.16E-03    0.26E-03    0.31E-07
 Optimization of the real space projectors (new method)

 maximal supplied QI-value         = 18.90
 optimisation between [QCUT,QGAM] = [ 10.20, 20.41] = [ 29.16,116.64] Ry 
 Optimized for a Real-space Cutoff    1.26 Angstroem

   l    n(q)    QCUT    max X(q) W(low)/X(q) W(high)/X(q)  e(spline) 
   1      7    10.205     2.974    0.63E-04    0.14E-03    0.13E-06
   1      7    10.205     4.279    0.11E-03    0.45E-03    0.24E-06
   0      8    10.205    16.381    0.44E-03    0.15E-03    0.55E-07
   0      8    10.205     5.611    0.31E-03    0.11E-03    0.40E-07
   2      7    10.205     4.652    0.50E-03    0.47E-03    0.57E-07
 Optimization of the real space projectors (new method)

 maximal supplied QI-value         = 16.25
 optimisation between [QCUT,QGAM] = [ 10.24, 20.48] = [ 29.35,117.42] Ry 
 Optimized for a Real-space Cutoff    1.34 Angstroem

   l    n(q)    QCUT    max X(q) W(low)/X(q) W(high)/X(q)  e(spline) 
   1      8    10.239     3.658    0.23E-03    0.30E-03    0.98E-07
   1      8    10.239     5.612    0.32E-03    0.65E-03    0.21E-06
   2      7    10.239    55.373    0.42E-03    0.45E-03    0.65E-07
   2      7    10.239    50.863    0.43E-03    0.48E-03    0.67E-07
   0      8    10.239    79.536    0.11E-03    0.21E-03    0.56E-07
   0      8    10.239    38.668    0.96E-04    0.19E-03    0.52E-07
 Optimization of the real space projectors (new method)

 maximal supplied QI-value         = 24.76
 optimisation between [QCUT,QGAM] = [ 10.15, 20.30] = [ 28.85,115.39] Ry 
 Optimized for a Real-space Cutoff    1.38 Angstroem

   l    n(q)    QCUT    max X(q) W(low)/X(q) W(high)/X(q)  e(spline) 
   0      8    10.150    20.381    0.22E-03    0.32E-03    0.29E-06
   0      8    10.150    15.268    0.23E-03    0.35E-03    0.30E-06
   1      8    10.150     5.964    0.46E-03    0.53E-03    0.21E-06
   1      8    10.150     5.382    0.38E-03    0.45E-03    0.19E-06
  PAW_PBE Na_pv 19Sep2006               :
 energy of atom  1       EATOM= -766.0439
 kinetic energy error for atom=    0.0103 (will be added to EATOM!!)
  PAW_PBE Mg_pv 13Apr2007               :
 energy of atom  2       EATOM=-1056.7344
 kinetic energy error for atom=    0.0820 (will be added to EATOM!!)
  PAW_PBE Mn_pv 02Aug2007               :
 energy of atom  3       EATOM=-2025.2664
 kinetic energy error for atom=    0.0284 (will be added to EATOM!!)
  PAW_PBE O 08Apr2002                   :
 energy of atom  4       EATOM= -432.3788
 kinetic energy error for atom=    0.1156 (will be added to EATOM!!)
 
 
 POSCAR: Na Mg Mn  O                             
  positions in cartesian coordinates
  No initial velocities read in

 METAGGA = SCAN     LMAXTAU =  6    LMIXTAU =  F

 exchange correlation table for  LEXCH =        8
   RHO(1)=    0.500       N(1)  =     2000
   RHO(2)=  100.500       N(2)  =     4000

 VTST: version 3.2, (02/03/18)

 CHAIN: initializing optimizer
 
 OPT: Using VASP Dynamics algorithm
 CHAIN: Read ICHAIN            0
 
 POSCAR: Na Mg Mn  O                             
  positions in cartesian coordinates
  No initial velocities read in
 


--------------------------------------------------------------------------------------------------------


 ion  position               nearest neighbor table
   1  0.093  0.159  0.235-  67 2.27  42 2.28  41 2.37
   2  0.589  0.854  0.753-  82 2.31  71 2.33  85 2.38
   3  0.750  0.652  0.761-  73 2.27  60 2.30  71 2.38
   4  0.371  0.428  0.730-  46 2.27  45 2.29  49 2.33
   5  0.417  0.663  0.254-  74 2.24  87 2.33  35 2.83  33 2.85
   6  0.730  0.962  0.255-  74 2.34  76 2.37  65 2.37  63 2.38
   7  0.927  0.470  0.742-  61 2.33  58 2.33  80 2.38
   8  0.256  0.656  0.755-  45 2.33  85 2.35  82 2.37  48 2.37
   9  0.454  0.385  0.252-  52 2.22
  10  0.581  0.183  0.243-  53 2.26  62 2.27
  11  0.880  0.655  0.250-  75 2.21  66 2.23  55 2.36  37 2.85  39 2.96
  12  0.454  0.161  0.749-  56 2.28  59 2.33  31 2.89  29 2.90
  13  0.929  0.152  0.753-  44 2.34  47 2.35  25 2.90  27 2.91
  14  0.114  0.886  0.753-  84 2.18  81 2.22  70 2.30
  15  0.249  0.917  0.255-  88 2.20  77 2.31  79 2.31  38 2.96
  16  0.966  0.374  0.237-  41 2.13  55 2.35  50 2.37
  17  0.596  0.513  0.987-  66 1.99  49 2.01  71 2.04  43 2.04  60 2.06  53 2.13  34 2.72  37 2.85
                            33 2.85
  18  0.233  0.309  0.497-  50 1.99  52 2.03  44 2.05  51 2.14  46 2.14  45 2.17  32 2.78
  19  0.081  0.508  0.004-  61 2.01  48 2.03  41 2.06  83 2.07  55 2.07  78 2.12  37 2.77  38 2.84
                            30 2.85
  20  0.742  0.315  0.506-  58 1.98  57 1.98  56 2.01  62 2.01  64 2.08  63 2.13  28 2.80
  21  0.095  0.004  0.997-  47 1.96  84 1.97  42 2.10  67 2.14  73 2.16  77 2.22  26 2.82  29 2.85

  22  0.748  0.806  0.498-  75 1.99  69 2.02  68 2.07  74 2.07  76 2.12  70 2.14  28 2.83  39 2.85

  23  0.589  0.999  0.010-  65 2.00  59 2.00  79 2.03  72 2.05  54 2.10  85 2.12
  24  0.246  0.811  0.488-  88 1.95  87 1.99  86 2.00  80 2.01  81 2.15  82 2.17  40 2.81
  25  0.925  0.172  0.010-  41 1.85  67 1.96  61 1.98  72 1.99  47 1.99  54 1.99  26 2.85  13 2.90
                            30 2.90  34 3.00
  26  0.253  0.329  0.997-  47 1.85  43 1.91  42 1.92  49 1.93  48 1.95  41 2.05  21 2.82  25 2.85
                            29 2.86  33 2.90
  27  0.901  0.139  0.494-  69 1.88  50 1.90  44 1.90  58 1.93  76 1.94  63 1.98  40 2.88  13 2.91
                            36 2.93  32 2.95
  28  0.584  0.480  0.498-  75 1.83  62 1.91  68 1.93  57 1.93  46 1.95  52 1.96  20 2.80  22 2.83
                            39 2.87  35 2.88  31 2.95
  29  0.423  0.170  0.006-  53 1.83  79 1.88  42 1.90  59 1.91  84 2.00  49 2.02  21 2.85  30 2.86
                            26 2.86  12 2.90  38 2.90
  30  0.753  0.333  0.005-  59 1.87  53 1.91  55 1.91  54 1.93  60 1.95  61 1.96  19 2.85  29 2.86
                            25 2.90  37 2.92
  31  0.404  0.140  0.495-  46 1.84  81 1.85  56 1.88  51 1.92  88 1.98  62 2.04  36 2.83  40 2.87
                            12 2.89  28 2.95
  32  0.083  0.479  0.498-  45 1.87  87 1.90  64 1.92  80 1.98  50 2.01  58 2.05  18 2.78  35 2.87
                            39 2.90  27 2.95
  33  0.418  0.663  0.000-  43 1.84  48 1.87  65 1.87  85 1.88  71 1.97  78 2.00   5 2.85  17 2.85
                            26 2.90  38 2.90  34 2.91
  34  0.753  0.826  0.000-  66 1.85  71 1.92  65 1.95  72 1.97  73 1.97  67 2.02  17 2.72  37 2.84
                            33 2.91  25 3.00
  35  0.414  0.642  0.505-  52 1.86  82 1.88  68 1.89  45 1.92  74 1.93  87 1.96   5 2.83  32 2.87
                            28 2.88  40 2.89
  36  0.079  0.979  0.497-  51 1.86  81 1.91  44 1.92  86 1.92  76 2.02  70 2.04  31 2.83  39 2.90
                            27 2.93
  37  0.924  0.670  0.998-  73 1.83  77 1.86  66 1.89  55 1.90  83 1.94  60 1.95  19 2.77  34 2.84
                            11 2.85  17 2.85  38 2.88  30 2.92
  38  0.256  0.835  0.003-  78 1.87  77 1.89  83 1.90  79 1.93  85 1.98  84 1.99  19 2.84  37 2.88
                            33 2.90  29 2.90  15 2.96
  39  0.915  0.645  0.511-  64 1.85  57 1.89  86 1.90  80 1.95  75 1.97  70 2.00  22 2.85  28 2.87
                            36 2.90  32 2.90  11 2.96
  40  0.569  0.975  0.498-  56 1.85  88 1.89  69 1.90  63 1.91  82 1.97  74 2.00  24 2.81  31 2.87
                            27 2.88  35 2.89
  41  0.081  0.330  0.096-  25 1.85  26 2.05  19 2.06  16 2.13   1 2.37
  42  0.271  0.183  0.097-  29 1.90  26 1.92  21 2.10   1 2.28
  43  0.414  0.501  0.079-  33 1.84  26 1.91  17 2.04
  44  0.056  0.130  0.586-  27 1.90  36 1.92  18 2.05  13 2.34
  45  0.241  0.497  0.598-  32 1.87  35 1.92  18 2.17   4 2.29   8 2.33
  46  0.421  0.303  0.583-  31 1.84  28 1.95  18 2.14   4 2.27
  47  0.091  0.173  0.912-  26 1.85  21 1.96  25 1.99  13 2.35
  48  0.256  0.503  0.916-  33 1.87  26 1.95  19 2.03   8 2.37
  49  0.418  0.335  0.906-  26 1.93  17 2.01  29 2.02   4 2.33
  50  0.060  0.299  0.403-  27 1.90  18 1.99  32 2.01  16 2.37
  51  0.236  0.124  0.402-  36 1.86  31 1.92  18 2.14
  52  0.416  0.488  0.415-  35 1.86  28 1.96  18 2.03   9 2.22
  53  0.583  0.327  0.087-  29 1.83  30 1.91  17 2.13  10 2.26
  54  0.764  0.184  0.106-  30 1.93  25 1.99  23 2.10
  55  0.900  0.505  0.096-  37 1.90  30 1.91  19 2.07  16 2.35  11 2.36
  56  0.561  0.130  0.580-  40 1.85  31 1.88  20 2.01  12 2.28
  57  0.746  0.487  0.596-  39 1.89  28 1.93  20 1.98
  58  0.908  0.302  0.590-  27 1.93  20 1.98  32 2.05   7 2.33
  59  0.590  0.173  0.921-  30 1.87  29 1.91  23 2.00  12 2.33
  60  0.771  0.499  0.904-  37 1.95  30 1.95  17 2.06   3 2.30
  61  0.916  0.330  0.911-  30 1.96  25 1.98  19 2.01   7 2.33
  62  0.578  0.318  0.404-  28 1.91  20 2.01  31 2.04  10 2.27
  63  0.729  0.131  0.402-  40 1.91  27 1.98  20 2.13   6 2.38
  64  0.924  0.498  0.418-  39 1.85  32 1.92  20 2.08
  65  0.581  0.816  0.090-  33 1.87  34 1.95  23 2.00   6 2.37
  66  0.765  0.674  0.086-  34 1.85  37 1.89  17 1.99  11 2.23
  67  0.914  1.000  0.101-  25 1.96  34 2.02  21 2.14   1 2.27
  68  0.569  0.632  0.593-  35 1.89  28 1.93  22 2.07
  69  0.737  0.980  0.580-  27 1.88  40 1.90  22 2.02
  70  0.925  0.815  0.611-  39 2.00  36 2.04  22 2.14  14 2.30
  71  0.589  0.686  0.898-  34 1.92  33 1.97  17 2.04   2 2.33   3 2.38
  72  0.764  0.001  0.913-  34 1.97  25 1.99  23 2.05
  73  0.910  0.812  0.904-  37 1.83  34 1.97  21 2.16   3 2.27
  74  0.566  0.803  0.406-  35 1.93  40 2.00  22 2.07   5 2.24   6 2.34
  75  0.745  0.630  0.413-  28 1.83  39 1.97  22 1.99  11 2.21
  76  0.919  0.990  0.395-  27 1.94  36 2.02  22 2.12   6 2.37
  77  0.085  0.807  0.095-  37 1.86  38 1.89  21 2.22  15 2.31
  78  0.266  0.688  0.099-  38 1.87  33 2.00  19 2.12
  79  0.413  0.005  0.094-  29 1.88  38 1.93  23 2.03  15 2.31
  80  0.088  0.647  0.593-  39 1.95  32 1.98  24 2.01   7 2.38
  81  0.247  0.995  0.588-  31 1.85  36 1.91  24 2.15  14 2.22
  82  0.420  0.802  0.597-  35 1.88  40 1.97  24 2.17   2 2.31   8 2.37
  83  0.095  0.689  0.904-  38 1.90  37 1.94  19 2.07
  84  0.262  0.004  0.904-  21 1.97  38 1.99  29 2.00  14 2.18
  85  0.413  0.818  0.909-  33 1.88  38 1.98  23 2.12   8 2.35   2 2.38
  86  0.062  0.804  0.412-  39 1.90  36 1.92  24 2.00
  87  0.248  0.635  0.408-  32 1.90  35 1.96  24 1.99   5 2.33
  88  0.416  0.979  0.401-  40 1.89  24 1.95  31 1.98  15 2.20
 
  LATTYP: Found a hexagonal cell.
 ALAT       =    10.0190000534
 C/A-ratio  =     1.1196726572
  
  Lattice vectors:
  
 A1 = (  10.0190000534,   0.0000000000,   0.0000000000)
 A2 = (  -5.0095000267,   8.6767085668,   0.0000000000)
 A3 = (   0.0000000000,   0.0000000000,  11.2180004120)


Analysis of symmetry for initial positions (statically):
=====================================================================
 Subroutine PRICEL returns:
 Original cell was already a primitive cell.
 

 Routine SETGRP: Setting up the symmetry group for a 
 hexagonal supercell.


 Subroutine GETGRP returns: Found  1 space group operations
 (whereof  1 operations were pure point group operations)
 out of a pool of 24 trial point group operations.


The static configuration has the point symmetry C_1 .


Analysis of symmetry for dynamics (positions and initial velocities):
=====================================================================
 Subroutine PRICEL returns:
 Original cell was already a primitive cell.
 

 Routine SETGRP: Setting up the symmetry group for a 
 hexagonal supercell.


 Subroutine GETGRP returns: Found  1 space group operations
 (whereof  1 operations were pure point group operations)
 out of a pool of 24 trial point group operations.


The dynamic configuration has the point symmetry C_1 .


Analysis of structural, dynamic, and magnetic symmetry:
=====================================================================
 Subroutine PRICEL returns:
 Original cell was already a primitive cell.
 

 Routine SETGRP: Setting up the symmetry group for a 
 hexagonal supercell.


 Subroutine GETGRP returns: Found  1 space group operations
 (whereof  1 operations were pure point group operations)
 out of a pool of 24 trial point group operations.


The magnetic configuration has the point symmetry C_1 .


 Subroutine INISYM returns: Found  1 space group operations
 (whereof  1 operations are pure point group operations),
 and found     1 'primitive' translations

 
 

Automatic generation of k-mesh.
 generate k-points for:    2    2    2
Space group operators:
 irot       det(A)        alpha          n_x          n_y          n_z        tau_x        tau_y        tau_z
    1     1.000000     0.000000     1.000000     0.000000     0.000000     0.000000     0.000000     0.000000
 
 Subroutine IBZKPT returns following result:
 ===========================================
 
 Found      8 irreducible k-points:
 
 Following reciprocal coordinates:
            Coordinates               Weight
  0.000000  0.000000  0.000000      1.000000
  0.500000 -0.000000 -0.000000      1.000000
  0.000000  0.500000  0.000000      1.000000
  0.500000  0.500000 -0.000000      1.000000
  0.000000  0.000000  0.500000      1.000000
  0.500000 -0.000000  0.500000      1.000000
  0.000000  0.500000  0.500000      1.000000
  0.500000  0.500000  0.500000      1.000000
 
 Following cartesian coordinates:
            Coordinates               Weight
  0.000000  0.000000  0.000000      1.000000
  0.049905  0.028813 -0.000000      1.000000
  0.000000  0.057626  0.000000      1.000000
  0.049905  0.086438 -0.000000      1.000000
  0.000000  0.000000  0.044571      1.000000
  0.049905  0.028813  0.044571      1.000000
  0.000000  0.057626  0.044571      1.000000
  0.049905  0.086438  0.044571      1.000000
 


--------------------------------------------------------------------------------------------------------




 Dimension of arrays:
   k-points           NKPTS =      8   k-points in BZ     NKDIM =      8   number of bands    NBANDS=    480
   number of dos      NEDOS =    301   number of ions     NIONS =     88
   non local maximal  LDIM  =      6   non local SUM 2l+1 LMDIM =     18
   total plane-waves  NPLWV = 140000
   max r-space proj   IRMAX =   1632   max aug-charges    IRDMAX=   4555
   dimension x,y,z NGX =    50 NGY =   50 NGZ =   56
   dimension x,y,z NGXF=   100 NGYF=  100 NGZF=  112
   support grid    NGXF=   100 NGYF=  100 NGZF=  112
   ions per type =              16   8  16  48
   NGX,Y,Z   is equivalent  to a cutoff of   8.30,  8.30,  8.30 a.u.
   NGXF,Y,Z  is equivalent  to a cutoff of  16.59, 16.59, 16.60 a.u.

 SYSTEM =  unknown system                          
 POSCAR =  Na Mg Mn  O                             

 Startparameter for this run:
   NWRITE =      2    write-flag & timer
   PREC   = normal    normal or accurate (medium, high low for compatibility)
   ISTART =      0    job   : 0-new  1-cont  2-samecut
   ICHARG =      1    charge: 1-file 2-atom 10-const
   ISPIN  =      2    spin polarized calculation?
   LNONCOLLINEAR =      F non collinear calculations
   LSORBIT =      F    spin-orbit coupling
   INIWAV =      1    electr: 0-lowe 1-rand  2-diag
   LASPH  =      T    aspherical Exc in radial PAW
   METAGGA=      F    non-selfconsistent MetaGGA calc.

 Electronic Relaxation 1
   ENCUT  =  400.0 eV  29.40 Ry    5.42 a.u.  16.34 16.34 18.29*2*pi/ulx,y,z
   ENINI  =  400.0     initial cutoff
   ENAUG  =  758.8 eV  augmentation charge cutoff
   NELM   =    200;   NELMIN=  6; NELMDL=-12     # of ELM steps 
   EDIFF  = 0.1E-04   stopping-criterion for ELM
   LREAL  =      T    real-space projection
   NLSPLINE    = F    spline interpolate recip. space projectors
   LCOMPAT=      F    compatible to vasp.4.4
   GGA_COMPAT  = T    GGA compatible to vasp.4.4-vasp.4.6
   LMAXPAW     = -100 max onsite density
   LMAXMIX     =    4 max onsite mixed and CHGCAR
   VOSKOWN=      0    Vosko Wilk Nusair interpolation
   ROPT   =   -0.00050  -0.00050  -0.00050  -0.00050
 Ionic relaxation
   EDIFFG = 0.1E-03   stopping-criterion for IOM
   NSW    =      1    number of steps for IOM
   NBLOCK =      1;   KBLOCK =      1    inner block; outer block 
   IBRION =     -1    ionic relax: 0-MD 1-quasi-New 2-CG
   NFREE  =      0    steps in history (QN), initial steepest desc. (CG)
   ISIF   =      2    stress and relaxation
   IWAVPR =     10    prediction:  0-non 1-charg 2-wave 3-comb
   ISYM   =      2    0-nonsym 1-usesym 2-fastsym
   LCORR  =      T    Harris-Foulkes like correction to forces

   POTIM  = 0.5000    time-step for ionic-motion
   TEIN   =    0.0    initial temperature
   TEBEG  =    0.0;   TEEND  =   0.0 temperature during run
   SMASS  =  -3.00    Nose mass-parameter (am)
   estimated Nose-frequenzy (Omega)   =  0.10E-29 period in steps =****** mass=  -0.229E-26a.u.
   SCALEE = 1.0000    scale energy and forces
   NPACO  =    256;   APACO  = 16.0  distance and # of slots for P.C.
   PSTRESS=    0.0 pullay stress

  Mass of Ions in am
   POMASS =  22.99 24.30 54.94 16.00
  Ionic Valenz
   ZVAL   =   7.00  8.00 13.00  6.00
  Atomic Wigner-Seitz radii
   RWIGS  =  -1.00 -1.00 -1.00 -1.00
  virtual crystal weights 
   VCA    =   1.00  1.00  1.00  1.00
   NELECT =     672.0000    total number of electrons
   NUPDOWN=      48.0000    fix difference up-down

 DOS related values:
   EMIN   =  10.00;   EMAX   =-10.00  energy-range for DOS
   EFERMI =   0.00
   ISMEAR =     0;   SIGMA  =   0.05  broadening in eV -4-tet -1-fermi 0-gaus

 Electronic relaxation 2 (details)
   IALGO  =     48    algorithm
   LDIAG  =      T    sub-space diagonalisation (order eigenvalues)
   LSUBROT=      F    optimize rotation matrix (better conditioning)
   TURBO    =      0    0=normal 1=particle mesh
   IRESTART =      0    0=no restart 2=restart with 2 vectors
   NREBOOT  =      0    no. of reboots
   NMIN     =      0    reboot dimension
   EREF     =   0.00    reference energy to select bands
   IMIX   =      4    mixing-type and parameters
     AMIX     =   0.40;   BMIX     =  1.00
     AMIX_MAG =   1.60;   BMIX_MAG =  1.00
     AMIN     =   0.10
     WC   =   100.;   INIMIX=   1;  MIXPRE=   1;  MAXMIX= -45

 Intra band minimization:
   WEIMIN = 0.0000     energy-eigenvalue tresh-hold
   EBREAK =  0.52E-08  absolut break condition
   DEPER  =   0.30     relativ break condition  

   TIME   =   0.40     timestep for ELM

  volume/ion in A,a.u.               =      11.08        74.78
  Fermi-wavevector in a.u.,A,eV,Ry     =   1.445993  2.732531 28.448379  2.090897
  Thomas-Fermi vector in A             =   2.564112
 
 Write flags
   LWAVE        =      F    write WAVECAR
   LDOWNSAMPLE  =      F    k-point downsampling of WAVECAR
   LCHARG       =      F    write CHGCAR
   LVTOT        =      F    write LOCPOT, total local potential
   LVHAR        =      F    write LOCPOT, Hartree potential only
   LELF         =      F    write electronic localiz. function (ELF)
   LORBIT       =     11    0 simple, 1 ext, 2 COOP (PROOUT), +10 PAW based schemes


 Dipole corrections
   LMONO  =      F    monopole corrections only (constant potential shift)
   LDIPOL =      F    correct potential (dipole corrections)
   IDIPOL =      0    1-x, 2-y, 3-z, 4-all directions 
   EPSILON=  1.0000000 bulk dielectric constant

 Exchange correlation treatment:
   GGA     =    --    GGA type
   LEXCH   =     8    internal setting for exchange type
   VOSKOWN=      0    Vosko Wilk Nusair interpolation
   LHFCALC =     F    Hartree Fock is set to
   LHFONE  =     F    Hartree Fock one center treatment
   AEXX    =    0.0000 exact exchange contribution

 Linear response parameters
   LEPSILON=     F    determine dielectric tensor
   LRPA    =     F    only Hartree local field effects (RPA)
   LNABLA  =     F    use nabla operator in PAW spheres
   LVEL    =     F    velocity operator in full k-point grid
   LINTERFAST=   F  fast interpolation
   KINTER  =     0    interpolate to denser k-point grid
   CSHIFT  =0.1000    complex shift for real part using Kramers Kronig
   OMEGAMAX=  -1.0    maximum frequency
   DEG_THRESHOLD= 0.2000000E-02 threshold for treating states as degnerate
   RTIME   =   -0.100 relaxation time in fs
  (WPLASMAI=    0.000 imaginary part of plasma frequency in eV, 0.658/RTIME)
   DFIELD  = 0.0000000 0.0000000 0.0000000 field for delta impulse in time
 
 Orbital magnetization related:
   ORBITALMAG=     F  switch on orbital magnetization
   LCHIMAG   =     F  perturbation theory with respect to B field
   DQ        =  0.001000  dq finite difference perturbation B field
   LLRAUG    =     F  two centre corrections for induced B field



--------------------------------------------------------------------------------------------------------


 Static calculation
 charge density and potential will be updated during run
 spin polarized calculation
 RMM-DIIS sequential band-by-band
 perform sub-space diagonalisation
    before iterative eigenvector-optimisation
 modified Broyden-mixing scheme, WC =      100.0
 initial mixing is a Kerker type mixing with AMIX =  0.4000 and BMIX =      1.0000
 Hartree-type preconditioning will be used
 using additional bands          144
 real space projection scheme for non local part
 use partial core corrections
 calculate Harris-corrections to forces 
   (improved forces if not selfconsistent)
 use gradient corrections 
 use of overlap-Matrix (Vanderbilt PP)
 Gauss-broadening in eV      SIGMA  =   0.05


--------------------------------------------------------------------------------------------------------


  energy-cutoff  :      400.00
  volume of cell :      975.20
      direct lattice vectors                 reciprocal lattice vectors
    10.019000053  0.000000000  0.000000000     0.099810360  0.057625538 -0.000000000
    -5.009500027  8.676708567  0.000000000     0.000000000  0.115251076  0.000000000
     0.000000000  0.000000000 11.218000412     0.000000000  0.000000000  0.089142446

  length of vectors
    10.019000053 10.019000053 11.218000412     0.115251076  0.115251076  0.089142446


 
 k-points in units of 2pi/SCALE and weight: read from INCAR                         
   0.00000000  0.00000000  0.00000000       0.125
   0.04990518  0.02881277 -0.00000000       0.125
   0.00000000  0.05762554  0.00000000       0.125
   0.04990518  0.08643831 -0.00000000       0.125
   0.00000000  0.00000000  0.04457122       0.125
   0.04990518  0.02881277  0.04457122       0.125
   0.00000000  0.05762554  0.04457122       0.125
   0.04990518  0.08643831  0.04457122       0.125
 
 k-points in reciprocal lattice and weights: read from INCAR                         
   0.00000000  0.00000000  0.00000000       0.125
   0.50000000 -0.00000000 -0.00000000       0.125
   0.00000000  0.50000000  0.00000000       0.125
   0.50000000  0.50000000 -0.00000000       0.125
   0.00000000  0.00000000  0.50000000       0.125
   0.50000000 -0.00000000  0.50000000       0.125
   0.00000000  0.50000000  0.50000000       0.125
   0.50000000  0.50000000  0.50000000       0.125
 
 position of ions in fractional coordinates (direct lattice) 
   0.09277218  0.15899478  0.23502139
   0.58900446  0.85362521  0.75299694
   0.75048251  0.65241724  0.76088070
   0.37078402  0.42772440  0.72990459
   0.41698394  0.66317379  0.25371901
   0.72999866  0.96218316  0.25456408
   0.92679472  0.46959907  0.74197448
   0.25559853  0.65586226  0.75526383
   0.45385375  0.38514045  0.25179799
   0.58120923  0.18305921  0.24284185
   0.87965929  0.65461755  0.24990728
   0.45370062  0.16065605  0.74942590
   0.92904914  0.15156077  0.75274110
   0.11380483  0.88637791  0.75256371
   0.24868565  0.91659477  0.25542698
   0.96585023  0.37376253  0.23724816
   0.59602491  0.51335134  0.98735755
   0.23323469  0.30866082  0.49656800
   0.08089778  0.50798180  0.00353892
   0.74176877  0.31487401  0.50632910
   0.09483252  0.00384609  0.99724884
   0.74752099  0.80577559  0.49784987
   0.58877219  0.99856644  0.01021403
   0.24597289  0.81116128  0.48769030
   0.92490311  0.17183837  0.01004029
   0.25285020  0.32927002  0.99723834
   0.90103559  0.13879341  0.49420394
   0.58423802  0.47971071  0.49799606
   0.42314400  0.16977537  0.00566954
   0.75280383  0.33331303  0.00518805
   0.40445777  0.14042767  0.49492956
   0.08320678  0.47883595  0.49781421
   0.41794133  0.66293687  0.00009009
   0.75309433  0.82591918  0.00035198
   0.41415681  0.64186667  0.50517827
   0.07887687  0.97871790  0.49661970
   0.92393529  0.67010433  0.99843052
   0.25567321  0.83516116  0.00252861
   0.91462986  0.64458659  0.51132999
   0.56910699  0.97455273  0.49772863
   0.08133417  0.33040524  0.09569352
   0.27055672  0.18284814  0.09732661
   0.41440271  0.50056308  0.07902219
   0.05605916  0.12962305  0.58572203
   0.24054973  0.49668719  0.59820821
   0.42138845  0.30343764  0.58306113
   0.09137752  0.17322237  0.91227488
   0.25569012  0.50326803  0.91638435
   0.41820350  0.33499569  0.90567834
   0.06029426  0.29892787  0.40262612
   0.23587695  0.12428808  0.40166962
   0.41595320  0.48752473  0.41495898
   0.58321836  0.32700764  0.08725165
   0.76365596  0.18351314  0.10619450
   0.90045855  0.50482968  0.09602603
   0.56083043  0.13042520  0.57967907
   0.74618009  0.48714210  0.59628541
   0.90830718  0.30174461  0.59026830
   0.58996417  0.17262421  0.92117130
   0.77112885  0.49940712  0.90350327
   0.91598146  0.33032802  0.91119626
   0.57837792  0.31823703  0.40393919
   0.72885141  0.13134490  0.40245140
   0.92408598  0.49788350  0.41773042
   0.58089229  0.81567220  0.08950258
   0.76461137  0.67390186  0.08598609
   0.91377238  0.99950804  0.10124799
   0.56913282  0.63156437  0.59340433
   0.73747899  0.97978282  0.57994204
   0.92486403  0.81539330  0.61072738
   0.58850906  0.68629250  0.89790512
   0.76382664  0.00118956  0.91320196
   0.91003767  0.81209251  0.90401138
   0.56648001  0.80255778  0.40556515
   0.74511830  0.62972958  0.41333659
   0.91885310  0.98979122  0.39499018
   0.08523563  0.80666648  0.09516669
   0.26561725  0.68820106  0.09898645
   0.41268434  0.00520260  0.09359065
   0.08780484  0.64670260  0.59335708
   0.24700203  0.99476661  0.58790691
   0.42005249  0.80167381  0.59680333
   0.09461332  0.68859982  0.90413618
   0.26168730  0.00394751  0.90427880
   0.41346171  0.81836908  0.90856656
   0.06159285  0.80394425  0.41166695
   0.24780063  0.63450673  0.40757798
   0.41631933  0.97933334  0.40128096
 
 position of ions in cartesian coordinates  (Angst):
   0.13300011  1.37955140  2.63647000
   1.62500019  7.40665717  8.44712000
   4.25080011  5.66083427  8.53556000
   1.57219968  3.71124000  8.18807000
   0.85559300  5.75416573  2.84622000
   2.49380000  8.34858287  2.85570000
   6.93309976  4.07457430  8.32347000
  -0.72470029  5.69072570  8.47255000
   2.61779963  3.34175140  2.82467000
   4.90610021  1.58835140  2.72420000
   5.53399987  5.67992570  2.80346000
   3.74082000  1.39396573  8.40706000
   8.54889968  1.31504860  8.44425000
  -3.30009960  7.69084283  8.44226000
  -2.10009997  7.95302570  2.86538000
   7.80449008  3.24302857  2.66145000
   3.39994000  4.45420000 11.07617741
   0.79054200  2.67816000  5.57050000
  -1.73422000  4.40761000  0.03969959
   5.85442000  2.73207000  5.68000000
   0.93086003  0.03337143 11.18713791
   3.45288000  6.99148000  5.58488000
   0.89659000  8.66427000  0.11458100
  -1.59911000  7.03821000  5.47091000
   8.40578003  1.49099143  0.11263200
   0.88382800  2.85698000 11.18702011
   8.33219005  1.20427000  5.54398000
   3.45037000  4.16231000  5.58652000
   3.38899003  1.47309143  0.06360090
   5.87261000  2.89206000  0.05819959
   3.34879000  1.21845000  5.55212000
  -1.56508000  4.15472000  5.58448000
   0.86637200  5.75211000  0.00101066
   3.40781000  7.16626000  0.00394854
   0.93400600  5.56929000  5.66709000
  -4.11262000  8.49205000  5.57108000
   5.90002005  5.81430000 11.20039401
  -1.62215000  7.24645000  0.02836590
   5.93462005  5.59289000  5.73610000
   0.81986100  8.45591000  5.58352000
  -0.84027800  2.86683000  1.07349000
   1.79473000  1.58652000  1.09181000
   1.64433000  4.34324000  0.88647100
  -0.08768997  1.12470143  6.57063000
  -0.07808670  4.30961000  6.71070000
   2.70182000  2.63284000  6.54078000
   0.04775390  1.50300000 10.23390000
   0.04063810  4.36671000 10.28000000
   2.51182000  2.90666000 10.15990000
  -0.89339100  2.59371000  4.51666000
   1.74063003  1.07841143  4.50593000
   1.72518000  4.23011000  4.65501000
   4.20512000  2.83735000  0.97878900
   6.73176000  1.59229000  1.19129000
   6.49275000  4.38026000  1.07722000
   4.96559503  1.13166143  6.50284000
   5.03564000  4.22679000  6.68913000
   7.58874005  2.61815000  6.62163000
   5.04609000  1.49781000 10.33370000
   5.22416000  4.33321000 10.13550000
   7.52244000  2.86616000 10.22180000
   4.20056000  2.76125000  4.53139000
   6.64439003  1.13964143  4.51470000
   6.76427005  4.31999000  4.68610000
   1.73385000  7.07735000  1.00404000
   4.28473000  5.84725000  0.96459200
   4.14805000  8.67244000  1.13580000
   2.53832000  5.47990000  6.65681000
   2.48058000  8.50129000  6.50579000
   5.18150005  7.07493000  6.85114000
   2.45829000  5.95476000 10.07270000
   7.64682003  0.01032143 10.24430000
   5.04949000  7.04629000 10.14120000
   1.65515000  6.96356000  4.54963000
   4.31071000  5.46398000  4.63681000
   4.24763005  8.58813000  4.43100000
  -3.18702000  6.99921000  1.06758000
  -0.78632400  5.97132000  1.11043000
   4.10862203  0.04514143  1.04990000
  -2.35994000  5.61125000  6.65628000
  -2.50857000  8.63130000  6.59514000
   0.19252100  6.95589000  6.69494000
  -2.50161000  5.97478000 10.14260000
   2.60207003  0.03425143 10.14420000
   0.04285300  7.10075000 10.19230000
  -3.41026000  6.97559000  4.61808000
  -0.69584700  5.50543000  4.57221000
  -0.73486700  8.49739000  4.50157000
 


--------------------------------------------------------------------------------------------------------


 k-point  1 :   0.0000 0.0000 0.0000  plane waves:   17725
 k-point  2 :   0.5000-0.0000-0.0000  plane waves:   17736
 k-point  3 :   0.0000 0.5000 0.0000  plane waves:   17736
 k-point  4 :   0.5000 0.5000-0.0000  plane waves:   17736
 k-point  5 :   0.0000 0.0000 0.5000  plane waves:   17676
 k-point  6 :   0.5000-0.0000 0.5000  plane waves:   17700
 k-point  7 :   0.0000 0.5000 0.5000  plane waves:   17700
 k-point  8 :   0.5000 0.5000 0.5000  plane waves:   17700

 maximum and minimum number of plane-waves per node :     17736    17676

 maximum number of plane-waves:     17736
 maximum index in each direction: 
   IXMAX=   16   IYMAX=   16   IZMAX=   18
   IXMIN=  -16   IYMIN=  -16   IZMIN=  -18


 serial   3D FFT for wavefunctions
 parallel 3D FFT for charge:
    minimum data exchange during FFTs selected (reduces bandwidth)


 total amount of memory used by VASP MPI-rank0    94429. kBytes
=======================================================================

   base      :      30000. kBytes
   nonlr-proj:      13670. kBytes
   fftplans  :       1275. kBytes
   grid      :      22786. kBytes
   one-center:       2737. kBytes
   wavefun   :      23961. kBytes
 
     INWAV:  cpu time    0.0000: real time    0.0001
 Broyden mixing: mesh for mixing (old mesh)
   NGX = 33   NGY = 33   NGZ = 37
  (NGX  =100   NGY  =100   NGZ  =112)
  gives a total of  40293 points

 initial charge density was supplied:
 charge density of overlapping atoms calculated
 number of electron     672.0000000 magnetization      48.0000000
 keeping initial charge density in first step


--------------------------------------------------------------------------------------------------------


 Maximum index for non-local projection operator         1550
 Maximum index for augmentation-charges          508 (set IRDMAX)


--------------------------------------------------------------------------------------------------------


 First call to EWALD:  gamma=   0.179
 Maximum number of real-space cells 3x 3x 2
 Maximum number of reciprocal cells 3x 3x 3

    FEWALD:  cpu time    0.0030: real time    0.0030


--------------------------------------- Iteration      1(   1)  ---------------------------------------


    POTLOK:  cpu time    0.1941: real time    0.1954
    SETDIJ:  cpu time    4.6609: real time    4.6702
    EDDIAG:  cpu time    4.3727: real time    4.7984
  RMM-DIIS:  cpu time    9.1831: real time    9.2056
    ORTHCH:  cpu time    1.1555: real time    1.2386
       DOS:  cpu time    0.0022: real time    0.0023
    --------------------------------------------
      LOOP:  cpu time   19.5685: real time   20.1105

 eigenvalue-minimisations  :  7680
 total energy-change (2. order) : 0.1602476E+04  (-0.3497850E+05)
 number of electron     672.0000000 magnetization      48.0000000
 augmentation part      672.0000000 magnetization      48.0000000

 Free energy of the ion-electron system (eV)
  ---------------------------------------------------
  alpha Z        PSCENC =      2652.81237852
  Ewald energy   TEWEN  =    -41719.56666575
  -Hartree energ DENC   =    -25886.61509071
  -exchange      EXHF   =         0.00000000
  -V(xc)+E(xc)   XCENC  =      3606.45121795
  PAW double counting   =     55594.23204139   -59034.67079123
  entropy T*S    EENTRO =        -0.04790673
  eigenvalues    EBANDS =     -7472.31766422
  atomic energy  EATOM  =     73862.19814772
  Solvation  Ediel_sol  =         0.00000000
  ---------------------------------------------------
  free energy    TOTEN  =      1602.47566695 eV

  energy without entropy =     1602.52357367  energy(sigma->0) =     1602.49962031


--------------------------------------------------------------------------------------------------------




--------------------------------------- Iteration      1(   2)  ---------------------------------------


    EDDIAG:  cpu time    4.4466: real time    4.8677
  RMM-DIIS:  cpu time    9.1804: real time    9.1960
    ORTHCH:  cpu time    1.1601: real time    1.2411
       DOS:  cpu time    0.0022: real time    0.0022
    --------------------------------------------
      LOOP:  cpu time   14.7893: real time   15.3070

 eigenvalue-minimisations  :  7680
 total energy-change (2. order) :-0.2326318E+04  (-0.8037847E+04)
 number of electron     672.0000000 magnetization      48.0000000
 augmentation part      672.0000000 magnetization      48.0000000

 Free energy of the ion-electron system (eV)
  ---------------------------------------------------
  alpha Z        PSCENC =      2652.81237852
  Ewald energy   TEWEN  =    -41719.56666575
  -Hartree energ DENC   =    -25886.61509071
  -exchange      EXHF   =         0.00000000
  -V(xc)+E(xc)   XCENC  =      3606.45121795
  PAW double counting   =     55594.23204139   -59034.67079123
  entropy T*S    EENTRO =        -0.04383976
  eigenvalues    EBANDS =     -9798.63986538
  atomic energy  EATOM  =     73862.19814772
  Solvation  Ediel_sol  =         0.00000000
  ---------------------------------------------------
  free energy    TOTEN  =      -723.84246725 eV

  energy without entropy =     -723.79862749  energy(sigma->0) =     -723.82054737


--------------------------------------------------------------------------------------------------------




--------------------------------------- Iteration      1(   3)  ---------------------------------------


    EDDIAG:  cpu time    4.3987: real time    4.8241
  RMM-DIIS:  cpu time    9.1933: real time    9.2014
    ORTHCH:  cpu time    1.1603: real time    1.2424
       DOS:  cpu time    0.0020: real time    0.0020
    --------------------------------------------
      LOOP:  cpu time   14.7544: real time   15.2700

 eigenvalue-minimisations  :  7680
 total energy-change (2. order) : 0.8096442E+02  (-0.1423540E+04)
 number of electron     672.0000000 magnetization      48.0000000
 augmentation part      672.0000000 magnetization      48.0000000

 Free energy of the ion-electron system (eV)
  ---------------------------------------------------
  alpha Z        PSCENC =      2652.81237852
  Ewald energy   TEWEN  =    -41719.56666575
  -Hartree energ DENC   =    -25886.61509071
  -exchange      EXHF   =         0.00000000
  -V(xc)+E(xc)   XCENC  =      3606.45121795
  PAW double counting   =     55594.23204139   -59034.67079123
  entropy T*S    EENTRO =        -0.03858652
  eigenvalues    EBANDS =     -9717.68069587
  atomic energy  EATOM  =     73862.19814772
  Solvation  Ediel_sol  =         0.00000000
  ---------------------------------------------------
  free energy    TOTEN  =      -642.87804451 eV

  energy without entropy =     -642.83945798  energy(sigma->0) =     -642.85875124


--------------------------------------------------------------------------------------------------------




--------------------------------------- Iteration      1(   4)  ---------------------------------------


    EDDIAG:  cpu time    4.4919: real time    4.9053
  RMM-DIIS:  cpu time    9.1559: real time    9.2035
    ORTHCH:  cpu time    1.1624: real time    1.2430
       DOS:  cpu time    0.0010: real time    0.0010
    --------------------------------------------
      LOOP:  cpu time   14.8113: real time   15.3528

 eigenvalue-minimisations  :  7680
 total energy-change (2. order) :-0.4680664E+03  (-0.4311282E+03)
 number of electron     672.0000000 magnetization      48.0000000
 augmentation part      672.0000000 magnetization      48.0000000

 Free energy of the ion-electron system (eV)
  ---------------------------------------------------
  alpha Z        PSCENC =      2652.81237852
  Ewald energy   TEWEN  =    -41719.56666575
  -Hartree energ DENC   =    -25886.61509071
  -exchange      EXHF   =         0.00000000
  -V(xc)+E(xc)   XCENC  =      3606.45121795
  PAW double counting   =     55594.23204139   -59034.67079123
  entropy T*S    EENTRO =        -0.00000000
  eigenvalues    EBANDS =    -10185.78566578
  atomic energy  EATOM  =     73862.19814772
  Solvation  Ediel_sol  =         0.00000000
  ---------------------------------------------------
  free energy    TOTEN  =     -1110.94442789 eV

  energy without entropy =    -1110.94442789  energy(sigma->0) =    -1110.94442789


--------------------------------------------------------------------------------------------------------




--------------------------------------- Iteration      1(   5)  ---------------------------------------


    EDDIAG:  cpu time    4.4019: real time    4.8144
  RMM-DIIS:  cpu time    9.1745: real time    9.1826
    ORTHCH:  cpu time    1.1641: real time    1.2467
       DOS:  cpu time    0.0013: real time    0.0013
    --------------------------------------------
      LOOP:  cpu time   14.7418: real time   15.2450

 eigenvalue-minimisations  :  7680
 total energy-change (2. order) :-0.1049787E+03  (-0.1602460E+03)
 number of electron     672.0000000 magnetization      48.0000000
 augmentation part      672.0000000 magnetization      48.0000000

 Free energy of the ion-electron system (eV)
  ---------------------------------------------------
  alpha Z        PSCENC =      2652.81237852
  Ewald energy   TEWEN  =    -41719.56666575
  -Hartree energ DENC   =    -25886.61509071
  -exchange      EXHF   =         0.00000000
  -V(xc)+E(xc)   XCENC  =      3606.45121795
  PAW double counting   =     55594.23204139   -59034.67079123
  entropy T*S    EENTRO =        -0.00000000
  eigenvalues    EBANDS =    -10290.76434074
  atomic energy  EATOM  =     73862.19814772
  Solvation  Ediel_sol  =         0.00000000
  ---------------------------------------------------
  free energy    TOTEN  =     -1215.92310285 eV

  energy without entropy =    -1215.92310285  energy(sigma->0) =    -1215.92310285


--------------------------------------------------------------------------------------------------------




--------------------------------------- Iteration      1(   6)  ---------------------------------------


    EDDIAG:  cpu time    4.4830: real time    4.8904
  RMM-DIIS:  cpu time    9.1698: real time    9.1968
    ORTHCH:  cpu time    1.1574: real time    1.2392
       DOS:  cpu time    0.0011: real time    0.0011
    --------------------------------------------
      LOOP:  cpu time   14.8112: real time   15.3274

 eigenvalue-minimisations  :  7680
 total energy-change (2. order) :-0.9036528E+01  (-0.7956401E+02)
 number of electron     672.0000000 magnetization      48.0000000
 augmentation part      672.0000000 magnetization      48.0000000

 Free energy of the ion-electron system (eV)
  ---------------------------------------------------
  alpha Z        PSCENC =      2652.81237852
  Ewald energy   TEWEN  =    -41719.56666575
  -Hartree energ DENC   =    -25886.61509071
  -exchange      EXHF   =         0.00000000
  -V(xc)+E(xc)   XCENC  =      3606.45121795
  PAW double counting   =     55594.23204139   -59034.67079123
  entropy T*S    EENTRO =        -0.00000000
  eigenvalues    EBANDS =    -10299.80086897
  atomic energy  EATOM  =     73862.19814772
  Solvation  Ediel_sol  =         0.00000000
  ---------------------------------------------------
  free energy    TOTEN  =     -1224.95963108 eV

  energy without entropy =    -1224.95963108  energy(sigma->0) =    -1224.95963108


--------------------------------------------------------------------------------------------------------




--------------------------------------- Iteration      1(   7)  ---------------------------------------


    EDDIAG:  cpu time    4.3901: real time    4.8033
  RMM-DIIS:  cpu time    9.1699: real time    9.1789
    ORTHCH:  cpu time    1.1543: real time    1.2400
       DOS:  cpu time    0.0013: real time    0.0013
    --------------------------------------------
      LOOP:  cpu time   14.7156: real time   15.2235

 eigenvalue-minimisations  :  7680
 total energy-change (2. order) :-0.1873621E+01  (-0.4853926E+02)
 number of electron     672.0000000 magnetization      48.0000000
 augmentation part      672.0000000 magnetization      48.0000000

 Free energy of the ion-electron system (eV)
  ---------------------------------------------------
  alpha Z        PSCENC =      2652.81237852
  Ewald energy   TEWEN  =    -41719.56666575
  -Hartree energ DENC   =    -25886.61509071
  -exchange      EXHF   =         0.00000000
  -V(xc)+E(xc)   XCENC  =      3606.45121795
  PAW double counting   =     55594.23204139   -59034.67079123
  entropy T*S    EENTRO =        -0.00000000
  eigenvalues    EBANDS =    -10301.67448952
  atomic energy  EATOM  =     73862.19814772
  Solvation  Ediel_sol  =         0.00000000
  ---------------------------------------------------
  free energy    TOTEN  =     -1226.83325163 eV

  energy without entropy =    -1226.83325163  energy(sigma->0) =    -1226.83325163


--------------------------------------------------------------------------------------------------------




--------------------------------------- Iteration      1(   8)  ---------------------------------------


    EDDIAG:  cpu time    4.4096: real time    4.8317
  RMM-DIIS:  cpu time    9.1602: real time    9.1822
    ORTHCH:  cpu time    1.1594: real time    1.2404
       DOS:  cpu time    0.0016: real time    0.0016
    --------------------------------------------
      LOOP:  cpu time   14.7307: real time   15.2559

 eigenvalue-minimisations  :  7680
 total energy-change (2. order) : 0.5082406E+01  (-0.3013292E+02)
 number of electron     672.0000000 magnetization      48.0000000
 augmentation part      672.0000000 magnetization      48.0000000

 Free energy of the ion-electron system (eV)
  ---------------------------------------------------
  alpha Z        PSCENC =      2652.81237852
  Ewald energy   TEWEN  =    -41719.56666575
  -Hartree energ DENC   =    -25886.61509071
  -exchange      EXHF   =         0.00000000
  -V(xc)+E(xc)   XCENC  =      3606.45121795
  PAW double counting   =     55594.23204139   -59034.67079123
  entropy T*S    EENTRO =        -0.00000000
  eigenvalues    EBANDS =    -10296.59208391
  atomic energy  EATOM  =     73862.19814772
  Solvation  Ediel_sol  =         0.00000000
  ---------------------------------------------------
  free energy    TOTEN  =     -1221.75084602 eV

  energy without entropy =    -1221.75084602  energy(sigma->0) =    -1221.75084602


--------------------------------------------------------------------------------------------------------




--------------------------------------- Iteration      1(   9)  ---------------------------------------


    EDDIAG:  cpu time    4.3823: real time    4.8110
  RMM-DIIS:  cpu time   19.3489: real time   19.3656
    ORTHCH:  cpu time    1.1592: real time    1.2424
       DOS:  cpu time    0.0017: real time    0.0017
    --------------------------------------------
      LOOP:  cpu time   24.8921: real time   25.4206

 eigenvalue-minimisations  : 21746
 total energy-change (2. order) : 0.9317135E+01  (-0.1328163E+02)
 number of electron     672.0000000 magnetization      48.0000000
 augmentation part      672.0000000 magnetization      48.0000000

 Free energy of the ion-electron system (eV)
  ---------------------------------------------------
  alpha Z        PSCENC =      2652.81237852
  Ewald energy   TEWEN  =    -41719.56666575
  -Hartree energ DENC   =    -25886.61509071
  -exchange      EXHF   =         0.00000000
  -V(xc)+E(xc)   XCENC  =      3606.45121795
  PAW double counting   =     55594.23204139   -59034.67079123
  entropy T*S    EENTRO =        -0.00000000
  eigenvalues    EBANDS =    -10287.27494877
  atomic energy  EATOM  =     73862.19814772
  Solvation  Ediel_sol  =         0.00000000
  ---------------------------------------------------
  free energy    TOTEN  =     -1212.43371088 eV

  energy without entropy =    -1212.43371088  energy(sigma->0) =    -1212.43371088


--------------------------------------------------------------------------------------------------------




--------------------------------------- Iteration      1(  10)  ---------------------------------------


    EDDIAG:  cpu time    4.3917: real time    4.8276
  RMM-DIIS:  cpu time   17.7681: real time   17.7903
    ORTHCH:  cpu time    1.1571: real time    1.2406
       DOS:  cpu time    0.0012: real time    0.0012
    --------------------------------------------
      LOOP:  cpu time   23.3182: real time   23.8597

 eigenvalue-minimisations  : 19766
 total energy-change (2. order) :-0.1901928E+01  (-0.5328113E+00)
 number of electron     672.0000000 magnetization      48.0000000
 augmentation part      672.0000000 magnetization      48.0000000

 Free energy of the ion-electron system (eV)
  ---------------------------------------------------
  alpha Z        PSCENC =      2652.81237852
  Ewald energy   TEWEN  =    -41719.56666575
  -Hartree energ DENC   =    -25886.61509071
  -exchange      EXHF   =         0.00000000
  -V(xc)+E(xc)   XCENC  =      3606.45121795
  PAW double counting   =     55594.23204139   -59034.67079123
  entropy T*S    EENTRO =        -0.00000000
  eigenvalues    EBANDS =    -10289.17687698
  atomic energy  EATOM  =     73862.19814772
  Solvation  Ediel_sol  =         0.00000000
  ---------------------------------------------------
  free energy    TOTEN  =     -1214.33563909 eV

  energy without entropy =    -1214.33563909  energy(sigma->0) =    -1214.33563909


--------------------------------------------------------------------------------------------------------




--------------------------------------- Iteration      1(  11)  ---------------------------------------


    EDDIAG:  cpu time    4.3781: real time    4.8114
  RMM-DIIS:  cpu time   20.1674: real time   20.2041
    ORTHCH:  cpu time    1.2158: real time    1.2997
       DOS:  cpu time    0.0013: real time    0.0013
    --------------------------------------------
      LOOP:  cpu time   25.7627: real time   26.3164

 eigenvalue-minimisations  : 22620
 total energy-change (2. order) : 0.7108107E-01  (-0.4375334E-01)
 number of electron     672.0000000 magnetization      48.0000000
 augmentation part      672.0000000 magnetization      48.0000000

 Free energy of the ion-electron system (eV)
  ---------------------------------------------------
  alpha Z        PSCENC =      2652.81237852
  Ewald energy   TEWEN  =    -41719.56666575
  -Hartree energ DENC   =    -25886.61509071
  -exchange      EXHF   =         0.00000000
  -V(xc)+E(xc)   XCENC  =      3606.45121795
  PAW double counting   =     55594.23204139   -59034.67079123
  entropy T*S    EENTRO =        -0.00000000
  eigenvalues    EBANDS =    -10289.10579591
  atomic energy  EATOM  =     73862.19814772
  Solvation  Ediel_sol  =         0.00000000
  ---------------------------------------------------
  free energy    TOTEN  =     -1214.26455802 eV

  energy without entropy =    -1214.26455802  energy(sigma->0) =    -1214.26455802


--------------------------------------------------------------------------------------------------------




--------------------------------------- Iteration      1(  12)  ---------------------------------------


    EDDIAG:  cpu time    4.4144: real time    4.8462
  RMM-DIIS:  cpu time   21.5611: real time   21.6255
    ORTHCH:  cpu time    1.1612: real time    1.2440
       DOS:  cpu time    0.0026: real time    0.0026
    CHARGE:  cpu time    1.8370: real time    1.8378
    MIXING:  cpu time    0.0010: real time    0.0011
    --------------------------------------------
      LOOP:  cpu time   28.9773: real time   29.5573

 eigenvalue-minimisations  : 24489
 total energy-change (2. order) :-0.7756873E-03  (-0.4304941E-02)
 number of electron     671.9999849 magnetization      48.0000011
 augmentation part      239.0842869 magnetization      29.0232021

 Broyden mixing:
  rms(total) = 0.12606E+02    rms(broyden)= 0.12597E+02
  rms(prec ) = 0.14455E+02
  weight for this iteration     100.00

 Free energy of the ion-electron system (eV)
  ---------------------------------------------------
  alpha Z        PSCENC =      2652.81237852
  Ewald energy   TEWEN  =    -41719.56666575
  -Hartree energ DENC   =    -25886.61509071
  -exchange      EXHF   =         0.00000000
  -V(xc)+E(xc)   XCENC  =      3606.45121795
  PAW double counting   =     55594.23204139   -59034.67079123
  entropy T*S    EENTRO =        -0.00000000
  eigenvalues    EBANDS =    -10289.10657159
  atomic energy  EATOM  =     73862.19814772
  Solvation  Ediel_sol  =         0.00000000
  ---------------------------------------------------
  free energy    TOTEN  =     -1214.26533370 eV

  energy without entropy =    -1214.26533370  energy(sigma->0) =    -1214.26533370


--------------------------------------------------------------------------------------------------------




--------------------------------------- Iteration      1(  13)  ---------------------------------------


    POTLOK:  cpu time    0.1759: real time    0.1771
    SETDIJ:  cpu time    5.0154: real time    5.0175
    EDDIAG:  cpu time    4.3669: real time    4.8039
  RMM-DIIS:  cpu time   17.4009: real time   17.4457
    ORTHCH:  cpu time    1.2375: real time    1.3181
       DOS:  cpu time    0.0020: real time    0.0020
    CHARGE:  cpu time    1.8367: real time    1.8397
    MIXING:  cpu time    0.0009: real time    0.0010
    --------------------------------------------
      LOOP:  cpu time   30.0363: real time   30.6049

 eigenvalue-minimisations  : 18766
 total energy-change (2. order) : 0.2285556E+03  (-0.1218652E+03)
 number of electron     671.9999798 magnetization      48.0000016
 augmentation part      269.0246583 magnetization      26.4275150

 Broyden mixing:
  rms(total) = 0.13965E+02    rms(broyden)= 0.13962E+02
  rms(prec ) = 0.15717E+02
  weight for this iteration     100.00

 eigenvalues of (default mixing * dielectric matrix)
  average eigenvalue GAMMA=   0.3191
  0.3191

 Free energy of the ion-electron system (eV)
  ---------------------------------------------------
  alpha Z        PSCENC =      2652.81237852
  Ewald energy   TEWEN  =    -41719.56666575
  -Hartree energ DENC   =    -25219.77045595
  -exchange      EXHF   =         0.00000000
  -V(xc)+E(xc)   XCENC  =      3696.72229560
  PAW double counting   =     59926.94174544   -63352.28697853
  entropy T*S    EENTRO =        -0.07933241
  eigenvalues    EBANDS =    -10832.68083728
  atomic energy  EATOM  =     73862.19814772
  Solvation  Ediel_sol  =         0.00000000
  ---------------------------------------------------
  free energy    TOTEN  =      -985.70970264 eV

  energy without entropy =     -985.63037023  energy(sigma->0) =     -985.67003643


--------------------------------------------------------------------------------------------------------




--------------------------------------- Iteration      1(  14)  ---------------------------------------


    POTLOK:  cpu time    0.1799: real time    0.1800
    SETDIJ:  cpu time    5.0011: real time    5.0039
    EDDIAG:  cpu time    4.3911: real time    4.8163
  RMM-DIIS:  cpu time   17.7808: real time   17.8359
    ORTHCH:  cpu time    1.1952: real time    1.2758
       DOS:  cpu time    0.0012: real time    0.0012
    CHARGE:  cpu time    1.8511: real time    1.8532
    MIXING:  cpu time    0.0020: real time    0.0020
    --------------------------------------------
      LOOP:  cpu time   30.4024: real time   30.9683

 eigenvalue-minimisations  : 19365
 total energy-change (2. order) : 0.7004998E+02  (-0.1778191E+02)
 number of electron     671.9999827 magnetization      48.0000026
 augmentation part      246.5816820 magnetization      32.1636899

 Broyden mixing:
  rms(total) = 0.53109E+01    rms(broyden)= 0.53067E+01
  rms(prec ) = 0.57470E+01
  weight for this iteration     100.00

 eigenvalues of (default mixing * dielectric matrix)
  average eigenvalue GAMMA=   0.7309
  1.1044  0.3575

 Free energy of the ion-electron system (eV)
  ---------------------------------------------------
  alpha Z        PSCENC =      2652.81237852
  Ewald energy   TEWEN  =    -41719.56666575
  -Hartree energ DENC   =    -25832.29718207
  -exchange      EXHF   =         0.00000000
  -V(xc)+E(xc)   XCENC  =      3674.10105746
  PAW double counting   =     63328.41598208   -66811.17174975
  entropy T*S    EENTRO =        -0.00000000
  eigenvalues    EBANDS =    -10070.15169527
  atomic energy  EATOM  =     73862.19814772
  Solvation  Ediel_sol  =         0.00000000
  ---------------------------------------------------
  free energy    TOTEN  =      -915.65972705 eV

  energy without entropy =     -915.65972705  energy(sigma->0) =     -915.65972705


--------------------------------------------------------------------------------------------------------




--------------------------------------- Iteration      1(  15)  ---------------------------------------


    POTLOK:  cpu time    0.1790: real time    0.1791
    SETDIJ:  cpu time    5.0157: real time    5.0179
    EDDIAG:  cpu time    4.4589: real time    4.8862
  RMM-DIIS:  cpu time   18.1348: real time   18.1516
    ORTHCH:  cpu time    1.2224: real time    1.3086
       DOS:  cpu time    0.0011: real time    0.0011
    CHARGE:  cpu time    1.8355: real time    1.8362
    MIXING:  cpu time    0.0009: real time    0.0009
    --------------------------------------------
      LOOP:  cpu time   30.8482: real time   31.3816

 eigenvalue-minimisations  : 20225
 total energy-change (2. order) : 0.1443984E+02  (-0.2061061E+01)
 number of electron     671.9999824 magnetization      48.0000031
 augmentation part      249.6642263 magnetization      33.8099085

 Broyden mixing:
  rms(total) = 0.22041E+01    rms(broyden)= 0.22037E+01
  rms(prec ) = 0.22895E+01
  weight for this iteration     100.00

 eigenvalues of (default mixing * dielectric matrix)
  average eigenvalue GAMMA=   0.9364
  1.6834  0.3836  0.7420

 Free energy of the ion-electron system (eV)
  ---------------------------------------------------
  alpha Z        PSCENC =      2652.81237852
  Ewald energy   TEWEN  =    -41719.56666575
  -Hartree energ DENC   =    -25755.71396089
  -exchange      EXHF   =         0.00000000
  -V(xc)+E(xc)   XCENC  =      3707.35472081
  PAW double counting   =     67428.62245823   -70951.79677959
  entropy T*S    EENTRO =        -0.00000000
  eigenvalues    EBANDS =    -10125.13018818
  atomic energy  EATOM  =     73862.19814772
  Solvation  Ediel_sol  =         0.00000000
  ---------------------------------------------------
  free energy    TOTEN  =      -901.21988912 eV

  energy without entropy =     -901.21988912  energy(sigma->0) =     -901.21988912


--------------------------------------------------------------------------------------------------------




--------------------------------------- Iteration      1(  16)  ---------------------------------------


    POTLOK:  cpu time    0.1770: real time    0.1772
    SETDIJ:  cpu time    5.0754: real time    5.0776
    EDDIAG:  cpu time    4.4211: real time    4.8371
  RMM-DIIS:  cpu time   17.6233: real time   17.6353
    ORTHCH:  cpu time    1.1705: real time    1.2535
       DOS:  cpu time    0.0014: real time    0.0015
    CHARGE:  cpu time    1.8393: real time    1.8400
    MIXING:  cpu time    0.0011: real time    0.0011
    --------------------------------------------
      LOOP:  cpu time   30.3092: real time   30.8232

 eigenvalue-minimisations  : 19072
 total energy-change (2. order) :-0.1492269E+01  (-0.6645528E+00)
 number of electron     671.9999818 magnetization      48.0000032
 augmentation part      251.1600626 magnetization      33.9043330

 Broyden mixing:
  rms(total) = 0.14868E+01    rms(broyden)= 0.14863E+01
  rms(prec ) = 0.15720E+01
  weight for this iteration     100.00

 eigenvalues of (default mixing * dielectric matrix)
  average eigenvalue GAMMA=   0.9693
  2.0800  0.8953  0.3906  0.5114

 Free energy of the ion-electron system (eV)
  ---------------------------------------------------
  alpha Z        PSCENC =      2652.81237852
  Ewald energy   TEWEN  =    -41719.56666575
  -Hartree energ DENC   =    -25705.30677847
  -exchange      EXHF   =         0.00000000
  -V(xc)+E(xc)   XCENC  =      3708.37529199
  PAW double counting   =     70338.46123642   -73890.81259737
  entropy T*S    EENTRO =        -0.00000000
  eigenvalues    EBANDS =    -10148.87317070
  atomic energy  EATOM  =     73862.19814772
  Solvation  Ediel_sol  =         0.00000000
  ---------------------------------------------------
  free energy    TOTEN  =      -902.71215764 eV

  energy without entropy =     -902.71215764  energy(sigma->0) =     -902.71215764


--------------------------------------------------------------------------------------------------------




--------------------------------------- Iteration      1(  17)  ---------------------------------------


    POTLOK:  cpu time    0.1707: real time    0.1708
    SETDIJ:  cpu time    5.0827: real time    5.0849
    EDDIAG:  cpu time    4.4174: real time    4.8596
  RMM-DIIS:  cpu time   18.5494: real time   18.5669
    ORTHCH:  cpu time    1.1532: real time    1.2390
       DOS:  cpu time    0.0013: real time    0.0013
    CHARGE:  cpu time    1.8336: real time    1.8368
    MIXING:  cpu time    0.0019: real time    0.0019
    --------------------------------------------
      LOOP:  cpu time   31.2102: real time   31.7612

 eigenvalue-minimisations  : 20554
 total energy-change (2. order) : 0.1264850E+00  (-0.7230530E-01)
 number of electron     671.9999820 magnetization      48.0000032
 augmentation part      251.1472596 magnetization      33.9047681

 Broyden mixing:
  rms(total) = 0.79176E+00    rms(broyden)= 0.79161E+00
  rms(prec ) = 0.89390E+00
  weight for this iteration     100.00

 eigenvalues of (default mixing * dielectric matrix)
  average eigenvalue GAMMA=   0.9920
  2.2284  1.1174  0.3796  0.6820  0.5526

 Free energy of the ion-electron system (eV)
  ---------------------------------------------------
  alpha Z        PSCENC =      2652.81237852
  Ewald energy   TEWEN  =    -41719.56666575
  -Hartree energ DENC   =    -25695.49341117
  -exchange      EXHF   =         0.00000000
  -V(xc)+E(xc)   XCENC  =      3705.65271965
  PAW double counting   =     71245.43832462   -74806.55281740
  entropy T*S    EENTRO =        -0.00000000
  eigenvalues    EBANDS =    -10147.07434887
  atomic energy  EATOM  =     73862.19814772
  Solvation  Ediel_sol  =         0.00000000
  ---------------------------------------------------
  free energy    TOTEN  =      -902.58567268 eV

  energy without entropy =     -902.58567268  energy(sigma->0) =     -902.58567268


--------------------------------------------------------------------------------------------------------




--------------------------------------- Iteration      1(  18)  ---------------------------------------


    POTLOK:  cpu time    0.1718: real time    0.1719
    SETDIJ:  cpu time    5.0369: real time    5.0391
    EDDIAG:  cpu time    4.4197: real time    4.8623
  RMM-DIIS:  cpu time   18.0907: real time   18.1034
    ORTHCH:  cpu time    1.1697: real time    1.2532
       DOS:  cpu time    0.0016: real time    0.0016
    CHARGE:  cpu time    1.8392: real time    1.8400
    MIXING:  cpu time    0.0011: real time    0.0011
    --------------------------------------------
      LOOP:  cpu time   30.7307: real time   31.2726

 eigenvalue-minimisations  : 19174
 total energy-change (2. order) : 0.4216925E+00  (-0.7029318E-01)
 number of electron     671.9999820 magnetization      48.0000032
 augmentation part      250.6328233 magnetization      33.8681752

 Broyden mixing:
  rms(total) = 0.28589E+00    rms(broyden)= 0.28563E+00
  rms(prec ) = 0.30118E+00
  weight for this iteration     100.00

 eigenvalues of (default mixing * dielectric matrix)
  average eigenvalue GAMMA=   1.0173
  2.4539  1.3684  0.8425  0.5894  0.3814  0.4682

[...]
   4      -0.739    -0.610     1.349    -0.099    -0.283    -0.326
   5      -1.015    -0.849     1.864    -0.036    -0.020    -0.049
   6      -0.795    -0.662     1.457     0.109    -0.445     0.275
   7      -0.743    -0.715     1.458    -0.138    -0.389    -0.266
   8      -0.711    -0.887     1.598    -0.040     0.030     0.467
   9      -0.802    -0.586     1.388    -0.171     0.406     0.292
  10      -0.689    -0.840     1.529     0.065     0.040    -0.523
  11      -0.966    -0.824     1.790     0.008     0.025    -0.103
  12      -0.944    -0.907     1.851    -0.020    -0.001     0.106
  13      -0.971    -0.840     1.811     0.033     0.081     0.079
  14      -0.815    -0.619     1.434     0.149     0.370    -0.294
  15      -0.829    -0.596     1.425     0.055    -0.316     0.210
  16      -0.781    -0.657     1.438    -0.136     0.339     0.321
  17       1.429     1.494    -2.922     0.141     0.013     0.010
  18       1.449     1.453    -2.902     0.073     0.036     0.039
  19       1.375     1.505    -2.880     0.042    -0.045    -0.094
  20       1.321     1.675    -2.996     0.012     0.008     0.083
  21       1.319     1.536    -2.855    -0.106    -0.028     0.062
  22       1.264     1.613    -2.877    -0.132    -0.024    -0.046
  23       1.373     1.589    -2.962    -0.200     0.010     0.055
  24       1.426     1.562    -2.988     0.005    -0.028    -0.143
  25       1.249    -2.503     1.253    -0.119     0.161    -1.057
  26      -1.200    -1.772     2.972    -0.992    -0.724    -0.559
  27      -1.161     0.082     1.078    -0.444     0.898     0.120
  28      -0.907    -0.980     1.887    -1.153     0.668    -0.812
  29      -0.818    -1.990     2.808    -0.318     0.089    -0.220
  30       0.471    -1.283     0.812    -0.726     0.423     0.087
  31      -1.059    -0.424     1.484    -0.462     0.173    -0.819
  32      -0.678    -0.754     1.433    -1.413    -0.684    -1.025
  33       0.201    -1.908     1.707     0.271    -0.775     0.003
  34      -0.981     0.871     0.110     1.272    -1.692     0.052
  35      -0.415     0.755    -0.340     0.345     0.581    -0.280
  36       0.342     0.840    -1.182     0.988     0.605     1.009
  37       0.363     1.924    -2.288    -1.119    -1.075     1.492
  38       0.133     1.420    -1.553    -0.872    -1.752     0.470
  39      -0.542    -0.239     0.782    -1.391     1.010    -0.121
  40      -1.047    -0.668     1.715     2.003    -0.250     0.877
  41      -1.675    -0.712     2.388    -3.921     1.208    -5.346
  42      -2.255     2.951    -0.697     3.696     0.391     3.893
  43       3.493    -6.609     3.116     0.829    -6.035    -0.795
  44      -4.671     4.747    -0.076     4.527    -1.882    -3.804
  45      -1.647     3.301    -1.654    -5.753    -2.606     1.183
  46       4.913    -6.462     1.549     0.084     4.644    -1.574
  47      -3.803     1.888     1.916    -4.857     3.081    -5.030
  48       2.759    -6.792     4.034     0.353    -6.058    -0.862
  49      -5.124     3.532     1.591     1.450     3.177     3.162
  50       4.528    -5.595     1.066    -0.123     4.874    -0.593
  51      -1.620     1.390     0.230    -6.184    -1.882     3.923
  52      -4.139     1.665     2.475     2.976    -1.421    -4.466
  53      -3.289    -0.309     3.599    -4.933     2.939    -5.979
  54      -3.419     2.450     0.969     3.786     1.303     3.205
  55       6.994    -6.127    -0.867    -1.056    -3.772    -0.514
  56      -4.337     1.202     3.135     5.481    -2.482    -5.075
  57      -2.367     1.688     0.679    -4.799    -2.874     3.045
  58       3.407    -5.124     1.717    -0.876     3.911    -0.569
  59      -4.632     1.631     3.001    -4.861     3.433    -4.821
  60       6.170    -6.063    -0.107     0.483    -3.166     0.738
  61      -2.752     2.608     0.144     3.700     1.306     4.344
  62       4.379    -5.827     1.448    -0.209     5.033    -1.413
  63      -3.280     2.236     1.043    -4.640    -1.457     4.685
  64      -4.814     2.155     2.660     5.322    -0.482    -5.289
  65      -3.786     2.415     1.372    -3.402     2.262    -3.768
  66      -4.412     2.903     1.509     5.483     1.793     5.837
  67       5.516    -6.918     1.402     1.591    -5.127     0.849
  68      -3.972     3.141     0.832     4.478    -1.879    -4.078
  69      -4.715     1.144     3.570    -3.552    -1.965     5.207
  70       5.914    -5.468    -0.446     1.072     4.567    -0.096
  71      -1.972     2.926    -0.954    -5.142    -0.223    -2.863
  72       5.220    -5.895     0.675     0.154    -5.678    -0.552
  73      -4.158     4.502    -0.344     5.443     1.877     4.164
  74       5.239    -4.828    -0.411     1.082     3.708     1.601
  75      -2.231     2.097     0.134    -5.582    -1.795     4.907
  76      -2.703     3.223    -0.520     4.999    -1.392    -4.202
  77      -4.028     5.551    -1.522    -6.350     1.119    -1.968
  78      -2.716     2.876    -0.160     6.451     2.206     4.664
  79       4.659    -6.834     2.174     1.184    -4.259     1.644
  80      -3.989     2.157     1.832     3.427    -1.729    -5.588
  81      -3.341     2.820     0.521    -5.710    -2.059     5.568
  82       5.727    -6.107     0.380     1.759     4.715    -0.078
  83      -2.344     3.951    -1.606    -4.775     0.617    -3.798
  84       3.870    -3.795    -0.075     0.147    -4.528    -0.578
  85      -1.809     2.079    -0.270     5.274     1.817     3.830
  86       6.568    -6.306    -0.262     0.394     3.683     0.949
  87      -1.681     1.387     0.294    -5.764    -1.480     5.644
  88      -2.494     2.897    -0.403     3.321    -2.535    -3.570
 ---------------------------------------------------------------------


 Total hyperfine coupling parameters after diagonalization (MHz)
 (convention: |A_zz| > |A_xx| > |A_yy|)
 ----------------------------------------------------------------------
  ion      A_xx      A_yy      A_zz     asymmetry (A_yy - A_xx)/ A_zz 
 ----------------------------------------------------------------------
   1       1.989     1.554     4.188      -0.104
   2       2.532     2.184     4.855      -0.072
   3       2.345     1.964     4.762      -0.080
   4       1.680     1.377     3.680      -0.082
   5       0.165    -0.016     2.872      -0.063
   6       1.570     1.203     3.742      -0.098
   7       1.323     0.957     3.466      -0.106
   8       2.738     2.462     5.125      -0.054
   9       2.077     1.570     4.063      -0.125
  10       2.081     1.782     4.390      -0.068
  11       0.945     0.806     3.568      -0.039
  12       0.617     0.565     3.373      -0.015
  13       0.223     0.079     2.875      -0.050
  14       1.909     1.464     3.976      -0.112
  15       1.352     1.045     3.430      -0.089
  16       1.951     1.567     4.053      -0.095
  17      14.494    10.256    14.785      -0.287
  18      14.794    10.513    14.941      -0.287
  19      13.792     9.546    13.948      -0.304
  20      14.881    10.563    15.237      -0.283
  21      13.251     9.119    13.556      -0.305
  22      12.921     8.823    13.359      -0.307
  23      15.005    10.787    15.459      -0.273
  24      14.547    10.129    14.689      -0.301
  25      98.828    94.890    99.293      -0.040
  26      98.724    96.535   102.318      -0.021
  27      95.795    93.987    96.983      -0.019
  28      97.663    95.850   100.343      -0.018
  29      96.546    95.211   100.110      -0.013
  30      96.096    94.116    96.836      -0.020
  31      98.697    97.869   101.018      -0.008
  32     100.472    97.309   101.660      -0.031
  33      95.860    94.007    97.990      -0.019
  34      99.643    96.491   101.000      -0.031
  35      95.465    94.195    96.126      -0.013
  36      98.435    97.227   100.884      -0.012
  37      96.256    93.531    99.577      -0.027
  38      96.939    93.950    98.925      -0.030
  39      97.389    95.181    98.873      -0.022
  40      97.940    94.028    99.111      -0.039
  41       6.625     1.711    15.642      -0.314
  42       7.252     4.146    15.754      -0.197
  43       5.140     1.182    17.299      -0.229
  44       5.517     1.116    16.259      -0.271
  45       7.897     3.567    17.322      -0.250
  46       5.307    -0.187    14.888      -0.369
  47       6.588     2.752    18.694      -0.205
  48       4.073    -0.118    16.279      -0.257
  49       6.000    -0.098    12.981      -0.470
  50       4.151     0.813    14.459      -0.231
  51       8.466     3.640    18.741      -0.257
  52       3.944     0.464    13.269      -0.262
  53       4.712     0.446    17.689      -0.241
  54       5.481     1.381    13.140      -0.312
  55       6.306     2.141    17.054      -0.244
  56       6.518     0.560    17.836      -0.334
  57       7.123     3.222    16.292      -0.239
  58       4.219     0.436    12.310      -0.307
  59       6.339     1.205    18.121      -0.283
  60       4.591    -0.361    13.352      -0.371
  61       3.932     1.496    13.666      -0.178
  62       4.577     0.481    14.873      -0.275
  63       4.449     0.324    14.606      -0.282
  64       7.279    -0.099    17.047      -0.433
  65       4.199     0.690    13.238      -0.265
  66       7.229     2.179    19.810      -0.255
  67       4.400    -1.441    15.022      -0.389
  68       5.696     1.508    15.726      -0.266
  69       4.539     0.463    15.644      -0.261
  70       4.594     1.659    15.663      -0.187
  71       5.820     0.938    13.685      -0.357
  72       2.949     0.111    15.144      -0.187
  73       6.911     2.631    18.707      -0.229
  74       4.105     0.718    13.376      -0.253
  75       6.412     2.446    17.758      -0.223
  76       3.062    -0.220    13.775      -0.238
  77       7.922     2.724    19.111      -0.272
  78       4.134    -0.217    16.589      -0.262
  79       6.412    -0.674    14.649      -0.484
  80       1.888    -0.747    13.552      -0.194
  81       5.032     0.949    17.827      -0.229
  82       6.524     2.198    17.296      -0.250
  83       4.875     1.831    15.245      -0.200
  84       4.220     3.104    13.945      -0.080
  85       5.156     1.831    15.351      -0.217
  86       6.627     1.932    16.600      -0.283
  87       5.368     0.350    16.648      -0.301
  88       5.358     3.607    14.992      -0.117
 ---------------------------------------------------------------------



--------------------------------------------------------------------------------------------------------


 stress matrix after NEB project (eV)
    -44.48723     -0.01374      5.75204
     -0.00633    -40.68582      0.67715
      5.76972      0.71296    -57.32198
  FORCES: max atom, RMS     2.243223    1.092298
  FORCE total and by dimension   10.246666    2.166616
  Stress total and by dimension   83.591881   57.321985
     LOOP+:  cpu time  796.9411: real time  813.3221
    4ORBIT:  cpu time    0.0000: real time    0.0000
 


 total charge     
 
# of ion       s       p       d       tot
------------------------------------------
    1        0.053   5.996   0.000   6.049
    2        0.050   5.992   0.000   6.042
    3        0.053   5.996   0.000   6.049
    4        0.049   5.991   0.000   6.040
    5        0.051   5.995   0.000   6.046
    6        0.050   5.992   0.000   6.042
    7        0.048   5.989   0.000   6.038
    8        0.054   5.995   0.000   6.049
    9        0.049   5.990   0.000   6.039
   10        0.053   5.996   0.000   6.049
   11        0.050   5.995   0.000   6.044
   12        0.045   5.988   0.000   6.033
   13        0.044   5.988   0.000   6.032
   14        0.055   5.999   0.000   6.053
   15        0.052   5.995   0.000   6.048
   16        0.052   5.996   0.000   6.048
   17        0.153   6.135   0.089   6.377
   18        0.146   6.121   0.078   6.345
   19        0.150   6.129   0.085   6.364
   20        0.153   6.136   0.091   6.380
   21        0.146   6.123   0.080   6.349
   22        0.147   6.125   0.082   6.353
   23        0.149   6.129   0.085   6.364
   24        0.154   6.137   0.090   6.381
   25        0.360   6.421   4.798  11.579
   26        0.369   6.443   4.817  11.630
   27        0.378   6.461   4.828  11.666
   28        0.380   6.464   4.840  11.685
   29        0.381   6.464   4.846  11.691
   30        0.376   6.460   4.825  11.661
   31        0.385   6.471   4.860  11.716
   32        0.362   6.425   4.805  11.592
   33        0.389   6.488   4.864  11.742
   34        0.364   6.431   4.806  11.601
   35        0.388   6.484   4.860  11.732
   36        0.367   6.436   4.815  11.618
   37        0.397   6.502   4.889  11.788
   38        0.375   6.453   4.833  11.661
   39        0.377   6.459   4.838  11.674
   40        0.378   6.460   4.830  11.668
   41        1.600   3.519   0.000   5.119
   42        1.598   3.509   0.000   5.107
   43        1.600   3.541   0.000   5.141
   44        1.601   3.497   0.000   5.098
   45        1.599   3.516   0.000   5.115
   46        1.598   3.522   0.000   5.120
   47        1.603   3.502   0.000   5.105
   48        1.599   3.516   0.000   5.115
   49        1.597   3.490   0.000   5.087
   50        1.597   3.507   0.000   5.104
   51        1.599   3.501   0.000   5.101
   52        1.598   3.535   0.000   5.133
   53        1.602   3.528   0.000   5.129
   54        1.595   3.492   0.000   5.087
   55        1.599   3.524   0.000   5.123
   56        1.604   3.531   0.000   5.135
   57        1.599   3.518   0.000   5.117
   58        1.595   3.503   0.000   5.099
   59        1.603   3.512   0.000   5.116
   60        1.597   3.501   0.000   5.098
   61        1.598   3.491   0.000   5.089
   62        1.597   3.506   0.000   5.103
   63        1.598   3.486   0.000   5.084
   64        1.602   3.508   0.000   5.109
   65        1.598   3.526   0.000   5.124
   66        1.605   3.529   0.000   5.134
   67        1.596   3.469   0.000   5.065
   68        1.598   3.511   0.000   5.109
   69        1.600   3.524   0.000   5.123
   70        1.596   3.457   0.000   5.054
   71        1.598   3.504   0.000   5.102
   72        1.597   3.485   0.000   5.082
   73        1.601   3.507   0.000   5.109
   74        1.597   3.504   0.000   5.101
   75        1.604   3.521   0.000   5.126
   76        1.598   3.467   0.000   5.065
   77        1.602   3.506   0.000   5.108
   78        1.603   3.467   0.000   5.070
   79        1.598   3.525   0.000   5.124
   80        1.599   3.494   0.000   5.093
   81        1.603   3.511   0.000   5.114
   82        1.599   3.502   0.000   5.101
   83        1.598   3.508   0.000   5.105
   84        1.596   3.508   0.000   5.104
   85        1.599   3.503   0.000   5.102
   86        1.599   3.519   0.000   5.118
   87        1.602   3.493   0.000   5.095
   88        1.598   3.532   0.000   5.130
--------------------------------------------------
tot         84.798 416.583  78.031 579.412
 


 magnetization (x)
 
# of ion       s       p       d       tot
------------------------------------------
    1        0.002   0.000   0.000   0.002
    2        0.002   0.001   0.000   0.003
    3        0.002   0.000   0.000   0.002
    4        0.002   0.000   0.000   0.002
    5        0.001   0.000   0.000   0.001
    6        0.002  -0.000   0.000   0.002
    7        0.001  -0.000   0.000   0.001
    8        0.002   0.001   0.000   0.003
    9        0.002   0.000   0.000   0.002
   10        0.002   0.000   0.000   0.002
   11        0.001   0.001   0.000   0.002
   12        0.001   0.001   0.000   0.002
   13        0.001   0.000   0.000   0.001
   14        0.002   0.000   0.000   0.002
   15        0.001   0.000   0.000   0.002
   16        0.002   0.000   0.000   0.002
   17        0.007   0.002   0.001   0.011
   18        0.008   0.002   0.001   0.011
   19        0.007   0.002   0.001   0.010
   20        0.007   0.003   0.001   0.011
   21        0.007   0.002   0.001   0.009
   22        0.006   0.002   0.001   0.009
   23        0.008   0.003   0.001   0.011
   24        0.007   0.002   0.001   0.011
   25        0.015   0.028   2.802   2.845
   26        0.016   0.029   2.773   2.819
   27        0.015   0.030   2.758   2.802
   28        0.016   0.030   2.745   2.791
   29        0.016   0.029   2.749   2.794
   30        0.015   0.030   2.753   2.799
   31        0.016   0.030   2.732   2.778
   32        0.016   0.030   2.787   2.833
   33        0.015   0.031   2.725   2.771
   34        0.016   0.030   2.783   2.829
   35        0.015   0.031   2.724   2.770
   36        0.016   0.030   2.763   2.809
   37        0.016   0.033   2.695   2.743
   38        0.015   0.030   2.746   2.792
   39        0.015   0.031   2.753   2.799
   40        0.015   0.030   2.754   2.799
   41        0.002   0.037   0.000   0.039
   42        0.002   0.042   0.000   0.044
   43        0.002   0.052   0.000   0.054
   44        0.002   0.030   0.000   0.032
   45        0.002   0.047   0.000   0.050
   46        0.002   0.041   0.000   0.043
   47        0.003   0.041   0.000   0.043
   48        0.002   0.037   0.000   0.038
   49        0.002   0.015   0.000   0.017
   50        0.002   0.020   0.000   0.022
   51        0.003   0.052   0.000   0.055
   52        0.001   0.035   0.000   0.036
   53        0.002   0.042   0.000   0.044
   54        0.002   0.022   0.000   0.023
   55        0.002   0.045   0.000   0.047
   56        0.002   0.049   0.000   0.051
   57        0.002   0.039   0.000   0.041
   58        0.002   0.019   0.000   0.021
   59        0.002   0.044   0.000   0.046
   60        0.002   0.021   0.000   0.022
   61        0.002   0.017   0.000   0.019
   62        0.002   0.024   0.000   0.026
   63        0.002   0.022   0.000   0.024
   64        0.002   0.049   0.000   0.051
   65        0.002   0.028   0.000   0.029
   66        0.002   0.055   0.000   0.057
   67        0.002   0.013   0.000   0.015
   68        0.002   0.038   0.000   0.040
   69        0.002   0.043   0.000   0.044
   70        0.002   0.026   0.000   0.028
   71        0.002   0.016   0.000   0.018
   72        0.002   0.020   0.000   0.022
   73        0.002   0.049   0.000   0.051
   74        0.002   0.022   0.000   0.024
   75        0.002   0.043   0.000   0.045
   76        0.002   0.012   0.000   0.014
   77        0.002   0.055   0.000   0.057
   78        0.002   0.020   0.000   0.022
   79        0.002   0.035   0.000   0.037
   80        0.002   0.002   0.000   0.004
   81        0.002   0.044   0.000   0.046
   82        0.002   0.047   0.000   0.049
   83        0.002   0.030   0.000   0.032
   84        0.002   0.026   0.000   0.028
   85        0.002   0.035   0.000   0.037
   86        0.002   0.038   0.000   0.040
   87        0.002   0.023   0.000   0.025
   88        0.002   0.034   0.000   0.037
--------------------------------------------------
tot          0.426   2.100  44.050  46.577
 

 total amount of memory used by VASP MPI-rank0    94429. kBytes
=======================================================================

   base      :      30000. kBytes
   nonlr-proj:      13670. kBytes
   fftplans  :       1275. kBytes
   grid      :      22786. kBytes
   one-center:       2737. kBytes
   wavefun   :      23961. kBytes
 
  
  
 General timing and accounting informations for this job:
 ========================================================
  
                  Total CPU time used (sec):      818.269
                            User time (sec):      809.666
                          System time (sec):        8.603
                         Elapsed time (sec):      837.144
  
                   Maximum memory used (kb):      193144.
                   Average memory used (kb):           0.
  
                          Minor page faults:       313310
                          Major page faults:            0
                 Voluntary context switches:       277805
