 vasp.5.4.4.18Apr17-6-g9f103f2a35 (build Dec 02 2020 12:53:39) complex          
  
 executed on             LinuxIFC date 2021.08.05  07:49:02
 running on  112 total cores
 distrk:  each k-point on  112 cores,    1 groups
 distr:  one band on NCORES_PER_BAND=   1 cores,  112 groups


--------------------------------------------------------------------------------------------------------


 INCAR:
 POTCAR:    PAW_PBE Na_pv 19Sep2006               
 POTCAR:    PAW_PBE Mg_pv 13Apr2007               
 POTCAR:    PAW_PBE Mn_pv 02Aug2007               
 POTCAR:    PAW_PBE O 08Apr2002                   

 ----------------------------------------------------------------------------- 
|                                                                             |
|           W    W    AA    RRRRR   N    N  II  N    N   GGGG   !!!           |
|           W    W   A  A   R    R  NN   N  II  NN   N  G    G  !!!           |
|           W    W  A    A  R    R  N N  N  II  N N  N  G       !!!           |
|           W WW W  AAAAAA  RRRRR   N  N N  II  N  N N  G  GGG   !            |
|           WW  WW  A    A  R   R   N   NN  II  N   NN  G    G                |
|           W    W  A    A  R    R  N    N  II  N    N   GGGG   !!!           |
|                                                                             |
|      For optimal performance we recommend to set                            |
|        NCORE= 4 - approx SQRT( number of cores)                             |
|      NCORE specifies how many cores store one orbital (NPAR=cpu/NCORE).     |
|      This setting can  greatly improve the performance of VASP for DFT.     |
|      The default,   NCORE=1            might be grossly inefficient         |
|      on modern multi-core architectures or massively parallel machines.     |
|      Do your own testing !!!!                                               |
|      Unfortunately you need to use the default for GW and RPA calculations. |
|      (for HF NCORE is supported but not extensively tested yet)             |
|                                                                             |
 ----------------------------------------------------------------------------- 

 POTCAR:    PAW_PBE Na_pv 19Sep2006               
   VRHFIN =Na: p6s1                                                             
   LEXCH  = PE                                                                  
   EATOM  =   766.0439 eV,   56.3026 Ry                                         
                                                                                
   TITEL  = PAW_PBE Na_pv 19Sep2006                                             
   LULTRA =        F    use ultrasoft PP ?                                      
   IUNSCR =        1    unscreen: 0-lin 1-nonlin 2-no                           
   RPACOR =    1.800    partial core radius                                     
   POMASS =   22.990; ZVAL   =    7.000    mass and valenz                      
   RCORE  =    2.200    outmost cutoff radius                                   
   RWIGS  =    2.200; RWIGS  =    1.164    wigner-seitz radius (au A)           
   ENMAX  =  259.561; ENMIN  =  194.671 eV                                      
   ICORE  =        2    local potential                                         
   LCOR   =        T    correct aug charges                                     
   LPAW   =        T    paw PP                                                  
   EAUG   =  368.056                                                            
   DEXC   =    0.000                                                            
   RMAX   =    2.245    core radius for proj-oper                               
   RAUG   =    1.300    factor for augmentation sphere                          
   RDEP   =    2.259    radius for radial grids                                 
   RDEPT  =    1.738    core radius for aug-charge                              
                                                                                
   Atomic configuration                                                         
    5 entries                                                                   
     n  l   j            E        occ.                                          
     1  0  0.50     -1033.6933   2.0000                                         
     2  0  0.50       -56.7526   2.0000                                         
     2  1  1.50       -28.6721   6.0000                                         
     3  0  0.50        -2.7440   1.0000                                         
     3  2  1.50        -1.3606   0.0000                                         
   Description                                                                  
     l       E           TYP  RCUT    TYP  RCUT                                 
     1    -28.6720912     23  2.000                                             
     1      6.8029130     23  2.000                                             
     0     -2.7439560     23  2.200                                             
     0     34.0145650     23  2.200                                             
     2     -1.3605826     23  2.200                                             
  local pseudopotential read in
  partial core-charges read in
  partial kinetic energy density read in
  atomic valenz-charges read in
  non local Contribution for L=           1  read in
    real space projection operators read in
  non local Contribution for L=           1  read in
    real space projection operators read in
  non local Contribution for L=           0  read in
    real space projection operators read in
  non local Contribution for L=           0  read in
    real space projection operators read in
    PAW grid and wavefunctions read in
 
   number of l-projection  operators is LMAX  =           4
   number of lm-projection operators is LMMAX =           8
 
 POTCAR:    PAW_PBE Mg_pv 13Apr2007               
   VRHFIN =Mg: p6s2                                                             
   LEXCH  = PE                                                                  
   EATOM  =  1056.7344 eV,   77.6678 Ry                                         
                                                                                
   TITEL  = PAW_PBE Mg_pv 13Apr2007                                             
   LULTRA =        F    use ultrasoft PP ?                                      
   IUNSCR =        1    unscreen: 0-lin 1-nonlin 2-no                           
   RPACOR =    1.500    partial core radius                                     
   POMASS =   24.305; ZVAL   =    8.000    mass and valenz                      
   RCORE  =    2.000    outmost cutoff radius                                   
   RWIGS  =    2.000; RWIGS  =    1.058    wigner-seitz radius (au A)           
   ENMAX  =  403.929; ENMIN  =  302.947 eV                                      
   RCLOC  =    1.506    cutoff for local pot                                    
   LCOR   =        T    correct aug charges                                     
   LPAW   =        T    paw PP                                                  
   EAUG   =  758.780                                                            
   DEXC   =    0.000                                                            
   RMAX   =    2.045    core radius for proj-oper                               
   RAUG   =    1.300    factor for augmentation sphere                          
   RDEP   =    2.025    radius for radial grids                                 
   RDEPT  =    1.557    core radius for aug-charge                              
                                                                                
   Atomic configuration                                                         
    5 entries                                                                   
     n  l   j            E        occ.                                          
     1  0  0.50     -1259.6230   2.0000                                         
     2  0  0.50       -79.8442   2.0000                                         
     2  1  1.50       -46.6121   6.0000                                         
     3  0  0.50        -4.7055   2.0000                                         
     3  2  1.50        -1.3606   0.0000                                         
   Description                                                                  
     l       E           TYP  RCUT    TYP  RCUT                                 
     1    -46.6121073     23  1.600                                             
     1      2.7211652     23  1.600                                             
     0     -4.7054661     23  2.000                                             
     0     61.2262170     23  2.000                                             
     2     -1.3605826     23  2.000                                             
  local pseudopotential read in
  partial core-charges read in
  partial kinetic energy density read in
  atomic valenz-charges read in
  non local Contribution for L=           1  read in
    real space projection operators read in
  non local Contribution for L=           1  read in
    real space projection operators read in
  non local Contribution for L=           0  read in
    real space projection operators read in
  non local Contribution for L=           0  read in
    real space projection operators read in
  non local Contribution for L=           2  read in
    real space projection operators read in
    PAW grid and wavefunctions read in
 
   number of l-projection  operators is LMAX  =           5
   number of lm-projection operators is LMMAX =          13
 
 POTCAR:    PAW_PBE Mn_pv 02Aug2007               
   VRHFIN =Mn: 3p4s3d                                                           
   LEXCH  = PE                                                                  
   EATOM  =  2025.2664 eV,  148.8529 Ry                                         
                                                                                
   TITEL  = PAW_PBE Mn_pv 02Aug2007                                             
   LULTRA =        F    use ultrasoft PP ?                                      
   IUNSCR =        1    unscreen: 0-lin 1-nonlin 2-no                           
   RPACOR =    2.080    partial core radius                                     
   POMASS =   54.938; ZVAL   =   13.000    mass and valenz                      
   RCORE  =    2.300    outmost cutoff radius                                   
   RWIGS  =    2.500; RWIGS  =    1.323    wigner-seitz radius (au A)           
   ENMAX  =  269.864; ENMIN  =  202.398 eV                                      
   ICORE  =        3    local potential                                         
   LCOR   =        T    correct aug charges                                     
   LPAW   =        T    paw PP                                                  
   EAUG   =  569.085                                                            
   DEXC   =    0.000                                                            
   RMAX   =    2.343    core radius for proj-oper                               
   RAUG   =    1.300    factor for augmentation sphere                          
   RDEP   =    2.338    radius for radial grids                                 
   RDEPT  =    1.798    core radius for aug-charge                              
                                                                                
   Atomic configuration                                                         
    8 entries                                                                   
     n  l   j            E        occ.                                          
     1  0  0.50     -6424.8287   2.0000                                         
     2  0  0.50      -739.1154   2.0000                                         
     2  1  1.50      -625.3949   6.0000                                         
     3  0  0.50       -81.6100   2.0000                                         
     3  1  1.50       -50.4667   6.0000                                         
     3  2  2.50        -3.3745   6.0000                                         
     4  0  0.50        -4.1331   1.0000                                         
     4  3  2.50        -1.3606   0.0000                                         
   Description                                                                  
     l       E           TYP  RCUT    TYP  RCUT                                 
     1    -50.4666628     23  2.000                                             
     1     -1.3605826     23  2.000                                             
     2     -3.3744729     23  2.300                                             
     2     -4.7350555     23  2.300                                             
     0     -4.1331431     23  2.300                                             
     0      7.6656591     23  2.300                                             
     3      9.5240782     23  2.300                                             
  local pseudopotential read in
  partial core-charges read in
  partial kinetic energy density read in
  atomic valenz-charges read in
  non local Contribution for L=           1  read in
    real space projection operators read in
  non local Contribution for L=           1  read in
    real space projection operators read in
  non local Contribution for L=           2  read in
    real space projection operators read in
  non local Contribution for L=           2  read in
    real space projection operators read in
  non local Contribution for L=           0  read in
    real space projection operators read in
  non local Contribution for L=           0  read in
    real space projection operators read in
    PAW grid and wavefunctions read in
 
   number of l-projection  operators is LMAX  =           6
   number of lm-projection operators is LMMAX =          18
 
 POTCAR:    PAW_PBE O 08Apr2002                   
   VRHFIN =O: s2p4                                                              
   LEXCH  = PE                                                                  
   EATOM  =   432.3788 eV,   31.7789 Ry                                         
                                                                                
   TITEL  = PAW_PBE O 08Apr2002                                                 
   LULTRA =        F    use ultrasoft PP ?                                      
   IUNSCR =        1    unscreen: 0-lin 1-nonlin 2-no                           
   RPACOR =    1.200    partial core radius                                     
   POMASS =   16.000; ZVAL   =    6.000    mass and valenz                      
   RCORE  =    1.520    outmost cutoff radius                                   
   RWIGS  =    1.550; RWIGS  =    0.820    wigner-seitz radius (au A)           
   ENMAX  =  400.000; ENMIN  =  300.000 eV                                      
   ICORE  =        2    local potential                                         
   LCOR   =        T    correct aug charges                                     
   LPAW   =        T    paw PP                                                  
   EAUG   =  605.392                                                            
   DEXC   =    0.000                                                            
   RMAX   =    1.553    core radius for proj-oper                               
   RAUG   =    1.300    factor for augmentation sphere                          
   RDEP   =    1.550    radius for radial grids                                 
   RDEPT  =    1.329    core radius for aug-charge                              
                                                                                
   Atomic configuration                                                         
    4 entries                                                                   
     n  l   j            E        occ.                                          
     1  0  0.50      -514.6923   2.0000                                         
     2  0  0.50       -23.9615   2.0000                                         
     2  1  0.50        -9.0305   4.0000                                         
     3  2  1.50        -9.5241   0.0000                                         
   Description                                                                  
     l       E           TYP  RCUT    TYP  RCUT                                 
     0    -23.9615318     23  1.200                                             
     0     -9.5240782     23  1.200                                             
     1     -9.0304911     23  1.520                                             
     1      8.1634956     23  1.520                                             
     2     -9.5240782      7  1.500                                             
  local pseudopotential read in
  partial core-charges read in
  partial kinetic energy density read in
  kinetic energy density of atom read in
  atomic valenz-charges read in
  non local Contribution for L=           0  read in
    real space projection operators read in
  non local Contribution for L=           0  read in
    real space projection operators read in
  non local Contribution for L=           1  read in
    real space projection operators read in
  non local Contribution for L=           1  read in
    real space projection operators read in
    PAW grid and wavefunctions read in
 
   number of l-projection  operators is LMAX  =           4
   number of lm-projection operators is LMMAX =           8
 
 Optimization of the real space projectors (new method)

 maximal supplied QI-value         = 17.01
 optimisation between [QCUT,QGAM] = [ 10.20, 20.41] = [ 29.16,116.64] Ry 
 Optimized for a Real-space Cutoff    1.30 Angstroem

   l    n(q)    QCUT    max X(q) W(low)/X(q) W(high)/X(q)  e(spline) 
   1      7    10.205     4.940    0.23E-03    0.84E-03    0.11E-06
   1      7    10.205     6.253    0.40E-03    0.13E-02    0.18E-06
   0      8    10.205    37.438    0.23E-03    0.37E-03    0.42E-07
   0      8    10.205     9.606    0.16E-03    0.26E-03    0.31E-07
 Optimization of the real space projectors (new method)

 maximal supplied QI-value         = 18.90
 optimisation between [QCUT,QGAM] = [ 10.20, 20.41] = [ 29.16,116.64] Ry 
 Optimized for a Real-space Cutoff    1.26 Angstroem

   l    n(q)    QCUT    max X(q) W(low)/X(q) W(high)/X(q)  e(spline) 
   1      7    10.205     2.974    0.63E-04    0.14E-03    0.13E-06
   1      7    10.205     4.279    0.11E-03    0.45E-03    0.24E-06
   0      8    10.205    16.381    0.44E-03    0.15E-03    0.55E-07
   0      8    10.205     5.611    0.31E-03    0.11E-03    0.40E-07
   2      7    10.205     4.652    0.50E-03    0.47E-03    0.57E-07
 Optimization of the real space projectors (new method)

 maximal supplied QI-value         = 16.25
 optimisation between [QCUT,QGAM] = [ 10.24, 20.48] = [ 29.35,117.42] Ry 
 Optimized for a Real-space Cutoff    1.34 Angstroem

   l    n(q)    QCUT    max X(q) W(low)/X(q) W(high)/X(q)  e(spline) 
   1      8    10.239     3.658    0.23E-03    0.30E-03    0.98E-07
   1      8    10.239     5.612    0.32E-03    0.65E-03    0.21E-06
   2      7    10.239    55.373    0.42E-03    0.45E-03    0.65E-07
   2      7    10.239    50.863    0.43E-03    0.48E-03    0.67E-07
   0      8    10.239    79.536    0.11E-03    0.21E-03    0.56E-07
   0      8    10.239    38.668    0.96E-04    0.19E-03    0.52E-07
 Optimization of the real space projectors (new method)

 maximal supplied QI-value         = 24.76
 optimisation between [QCUT,QGAM] = [ 10.15, 20.30] = [ 28.85,115.39] Ry 
 Optimized for a Real-space Cutoff    1.38 Angstroem

   l    n(q)    QCUT    max X(q) W(low)/X(q) W(high)/X(q)  e(spline) 
   0      8    10.150    20.381    0.22E-03    0.32E-03    0.29E-06
   0      8    10.150    15.268    0.23E-03    0.35E-03    0.30E-06
   1      8    10.150     5.964    0.46E-03    0.53E-03    0.21E-06
   1      8    10.150     5.382    0.38E-03    0.45E-03    0.19E-06
  PAW_PBE Na_pv 19Sep2006               :
 energy of atom  1       EATOM= -766.0439
 kinetic energy error for atom=    0.0103 (will be added to EATOM!!)
  PAW_PBE Mg_pv 13Apr2007               :
 energy of atom  2       EATOM=-1056.7344
 kinetic energy error for atom=    0.0820 (will be added to EATOM!!)
  PAW_PBE Mn_pv 02Aug2007               :
 energy of atom  3       EATOM=-2025.2664
 kinetic energy error for atom=    0.0284 (will be added to EATOM!!)
  PAW_PBE O 08Apr2002                   :
 energy of atom  4       EATOM= -432.3788
 kinetic energy error for atom=    0.1156 (will be added to EATOM!!)
 
 
 POSCAR: Na Mg Mn  O                             
  positions in cartesian coordinates
  No initial velocities read in

 METAGGA = SCAN     LMAXTAU =  6    LMIXTAU =  F

 exchange correlation table for  LEXCH =        8
   RHO(1)=    0.500       N(1)  =     2000
   RHO(2)=  100.500       N(2)  =     4000

 VTST: version 3.2, (02/03/18)

 CHAIN: initializing optimizer
 
 OPT: Using VASP Dynamics algorithm
 CHAIN: Read ICHAIN            0
 
 POSCAR: Na Mg Mn  O                             
  positions in cartesian coordinates
  No initial velocities read in
 


--------------------------------------------------------------------------------------------------------


 ion  position               nearest neighbor table
   1  0.037  0.353  0.248-  54 2.16  63 2.24  55 2.33
   2  0.597  0.534  0.735-  45 2.16  68 2.23  46 2.32
   3  0.068  0.711  0.738-  70 2.17  57 2.26  73 2.32  39 2.79
   4  0.790  0.374  0.740-  57 2.30  46 2.30  56 2.34
   5  0.297  0.218  0.251-  41 2.26  42 2.30  51 2.32
   6  0.281  0.706  0.245-  77 2.33  78 2.37
   7  0.822  0.889  0.745-  72 2.19  69 2.31  68 2.33
   8  0.118  0.236  0.758-  58 2.27  61 2.27  47 2.30  25 2.86  27 2.93
   9  0.069  0.872  0.238-  67 2.14  66 2.16
  10  0.871  0.018  0.249-  54 2.28  74 2.29
  11  0.826  0.545  0.233-  66 2.07  75 2.32  53 2.38
  12  0.361  0.129  0.745-  81 2.25  44 2.30  84 2.32  36 2.92
  13  0.590  0.019  0.759-  85 2.31  82 2.32  59 2.37  84 2.38
  14  0.365  0.644  0.756-  48 2.31  45 2.34  80 2.34
  15  0.583  0.669  0.237-  78 2.24  43 2.28  87 2.36  33 2.80
  16  0.597  0.173  0.257-  88 2.25  31 2.75  29 2.93
  17  0.754  0.532  0.983-  71 1.92  60 1.94  43 1.97  49 2.06  53 2.20  66 2.21  33 2.79  37 2.83

  18  0.439  0.365  0.502-  51 1.98  44 2.04  52 2.09  46 2.09  50 2.10  45 2.13  36 2.79  31 2.85

  19  0.251  0.524  0.006-  55 2.03  83 2.05  61 2.05  48 2.09  78 2.11  41 2.12  25 2.83  38 2.84

  20  0.941  0.371  0.502-  57 1.94  63 2.04  64 2.05  56 2.06  58 2.10  62 2.14  40 2.81  27 2.85

  21  0.242  0.017  0.010-  42 1.99  77 2.00  67 2.01  73 2.08  84 2.11  47 2.19  34 2.75  37 2.85

  22  0.950  0.878  0.513-  69 1.99  76 1.99  70 2.00  68 2.08  74 2.14  75 2.23
  23  0.750  0.026  0.997-  59 2.02  79 2.04  54 2.07  65 2.07  72 2.08  85 2.16
  24  0.429  0.869  0.493-  86 1.99  88 2.04  81 2.04  80 2.07  87 2.10  82 2.25  39 2.79  36 2.83

  25  0.088  0.198  0.011-  41 1.87  47 1.91  67 1.94  61 1.95  54 1.99  72 2.04  19 2.83   8 2.86
                            34 2.88  26 2.91  30 2.91
  26  0.423  0.356  0.997-  47 1.85  49 1.86  43 1.91  48 1.96  41 1.99  42 2.04  29 2.80  25 2.91
                            33 2.91
  27  0.109  0.211  0.497-  63 1.84  44 1.88  69 1.91  76 1.93  58 1.97  50 2.02  32 2.79  20 2.85
                            40 2.88  36 2.92   8 2.93
  28  0.778  0.541  0.511-  57 1.88  68 1.91  52 1.95  75 1.95  62 1.97  46 1.98  39 2.86  31 2.89
                            35 2.91
  29  0.580  0.189  0.996-  42 1.88  59 1.92  79 1.94  49 1.95  84 1.95  53 1.96  26 2.80  30 2.87
                            38 2.93  16 2.93
  30  0.910  0.355  0.001-  53 1.82  61 1.90  59 1.93  55 1.93  60 1.96  54 2.01  29 2.87  37 2.89
                            25 2.91
  31  0.610  0.208  0.501-  56 1.87  88 1.89  62 1.90  81 1.91  46 1.94  51 2.00  16 2.75  40 2.84
                            18 2.85  36 2.88  28 2.89
  32  0.270  0.532  0.497-  50 1.82  64 1.84  58 1.89  80 2.03  45 2.09  87 2.10  27 2.79  39 2.92
                            35 2.98
  33  0.592  0.691  0.988-  65 1.90  71 1.91  48 1.93  78 1.93  85 1.95  43 1.96  17 2.79  15 2.80
                            34 2.90  26 2.91  38 2.94
  34  0.926  0.866  0.998-  73 1.86  65 1.90  72 1.90  66 1.92  67 1.99  71 2.00  21 2.75  37 2.87
                            25 2.88  33 2.90
  35  0.613  0.711  0.509-  52 1.84  87 1.87  74 1.88  45 1.88  82 1.98  68 2.04  28 2.91  40 2.93
                            32 2.98
  36  0.279  0.043  0.496-  51 1.82  44 1.91  76 1.93  70 1.96  86 1.97  81 2.00  18 2.79  24 2.83
                            31 2.88  12 2.92  27 2.92  39 2.93
  37  0.078  0.688  0.007-  77 1.82  73 1.88  55 1.90  60 1.91  83 1.93  66 1.98  17 2.83  21 2.85
                            34 2.87  30 2.89  38 2.92
  38  0.415  0.852  0.002-  83 1.81  85 1.83  79 1.86  84 1.98  78 1.99  77 2.00  19 2.84  37 2.92
                            29 2.93  33 2.94
  39  0.107  0.705  0.493-  75 1.87  80 1.88  86 1.91  70 1.94  64 1.96  57 2.00   3 2.79  24 2.79
                            28 2.86  32 2.92  36 2.93
  40  0.777  0.048  0.503-  88 1.87  69 1.87  56 1.88  74 1.92  63 1.95  82 2.03  20 2.81  31 2.84
                            27 2.88  35 2.93
  41  0.256  0.343  0.100-  25 1.87  26 1.99  19 2.12   5 2.26
  42  0.424  0.183  0.093-  29 1.88  21 1.99  26 2.04   5 2.30
  43  0.586  0.523  0.081-  26 1.91  33 1.96  17 1.97  15 2.28
  44  0.256  0.191  0.588-  27 1.88  36 1.91  18 2.04  12 2.30
  45  0.454  0.554  0.600-  35 1.88  32 2.09  18 2.13   2 2.16  14 2.34
  46  0.615  0.366  0.603-  31 1.94  28 1.98  18 2.09   4 2.30   2 2.32
  47  0.252  0.211  0.914-  26 1.85  25 1.91  21 2.19   8 2.30
  48  0.425  0.521  0.904-  33 1.93  26 1.96  19 2.09  14 2.31
  49  0.570  0.347  0.901-  26 1.86  29 1.95  17 2.06
  50  0.274  0.387  0.401-  32 1.82  27 2.02  18 2.10
  51  0.433  0.195  0.409-  36 1.82  18 1.98  31 2.00   5 2.32
  52  0.622  0.559  0.422-  35 1.84  28 1.95  18 2.09
  53  0.754  0.346  0.089-  30 1.82  29 1.96  17 2.20  11 2.38
  54  0.917  0.194  0.104-  25 1.99  30 2.01  23 2.07   1 2.16  10 2.28
  55  0.072  0.521  0.092-  37 1.90  30 1.93  19 2.03   1 2.33
  56  0.760  0.196  0.593-  31 1.87  40 1.88  20 2.06   4 2.34
  57  0.942  0.538  0.592-  28 1.88  20 1.94  39 2.00   3 2.26   4 2.30
  58  0.124  0.378  0.598-  32 1.89  27 1.97  20 2.10   8 2.27
  59  0.747  0.199  0.906-  29 1.92  30 1.93  23 2.02  13 2.37
  60  0.926  0.529  0.908-  37 1.91  17 1.94  30 1.96
  61  0.071  0.350  0.914-  30 1.90  25 1.95  19 2.05   8 2.27
  62  0.758  0.374  0.406-  31 1.90  28 1.97  20 2.14
  63  0.949  0.201  0.409-  27 1.84  40 1.95  20 2.04   1 2.24
  64  0.121  0.541  0.408-  32 1.84  39 1.96  20 2.05
  65  0.752  0.844  0.082-  33 1.90  34 1.90  23 2.07
  66  0.924  0.713  0.102-  34 1.92  37 1.98  11 2.07   9 2.16  17 2.21
  67  0.079  0.030  0.104-  25 1.94  34 1.99  21 2.01   9 2.14
  68  0.775  0.696  0.608-  28 1.91  35 2.04  22 2.08   2 2.23   7 2.33
  69  0.942  0.054  0.586-  40 1.87  27 1.91  22 1.99   7 2.31
  70  0.126  0.873  0.592-  39 1.94  36 1.96  22 2.00   3 2.17
  71  0.759  0.701  0.899-  33 1.91  17 1.92  34 2.00
  72  0.930  0.027  0.904-  34 1.90  25 2.04  23 2.08   7 2.19
  73  0.069  0.838  0.912-  34 1.86  37 1.88  21 2.08   3 2.32
  74  0.763  0.875  0.417-  35 1.88  40 1.92  22 2.14  10 2.29
  75  0.940  0.686  0.405-  39 1.87  28 1.95  22 2.23  11 2.32
  76  0.111  0.044  0.412-  36 1.93  27 1.93  22 1.99
  77  0.236  0.837  0.093-  37 1.82  21 2.00  38 2.00   6 2.33
  78  0.445  0.700  0.094-  33 1.93  38 1.99  19 2.11  15 2.24   6 2.37
  79  0.569  0.018  0.085-  38 1.86  29 1.94  23 2.04
  80  0.254  0.696  0.592-  39 1.88  32 2.03  24 2.07  14 2.34
  81  0.449  0.049  0.592-  31 1.91  36 2.00  24 2.04  12 2.25
  82  0.618  0.877  0.607-  35 1.98  40 2.03  24 2.25  13 2.32
  83  0.252  0.705  0.919-  38 1.81  37 1.93  19 2.05
  84  0.418  0.019  0.905-  29 1.95  38 1.98  21 2.11  12 2.32  13 2.38
  85  0.556  0.842  0.904-  38 1.83  33 1.95  23 2.16  13 2.31
  86  0.261  0.870  0.400-  39 1.91  36 1.97  24 1.99
  87  0.463  0.703  0.405-  35 1.87  24 2.10  32 2.10  15 2.36
  88  0.618  0.048  0.416-  40 1.87  31 1.89  24 2.04  16 2.25
 
  LATTYP: Found a hexagonal cell.
 ALAT       =    10.0190000534
 C/A-ratio  =     1.1196726572
  
  Lattice vectors:
  
 A1 = (  10.0190000534,   0.0000000000,   0.0000000000)
 A2 = (  -5.0095000267,   8.6767085668,   0.0000000000)
 A3 = (   0.0000000000,   0.0000000000,  11.2180004120)


Analysis of symmetry for initial positions (statically):
=====================================================================
 Subroutine PRICEL returns:
 Original cell was already a primitive cell.
 

 Routine SETGRP: Setting up the symmetry group for a 
 hexagonal supercell.


 Subroutine GETGRP returns: Found  1 space group operations
 (whereof  1 operations were pure point group operations)
 out of a pool of 24 trial point group operations.


The static configuration has the point symmetry C_1 .


Analysis of symmetry for dynamics (positions and initial velocities):
=====================================================================
 Subroutine PRICEL returns:
 Original cell was already a primitive cell.
 

 Routine SETGRP: Setting up the symmetry group for a 
 hexagonal supercell.


 Subroutine GETGRP returns: Found  1 space group operations
 (whereof  1 operations were pure point group operations)
 out of a pool of 24 trial point group operations.


The dynamic configuration has the point symmetry C_1 .


Analysis of structural, dynamic, and magnetic symmetry:
=====================================================================
 Subroutine PRICEL returns:
 Original cell was already a primitive cell.
 

 Routine SETGRP: Setting up the symmetry group for a 
 hexagonal supercell.


 Subroutine GETGRP returns: Found  1 space group operations
 (whereof  1 operations were pure point group operations)
 out of a pool of 24 trial point group operations.


The magnetic configuration has the point symmetry C_1 .


 Subroutine INISYM returns: Found  1 space group operations
 (whereof  1 operations are pure point group operations),
 and found     1 'primitive' translations

 
 

Automatic generation of k-mesh.
 generate k-points for:    2    2    2
Space group operators:
 irot       det(A)        alpha          n_x          n_y          n_z        tau_x        tau_y        tau_z
    1     1.000000     0.000000     1.000000     0.000000     0.000000     0.000000     0.000000     0.000000
 
 Subroutine IBZKPT returns following result:
 ===========================================
 
 Found      8 irreducible k-points:
 
 Following reciprocal coordinates:
            Coordinates               Weight
  0.000000  0.000000  0.000000      1.000000
  0.500000 -0.000000 -0.000000      1.000000
  0.000000  0.500000  0.000000      1.000000
  0.500000  0.500000 -0.000000      1.000000
  0.000000  0.000000  0.500000      1.000000
  0.500000 -0.000000  0.500000      1.000000
  0.000000  0.500000  0.500000      1.000000
  0.500000  0.500000  0.500000      1.000000
 
 Following cartesian coordinates:
            Coordinates               Weight
  0.000000  0.000000  0.000000      1.000000
  0.049905  0.028813 -0.000000      1.000000
  0.000000  0.057626  0.000000      1.000000
  0.049905  0.086438 -0.000000      1.000000
  0.000000  0.000000  0.044571      1.000000
  0.049905  0.028813  0.044571      1.000000
  0.000000  0.057626  0.044571      1.000000
  0.049905  0.086438  0.044571      1.000000
 


--------------------------------------------------------------------------------------------------------




 Dimension of arrays:
   k-points           NKPTS =      8   k-points in BZ     NKDIM =      8   number of bands    NBANDS=    448
   number of dos      NEDOS =    301   number of ions     NIONS =     88
   non local maximal  LDIM  =      6   non local SUM 2l+1 LMDIM =     18
   total plane-waves  NPLWV = 140000
   max r-space proj   IRMAX =   1632   max aug-charges    IRDMAX=   4555
   dimension x,y,z NGX =    50 NGY =   50 NGZ =   56
   dimension x,y,z NGXF=   100 NGYF=  100 NGZF=  112
   support grid    NGXF=   100 NGYF=  100 NGZF=  112
   ions per type =              16   8  16  48
   NGX,Y,Z   is equivalent  to a cutoff of   8.30,  8.30,  8.30 a.u.
   NGXF,Y,Z  is equivalent  to a cutoff of  16.59, 16.59, 16.60 a.u.

 SYSTEM =  unknown system                          
 POSCAR =  Na Mg Mn  O                             

 Startparameter for this run:
   NWRITE =      2    write-flag & timer
   PREC   = normal    normal or accurate (medium, high low for compatibility)
   ISTART =      0    job   : 0-new  1-cont  2-samecut
   ICHARG =      1    charge: 1-file 2-atom 10-const
   ISPIN  =      2    spin polarized calculation?
   LNONCOLLINEAR =      F non collinear calculations
   LSORBIT =      F    spin-orbit coupling
   INIWAV =      1    electr: 0-lowe 1-rand  2-diag
   LASPH  =      T    aspherical Exc in radial PAW
   METAGGA=      F    non-selfconsistent MetaGGA calc.

 Electronic Relaxation 1
   ENCUT  =  400.0 eV  29.40 Ry    5.42 a.u.  16.34 16.34 18.29*2*pi/ulx,y,z
   ENINI  =  400.0     initial cutoff
   ENAUG  =  758.8 eV  augmentation charge cutoff
   NELM   =    200;   NELMIN=  6; NELMDL=-12     # of ELM steps 
   EDIFF  = 0.1E-04   stopping-criterion for ELM
   LREAL  =      T    real-space projection
   NLSPLINE    = F    spline interpolate recip. space projectors
   LCOMPAT=      F    compatible to vasp.4.4
   GGA_COMPAT  = T    GGA compatible to vasp.4.4-vasp.4.6
   LMAXPAW     = -100 max onsite density
   LMAXMIX     =    4 max onsite mixed and CHGCAR
   VOSKOWN=      0    Vosko Wilk Nusair interpolation
   ROPT   =   -0.00050  -0.00050  -0.00050  -0.00050
 Ionic relaxation
   EDIFFG = 0.1E-03   stopping-criterion for IOM
   NSW    =      1    number of steps for IOM
   NBLOCK =      1;   KBLOCK =      1    inner block; outer block 
   IBRION =     -1    ionic relax: 0-MD 1-quasi-New 2-CG
   NFREE  =      0    steps in history (QN), initial steepest desc. (CG)
   ISIF   =      2    stress and relaxation
   IWAVPR =     10    prediction:  0-non 1-charg 2-wave 3-comb
   ISYM   =      2    0-nonsym 1-usesym 2-fastsym
   LCORR  =      T    Harris-Foulkes like correction to forces

   POTIM  = 0.5000    time-step for ionic-motion
   TEIN   =    0.0    initial temperature
   TEBEG  =    0.0;   TEEND  =   0.0 temperature during run
   SMASS  =  -3.00    Nose mass-parameter (am)
   estimated Nose-frequenzy (Omega)   =  0.10E-29 period in steps =****** mass=  -0.229E-26a.u.
   SCALEE = 1.0000    scale energy and forces
   NPACO  =    256;   APACO  = 16.0  distance and # of slots for P.C.
   PSTRESS=    0.0 pullay stress

  Mass of Ions in am
   POMASS =  22.99 24.30 54.94 16.00
  Ionic Valenz
   ZVAL   =   7.00  8.00 13.00  6.00
  Atomic Wigner-Seitz radii
   RWIGS  =  -1.00 -1.00 -1.00 -1.00
  virtual crystal weights 
   VCA    =   1.00  1.00  1.00  1.00
   NELECT =     672.0000    total number of electrons
   NUPDOWN=      48.0000    fix difference up-down

 DOS related values:
   EMIN   =  10.00;   EMAX   =-10.00  energy-range for DOS
   EFERMI =   0.00
   ISMEAR =     0;   SIGMA  =   0.05  broadening in eV -4-tet -1-fermi 0-gaus

 Electronic relaxation 2 (details)
   IALGO  =     48    algorithm
   LDIAG  =      T    sub-space diagonalisation (order eigenvalues)
   LSUBROT=      F    optimize rotation matrix (better conditioning)
   TURBO    =      0    0=normal 1=particle mesh
   IRESTART =      0    0=no restart 2=restart with 2 vectors
   NREBOOT  =      0    no. of reboots
   NMIN     =      0    reboot dimension
   EREF     =   0.00    reference energy to select bands
   IMIX   =      4    mixing-type and parameters
     AMIX     =   0.40;   BMIX     =  1.00
     AMIX_MAG =   1.60;   BMIX_MAG =  1.00
     AMIN     =   0.10
     WC   =   100.;   INIMIX=   1;  MIXPRE=   1;  MAXMIX= -45

 Intra band minimization:
   WEIMIN = 0.0000     energy-eigenvalue tresh-hold
   EBREAK =  0.56E-08  absolut break condition
   DEPER  =   0.30     relativ break condition  

   TIME   =   0.40     timestep for ELM

  volume/ion in A,a.u.               =      11.08        74.78
  Fermi-wavevector in a.u.,A,eV,Ry     =   1.445993  2.732531 28.448379  2.090897
  Thomas-Fermi vector in A             =   2.564112
 
 Write flags
   LWAVE        =      F    write WAVECAR
   LDOWNSAMPLE  =      F    k-point downsampling of WAVECAR
   LCHARG       =      F    write CHGCAR
   LVTOT        =      F    write LOCPOT, total local potential
   LVHAR        =      F    write LOCPOT, Hartree potential only
   LELF         =      F    write electronic localiz. function (ELF)
   LORBIT       =     11    0 simple, 1 ext, 2 COOP (PROOUT), +10 PAW based schemes


 Dipole corrections
   LMONO  =      F    monopole corrections only (constant potential shift)
   LDIPOL =      F    correct potential (dipole corrections)
   IDIPOL =      0    1-x, 2-y, 3-z, 4-all directions 
   EPSILON=  1.0000000 bulk dielectric constant

 Exchange correlation treatment:
   GGA     =    --    GGA type
   LEXCH   =     8    internal setting for exchange type
   VOSKOWN=      0    Vosko Wilk Nusair interpolation
   LHFCALC =     F    Hartree Fock is set to
   LHFONE  =     F    Hartree Fock one center treatment
   AEXX    =    0.0000 exact exchange contribution

 Linear response parameters
   LEPSILON=     F    determine dielectric tensor
   LRPA    =     F    only Hartree local field effects (RPA)
   LNABLA  =     F    use nabla operator in PAW spheres
   LVEL    =     F    velocity operator in full k-point grid
   LINTERFAST=   F  fast interpolation
   KINTER  =     0    interpolate to denser k-point grid
   CSHIFT  =0.1000    complex shift for real part using Kramers Kronig
   OMEGAMAX=  -1.0    maximum frequency
   DEG_THRESHOLD= 0.2000000E-02 threshold for treating states as degnerate
   RTIME   =   -0.100 relaxation time in fs
  (WPLASMAI=    0.000 imaginary part of plasma frequency in eV, 0.658/RTIME)
   DFIELD  = 0.0000000 0.0000000 0.0000000 field for delta impulse in time
 
 Orbital magnetization related:
   ORBITALMAG=     F  switch on orbital magnetization
   LCHIMAG   =     F  perturbation theory with respect to B field
   DQ        =  0.001000  dq finite difference perturbation B field
   LLRAUG    =     F  two centre corrections for induced B field



--------------------------------------------------------------------------------------------------------


 Static calculation
 charge density and potential will be updated during run
 spin polarized calculation
 RMM-DIIS sequential band-by-band
 perform sub-space diagonalisation
    before iterative eigenvector-optimisation
 modified Broyden-mixing scheme, WC =      100.0
 initial mixing is a Kerker type mixing with AMIX =  0.4000 and BMIX =      1.0000
 Hartree-type preconditioning will be used
 using additional bands          112
 real space projection scheme for non local part
 use partial core corrections
 calculate Harris-corrections to forces 
   (improved forces if not selfconsistent)
 use gradient corrections 
 use of overlap-Matrix (Vanderbilt PP)
 Gauss-broadening in eV      SIGMA  =   0.05


--------------------------------------------------------------------------------------------------------


  energy-cutoff  :      400.00
  volume of cell :      975.20
      direct lattice vectors                 reciprocal lattice vectors
    10.019000053  0.000000000  0.000000000     0.099810360  0.057625538 -0.000000000
    -5.009500027  8.676708567  0.000000000     0.000000000  0.115251076  0.000000000
     0.000000000  0.000000000 11.218000412     0.000000000  0.000000000  0.089142446

  length of vectors
    10.019000053 10.019000053 11.218000412     0.115251076  0.115251076  0.089142446


 
 k-points in units of 2pi/SCALE and weight: read from INCAR                         
   0.00000000  0.00000000  0.00000000       0.125
   0.04990518  0.02881277 -0.00000000       0.125
   0.00000000  0.05762554  0.00000000       0.125
   0.04990518  0.08643831 -0.00000000       0.125
   0.00000000  0.00000000  0.04457122       0.125
   0.04990518  0.02881277  0.04457122       0.125
   0.00000000  0.05762554  0.04457122       0.125
   0.04990518  0.08643831  0.04457122       0.125
 
 k-points in reciprocal lattice and weights: read from INCAR                         
   0.00000000  0.00000000  0.00000000       0.125
   0.50000000 -0.00000000 -0.00000000       0.125
   0.00000000  0.50000000  0.00000000       0.125
   0.50000000  0.50000000 -0.00000000       0.125
   0.00000000  0.00000000  0.50000000       0.125
   0.50000000 -0.00000000  0.50000000       0.125
   0.00000000  0.50000000  0.50000000       0.125
   0.50000000  0.50000000  0.50000000       0.125
 
 position of ions in fractional coordinates (direct lattice) 
   0.03663223  0.35325245  0.24780709
   0.59685929  0.53365266  0.73543053
   0.06772619  0.71085909  0.73848277
   0.79033575  0.37410401  0.73999284
   0.29673818  0.21818939  0.25065162
   0.28119681  0.70566143  0.24469602
   0.82195787  0.88908994  0.74464073
   0.11766525  0.23572978  0.75758154
   0.06935793  0.87240191  0.23756284
   0.87108304  0.01796204  0.24891780
   0.82620970  0.54494364  0.23288464
   0.36087036  0.12870747  0.74536278
   0.58956251  0.01870986  0.75860846
   0.36543147  0.64448698  0.75620607
   0.58343692  0.66897981  0.23659118
   0.59651484  0.17309954  0.25655731
   0.75360554  0.53182033  0.98274710
   0.43909506  0.36504511  0.50172935
   0.25144587  0.52437972  0.00558919
   0.94077369  0.37109925  0.50226509
   0.24226565  0.01657442  0.00965395
   0.94954081  0.87758047  0.51274289
   0.74975878  0.02595932  0.99655281
   0.42935669  0.86880526  0.49308431
   0.08826153  0.19785053  0.01110938
   0.42338118  0.35566943  0.99687060
   0.10890681  0.21060636  0.49683632
   0.77822525  0.54050680  0.51127650
   0.57983871  0.18937958  0.99644142
   0.91036687  0.35538591  0.00082899
   0.61034462  0.20755221  0.50050809
   0.27002019  0.53163247  0.49682027
   0.59179058  0.69133243  0.98767347
   0.92573751  0.86630085  0.99776830
   0.61274416  0.71056668  0.50859955
   0.27858566  0.04349131  0.49592350
   0.07796944  0.68816763  0.00710251
   0.41456644  0.85194633  0.00162854
   0.10749068  0.70547143  0.49286413
   0.77725398  0.04759310  0.50273220
   0.25601106  0.34341248  0.09999732
   0.42407257  0.18345205  0.09323230
   0.58609696  0.52300938  0.08124514
   0.25566997  0.19136190  0.58822783
   0.45396978  0.55404996  0.60027899
   0.61498158  0.36579309  0.60298001
   0.25179624  0.21146152  0.91437864
   0.42459537  0.52139356  0.90370829
   0.56970779  0.34700716  0.90082899
   0.27447933  0.38741419  0.40146549
   0.43324947  0.19462350  0.40881082
   0.62157613  0.55920975  0.42160633
   0.75366322  0.34644012  0.08853672
   0.91725948  0.19426145  0.10353004
   0.07211257  0.52104320  0.09162952
   0.75952196  0.19592584  0.59287571
   0.94186349  0.53758864  0.59163663
   0.12368473  0.37816875  0.59842572
   0.74690435  0.19874933  0.90599034
   0.92628910  0.52883533  0.90819216
   0.07115367  0.35046585  0.91440539
   0.75811002  0.37398628  0.40631394
   0.94946433  0.20120434  0.40926902
   0.12084822  0.54099777  0.40815741
   0.75188879  0.84444233  0.08227161
   0.92425606  0.71263428  0.10164378
   0.07902042  0.02973264  0.10412194
   0.77542837  0.69552987  0.60787571
   0.94202014  0.05408519  0.58609286
   0.12575627  0.87271227  0.59245942
   0.75908842  0.70103542  0.89879654
   0.92994382  0.02681448  0.90428772
   0.06865017  0.83789722  0.91169546
   0.76316644  0.87492854  0.41740059
   0.94022609  0.68562635  0.40488143
   0.11070240  0.04389008  0.41209394
   0.23606205  0.83747195  0.09330451
   0.44485785  0.70036926  0.09437065
   0.56851302  0.01764626  0.08546167
   0.25401274  0.69582607  0.59203510
   0.44872951  0.04884818  0.59232838
   0.61776447  0.87730156  0.60749597
   0.25176889  0.70473152  0.91939736
   0.41834245  0.01898432  0.90504543
   0.55624037  0.84163136  0.90428772
   0.26085013  0.87031389  0.39985112
   0.46277901  0.70276533  0.40515331
   0.61834146  0.04830304  0.41590745
 
 position of ions in cartesian coordinates  (Angst):
  -1.40259984  3.06506853  2.77990000
   3.30660021  4.63034860  8.25006000
  -2.88249995  6.16791713  8.28430000
   6.04429987  3.24599143  8.30124000
   1.88000011  1.89316573  2.81181000
  -0.71770008  6.12281857  2.74500000
   3.78129987  7.71437430  8.35338000
  -0.00200019  2.04535857  8.49855000
  -3.67540029  7.56957710  2.66498000
   8.63740016  0.15585140  2.79236000
   5.54789984  4.72831713  2.61250000
   2.97080008  1.11675717  8.36148000
   5.81309971  0.16234003  8.51007000
   0.43270040  5.59202570  8.48312000
   2.49420013  5.80454283  2.65408000
   5.10934005  1.50193427  2.87806000
   4.88622000  4.61445000 11.02445741
   2.57060000  3.16739000  5.62840000
  -0.10764400  4.54989000  0.06269959
   7.56659000  3.21992000  5.63441000
   2.34423003  0.14381143  0.10829800
   5.11721000  7.61451000  5.75195000
   7.38179003  0.22524143 11.17932981
  -0.05055520  7.53837000  5.53142000
  -0.10684003  1.71669143  0.12462500
   2.46013000  3.08604000 11.18289481
   0.03610480  1.82737000  5.57351000
   5.08937000  4.68982000  5.73550000
   4.86070703  1.64319143 11.17808021
   7.34066000  3.08358000  0.00929959
   5.07531000  1.80087000  5.61470000
   0.04211940  4.61282000  5.57333000
   2.46592000  5.99849000 11.07972141
   4.93523000  7.51664000 11.19296521
   2.57950000  6.16538000  5.70547000
   2.57328003  0.37736143  5.56327000
  -2.66620000  5.97103000  0.07967600
  -0.11428400  7.39209000  0.01826900
  -2.45711000  6.12117000  5.52895000
   7.54889003  0.41295143  5.63965000
   0.84465000  2.97969000  1.12177000
   3.32978000  1.59176000  1.04588000
   3.25209000  4.53800000  0.91140800
   1.60293003  1.66039143  6.59874000
   1.77281000  4.80733000  6.73393000
   4.32906000  3.17388000  6.76423000
   1.46343000  1.83479000 10.25750000
   1.64210000  4.52398000 10.13780000
   3.96957000  3.01088000 10.10550000
   0.80925700  3.36148000  4.50364000
   3.36576003  1.68869143  4.58604000
   3.42621000  4.85210000  4.72958000
   5.81546000  3.00596000  0.99320500
   8.21687000  1.68555000  1.16140000
  -1.88767005  4.52094000  1.02790000
   6.62816003  1.69999143  6.65088000
   6.74348000  4.66450000  6.63698000
  -0.65523900  3.28126000  6.71314000
   6.48760000  1.72449000 10.16340000
   6.63129000  4.58855000 10.18810000
  -1.04277005  3.04089000 10.25780000
   5.72202000  3.24497000  4.55803000
   8.50475003  1.74579143  4.59118000
  -1.49935000  4.69408000  4.57871000
   3.30294000  7.32698000  0.92292300
   5.69018000  6.18332000  1.14024000
   0.64275997  0.25798143  1.16804000
   4.28476000  6.03491000  6.81915000
   9.16716003  0.46928143  6.57479000
  -3.11190000  7.57227000  6.64621000
   4.09347000  6.08268000 10.08270000
   9.18278003  0.23266143 10.14430000
  -3.50964005  7.27019000 10.22740000
   3.26321000  7.59150000  4.68240000
   5.98548000  5.94898000  4.54196000
   0.88926003  0.38082143  4.62287000
  -1.83021000  7.26650000  1.04669000
   0.94853100  6.07690000  1.05865000
   5.60753303  0.15311143  0.95870900
  -0.94078700  6.03748000  6.64145000
   4.25111603  0.42384143  6.64474000
   1.79454000  7.61209000  6.81489000
  -1.00788000  6.11475000 10.31380000
   4.09627103  0.16472143 10.15280000
   1.35682000  7.30259000 10.14430000
  -1.74638000  7.55146000  4.48553000
   1.11608000  6.09769000  4.54501000
   5.95318903  0.41911143  4.66565000
 


--------------------------------------------------------------------------------------------------------


 k-point  1 :   0.0000 0.0000 0.0000  plane waves:   17725
 k-point  2 :   0.5000-0.0000-0.0000  plane waves:   17736
 k-point  3 :   0.0000 0.5000 0.0000  plane waves:   17736
 k-point  4 :   0.5000 0.5000-0.0000  plane waves:   17736
 k-point  5 :   0.0000 0.0000 0.5000  plane waves:   17676
 k-point  6 :   0.5000-0.0000 0.5000  plane waves:   17700
 k-point  7 :   0.0000 0.5000 0.5000  plane waves:   17700
 k-point  8 :   0.5000 0.5000 0.5000  plane waves:   17700

 maximum and minimum number of plane-waves per node :     17736    17676

 maximum number of plane-waves:     17736
 maximum index in each direction: 
   IXMAX=   16   IYMAX=   16   IZMAX=   18
   IXMIN=  -16   IYMIN=  -16   IZMIN=  -18


 serial   3D FFT for wavefunctions
 parallel 3D FFT for charge:
    minimum data exchange during FFTs selected (reduces bandwidth)


 total amount of memory used by VASP MPI-rank0    88181. kBytes
=======================================================================

   base      :      30000. kBytes
   nonlr-proj:      13672. kBytes
   fftplans  :        992. kBytes
   grid      :      21513. kBytes
   one-center:       2737. kBytes
   wavefun   :      19267. kBytes
 
     INWAV:  cpu time    0.0000: real time    0.0001
 Broyden mixing: mesh for mixing (old mesh)
   NGX = 33   NGY = 33   NGZ = 37
  (NGX  =100   NGY  =100   NGZ  =112)
  gives a total of  40293 points

 initial charge density was supplied:
 charge density of overlapping atoms calculated
 number of electron     672.0000000 magnetization      48.0000000
 keeping initial charge density in first step


--------------------------------------------------------------------------------------------------------


 Maximum index for non-local projection operator         1550
 Maximum index for augmentation-charges          237 (set IRDMAX)


--------------------------------------------------------------------------------------------------------


 First call to EWALD:  gamma=   0.179
 Maximum number of real-space cells 3x 3x 2
 Maximum number of reciprocal cells 3x 3x 3

    FEWALD:  cpu time    0.0027: real time    0.0033


--------------------------------------- Iteration      1(   1)  ---------------------------------------


    POTLOK:  cpu time    0.2066: real time    0.2081
    SETDIJ:  cpu time    3.1204: real time    3.1229
    EDDIAG:  cpu time    3.8084: real time    3.8209
  RMM-DIIS:  cpu time    6.7672: real time    6.8143
    ORTHCH:  cpu time    1.1693: real time    1.1739
       DOS:  cpu time    0.0025: real time    0.0026
    --------------------------------------------
      LOOP:  cpu time   15.0743: real time   15.1426

 eigenvalue-minimisations  :  7168
 total energy-change (2. order) : 0.1882416E+04  (-0.3594524E+05)
 number of electron     672.0000000 magnetization      48.0000000
 augmentation part      672.0000000 magnetization      48.0000000

 Free energy of the ion-electron system (eV)
  ---------------------------------------------------
  alpha Z        PSCENC =      2652.81237852
  Ewald energy   TEWEN  =    -41845.89303194
  -Hartree energ DENC   =    -25765.80698836
  -exchange      EXHF   =         0.00000000
  -V(xc)+E(xc)   XCENC  =      3606.05553423
  PAW double counting   =     55594.23204139   -59034.67079123
  entropy T*S    EENTRO =        -0.04951170
  eigenvalues    EBANDS =     -7186.46131516
  atomic energy  EATOM  =     73862.19814772
  Solvation  Ediel_sol  =         0.00000000
  ---------------------------------------------------
  free energy    TOTEN  =      1882.41646346 eV

  energy without entropy =     1882.46597516  energy(sigma->0) =     1882.44121931


--------------------------------------------------------------------------------------------------------




--------------------------------------- Iteration      1(   2)  ---------------------------------------


    EDDIAG:  cpu time    3.7959: real time    3.8067
  RMM-DIIS:  cpu time    6.7961: real time    6.8112
    ORTHCH:  cpu time    1.1620: real time    1.1654
       DOS:  cpu time    0.0016: real time    0.0016
    --------------------------------------------
      LOOP:  cpu time   11.7556: real time   11.7849

 eigenvalue-minimisations  :  7168
 total energy-change (2. order) :-0.2735883E+04  (-0.8705134E+04)
 number of electron     672.0000000 magnetization      48.0000000
 augmentation part      672.0000000 magnetization      48.0000000

 Free energy of the ion-electron system (eV)
  ---------------------------------------------------
  alpha Z        PSCENC =      2652.81237852
  Ewald energy   TEWEN  =    -41845.89303194
  -Hartree energ DENC   =    -25765.80698836
  -exchange      EXHF   =         0.00000000
  -V(xc)+E(xc)   XCENC  =      3606.05553423
  PAW double counting   =     55594.23204139   -59034.67079123
  entropy T*S    EENTRO =        -0.05846573
  eigenvalues    EBANDS =     -9922.33498400
  atomic energy  EATOM  =     73862.19814772
  Solvation  Ediel_sol  =         0.00000000
  ---------------------------------------------------
  free energy    TOTEN  =      -853.46615940 eV

  energy without entropy =     -853.40769367  energy(sigma->0) =     -853.43692654


--------------------------------------------------------------------------------------------------------




--------------------------------------- Iteration      1(   3)  ---------------------------------------


    EDDIAG:  cpu time    3.8972: real time    3.9071
  RMM-DIIS:  cpu time    6.7880: real time    6.8137
    ORTHCH:  cpu time    1.1693: real time    1.1738
       DOS:  cpu time    0.0015: real time    0.0015
    --------------------------------------------
      LOOP:  cpu time   11.8560: real time   11.8961

 eigenvalue-minimisations  :  7168
 total energy-change (2. order) : 0.3190187E+03  (-0.1562977E+04)
 number of electron     672.0000000 magnetization      48.0000000
 augmentation part      672.0000000 magnetization      48.0000000

 Free energy of the ion-electron system (eV)
  ---------------------------------------------------
  alpha Z        PSCENC =      2652.81237852
  Ewald energy   TEWEN  =    -41845.89303194
  -Hartree energ DENC   =    -25765.80698836
  -exchange      EXHF   =         0.00000000
  -V(xc)+E(xc)   XCENC  =      3606.05553423
  PAW double counting   =     55594.23204139   -59034.67079123
  entropy T*S    EENTRO =        -0.04651161
  eigenvalues    EBANDS =     -9603.32828732
  atomic energy  EATOM  =     73862.19814772
  Solvation  Ediel_sol  =         0.00000000
  ---------------------------------------------------
  free energy    TOTEN  =      -534.44750861 eV

  energy without entropy =     -534.40099700  energy(sigma->0) =     -534.42425280


--------------------------------------------------------------------------------------------------------




--------------------------------------- Iteration      1(   4)  ---------------------------------------


    EDDIAG:  cpu time    3.8224: real time    3.8321
  RMM-DIIS:  cpu time    6.7756: real time    6.7919
    ORTHCH:  cpu time    1.1894: real time    1.1932
       DOS:  cpu time    0.0013: real time    0.0013
    --------------------------------------------
      LOOP:  cpu time   11.7887: real time   11.8185

 eigenvalue-minimisations  :  7168
 total energy-change (2. order) :-0.5228280E+03  (-0.5072511E+03)
 number of electron     672.0000000 magnetization      48.0000000
 augmentation part      672.0000000 magnetization      48.0000000

 Free energy of the ion-electron system (eV)
  ---------------------------------------------------
  alpha Z        PSCENC =      2652.81237852
  Ewald energy   TEWEN  =    -41845.89303194
  -Hartree energ DENC   =    -25765.80698836
  -exchange      EXHF   =         0.00000000
  -V(xc)+E(xc)   XCENC  =      3606.05553423
  PAW double counting   =     55594.23204139   -59034.67079123
  entropy T*S    EENTRO =        -0.00003034
  eigenvalues    EBANDS =    -10126.20272059
  atomic energy  EATOM  =     73862.19814772
  Solvation  Ediel_sol  =         0.00000000
  ---------------------------------------------------
  free energy    TOTEN  =     -1057.27546061 eV

  energy without entropy =    -1057.27543027  energy(sigma->0) =    -1057.27544544


--------------------------------------------------------------------------------------------------------




--------------------------------------- Iteration      1(   5)  ---------------------------------------


    EDDIAG:  cpu time    3.8374: real time    3.8468
  RMM-DIIS:  cpu time    6.8023: real time    6.8180
    ORTHCH:  cpu time    1.1643: real time    1.1678
       DOS:  cpu time    0.0010: real time    0.0010
    --------------------------------------------
      LOOP:  cpu time   11.8051: real time   11.8335

 eigenvalue-minimisations  :  7168
 total energy-change (2. order) :-0.1478381E+03  (-0.2123968E+03)
 number of electron     672.0000000 magnetization      48.0000000
 augmentation part      672.0000000 magnetization      48.0000000

 Free energy of the ion-electron system (eV)
  ---------------------------------------------------
  alpha Z        PSCENC =      2652.81237852
  Ewald energy   TEWEN  =    -41845.89303194
  -Hartree energ DENC   =    -25765.80698836
  -exchange      EXHF   =         0.00000000
  -V(xc)+E(xc)   XCENC  =      3606.05553423
  PAW double counting   =     55594.23204139   -59034.67079123
  entropy T*S    EENTRO =        -0.00000000
  eigenvalues    EBANDS =    -10274.04083609
  atomic energy  EATOM  =     73862.19814772
  Solvation  Ediel_sol  =         0.00000000
  ---------------------------------------------------
  free energy    TOTEN  =     -1205.11354576 eV

  energy without entropy =    -1205.11354576  energy(sigma->0) =    -1205.11354576


--------------------------------------------------------------------------------------------------------




--------------------------------------- Iteration      1(   6)  ---------------------------------------


    EDDIAG:  cpu time    3.8323: real time    3.8398
  RMM-DIIS:  cpu time    6.7587: real time    6.7954
    ORTHCH:  cpu time    1.1697: real time    1.1732
       DOS:  cpu time    0.0014: real time    0.0014
    --------------------------------------------
      LOOP:  cpu time   11.7622: real time   11.8098

 eigenvalue-minimisations  :  7168
 total energy-change (2. order) :-0.2167556E+02  (-0.1152630E+03)
 number of electron     672.0000000 magnetization      48.0000000
 augmentation part      672.0000000 magnetization      48.0000000

 Free energy of the ion-electron system (eV)
  ---------------------------------------------------
  alpha Z        PSCENC =      2652.81237852
  Ewald energy   TEWEN  =    -41845.89303194
  -Hartree energ DENC   =    -25765.80698836
  -exchange      EXHF   =         0.00000000
  -V(xc)+E(xc)   XCENC  =      3606.05553423
  PAW double counting   =     55594.23204139   -59034.67079123
  entropy T*S    EENTRO =        -0.00000000
  eigenvalues    EBANDS =    -10295.71639145
  atomic energy  EATOM  =     73862.19814772
  Solvation  Ediel_sol  =         0.00000000
  ---------------------------------------------------
  free energy    TOTEN  =     -1226.78910113 eV

  energy without entropy =    -1226.78910113  energy(sigma->0) =    -1226.78910113


--------------------------------------------------------------------------------------------------------




--------------------------------------- Iteration      1(   7)  ---------------------------------------


    EDDIAG:  cpu time    3.8351: real time    3.8436
  RMM-DIIS:  cpu time    6.8005: real time    6.8157
    ORTHCH:  cpu time    1.1672: real time    1.1705
       DOS:  cpu time    0.0013: real time    0.0013
    --------------------------------------------
      LOOP:  cpu time   11.8040: real time   11.8311

 eigenvalue-minimisations  :  7168
 total energy-change (2. order) :-0.6583983E+01  (-0.7610886E+02)
 number of electron     672.0000000 magnetization      48.0000000
 augmentation part      672.0000000 magnetization      48.0000000

 Free energy of the ion-electron system (eV)
  ---------------------------------------------------
  alpha Z        PSCENC =      2652.81237852
  Ewald energy   TEWEN  =    -41845.89303194
  -Hartree energ DENC   =    -25765.80698836
  -exchange      EXHF   =         0.00000000
  -V(xc)+E(xc)   XCENC  =      3606.05553423
  PAW double counting   =     55594.23204139   -59034.67079123
  entropy T*S    EENTRO =        -0.00000000
  eigenvalues    EBANDS =    -10302.30037455
  atomic energy  EATOM  =     73862.19814772
  Solvation  Ediel_sol  =         0.00000000
  ---------------------------------------------------
  free energy    TOTEN  =     -1233.37308423 eV

  energy without entropy =    -1233.37308423  energy(sigma->0) =    -1233.37308423


--------------------------------------------------------------------------------------------------------




--------------------------------------- Iteration      1(   8)  ---------------------------------------


    EDDIAG:  cpu time    3.8165: real time    3.8245
  RMM-DIIS:  cpu time    6.8219: real time    6.8340
    ORTHCH:  cpu time    1.1794: real time    1.1946
       DOS:  cpu time    0.0013: real time    0.0013
    --------------------------------------------
      LOOP:  cpu time   11.8190: real time   11.8543

 eigenvalue-minimisations  :  7168
 total energy-change (2. order) : 0.4645057E+01  (-0.5273461E+02)
 number of electron     672.0000000 magnetization      48.0000000
 augmentation part      672.0000000 magnetization      48.0000000

 Free energy of the ion-electron system (eV)
  ---------------------------------------------------
  alpha Z        PSCENC =      2652.81237852
  Ewald energy   TEWEN  =    -41845.89303194
  -Hartree energ DENC   =    -25765.80698836
  -exchange      EXHF   =         0.00000000
  -V(xc)+E(xc)   XCENC  =      3606.05553423
  PAW double counting   =     55594.23204139   -59034.67079123
  entropy T*S    EENTRO =        -0.00000000
  eigenvalues    EBANDS =    -10297.65531747
  atomic energy  EATOM  =     73862.19814772
  Solvation  Ediel_sol  =         0.00000000
  ---------------------------------------------------
  free energy    TOTEN  =     -1228.72802715 eV

  energy without entropy =    -1228.72802715  energy(sigma->0) =    -1228.72802715


--------------------------------------------------------------------------------------------------------




--------------------------------------- Iteration      1(   9)  ---------------------------------------


    EDDIAG:  cpu time    3.8494: real time    3.8600
  RMM-DIIS:  cpu time   14.1964: real time   14.2247
    ORTHCH:  cpu time    1.1608: real time    1.1643
       DOS:  cpu time    0.0010: real time    0.0010
    --------------------------------------------
      LOOP:  cpu time   19.2076: real time   19.2500

 eigenvalue-minimisations  : 20241
 total energy-change (2. order) : 0.1810972E+02  (-0.2361688E+02)
 number of electron     672.0000000 magnetization      48.0000000
 augmentation part      672.0000000 magnetization      48.0000000

 Free energy of the ion-electron system (eV)
  ---------------------------------------------------
  alpha Z        PSCENC =      2652.81237852
  Ewald energy   TEWEN  =    -41845.89303194
  -Hartree energ DENC   =    -25765.80698836
  -exchange      EXHF   =         0.00000000
  -V(xc)+E(xc)   XCENC  =      3606.05553423
  PAW double counting   =     55594.23204139   -59034.67079123
  entropy T*S    EENTRO =        -0.00000000
  eigenvalues    EBANDS =    -10279.54559913
  atomic energy  EATOM  =     73862.19814772
  Solvation  Ediel_sol  =         0.00000000
  ---------------------------------------------------
  free energy    TOTEN  =     -1210.61830880 eV

  energy without entropy =    -1210.61830880  energy(sigma->0) =    -1210.61830880


--------------------------------------------------------------------------------------------------------




--------------------------------------- Iteration      1(  10)  ---------------------------------------


    EDDIAG:  cpu time    3.8473: real time    3.8556
  RMM-DIIS:  cpu time   15.5099: real time   15.5576
    ORTHCH:  cpu time    1.1906: real time    1.1940
       DOS:  cpu time    0.0011: real time    0.0011
    --------------------------------------------
      LOOP:  cpu time   20.5490: real time   20.6084

 eigenvalue-minimisations  : 20295
 total energy-change (2. order) :-0.3070353E+01  (-0.1120625E+01)
 number of electron     672.0000000 magnetization      48.0000000
 augmentation part      672.0000000 magnetization      48.0000000

 Free energy of the ion-electron system (eV)
  ---------------------------------------------------
  alpha Z        PSCENC =      2652.81237852
  Ewald energy   TEWEN  =    -41845.89303194
  -Hartree energ DENC   =    -25765.80698836
  -exchange      EXHF   =         0.00000000
  -V(xc)+E(xc)   XCENC  =      3606.05553423
  PAW double counting   =     55594.23204139   -59034.67079123
  entropy T*S    EENTRO =        -0.00000027
  eigenvalues    EBANDS =    -10282.61595163
  atomic energy  EATOM  =     73862.19814772
  Solvation  Ediel_sol  =         0.00000000
  ---------------------------------------------------
  free energy    TOTEN  =     -1213.68866157 eV

  energy without entropy =    -1213.68866131  energy(sigma->0) =    -1213.68866144


--------------------------------------------------------------------------------------------------------




--------------------------------------- Iteration      1(  11)  ---------------------------------------


    EDDIAG:  cpu time    3.8357: real time    3.8453
  RMM-DIIS:  cpu time   15.0390: real time   15.0687
    ORTHCH:  cpu time    1.2281: real time    1.2522
       DOS:  cpu time    0.0013: real time    0.0013
    --------------------------------------------
      LOOP:  cpu time   20.1041: real time   20.1675

 eigenvalue-minimisations  : 21698
 total energy-change (2. order) : 0.1151538E+00  (-0.9817389E-01)
 number of electron     672.0000000 magnetization      48.0000000
 augmentation part      672.0000000 magnetization      48.0000000

 Free energy of the ion-electron system (eV)
  ---------------------------------------------------
  alpha Z        PSCENC =      2652.81237852
  Ewald energy   TEWEN  =    -41845.89303194
  -Hartree energ DENC   =    -25765.80698836
  -exchange      EXHF   =         0.00000000
  -V(xc)+E(xc)   XCENC  =      3606.05553423
  PAW double counting   =     55594.23204139   -59034.67079123
  entropy T*S    EENTRO =        -0.00000050
  eigenvalues    EBANDS =    -10282.50079763
  atomic energy  EATOM  =     73862.19814772
  Solvation  Ediel_sol  =         0.00000000
  ---------------------------------------------------
  free energy    TOTEN  =     -1213.57350780 eV

  energy without entropy =    -1213.57350730  energy(sigma->0) =    -1213.57350755


--------------------------------------------------------------------------------------------------------




--------------------------------------- Iteration      1(  12)  ---------------------------------------


    EDDIAG:  cpu time    3.8254: real time    3.8364
  RMM-DIIS:  cpu time   16.1028: real time   16.1332
    ORTHCH:  cpu time    1.1666: real time    1.1708
       DOS:  cpu time    0.0014: real time    0.0014
    CHARGE:  cpu time    1.3788: real time    1.3810
    MIXING:  cpu time    0.0013: real time    0.0014
    --------------------------------------------
      LOOP:  cpu time   22.4762: real time   22.5243

 eigenvalue-minimisations  : 22884
 total energy-change (2. order) : 0.7230143E-02  (-0.6746815E-02)
 number of electron     672.0000026 magnetization      48.0000021
 augmentation part      239.0745395 magnetization      29.0234685

 Broyden mixing:
  rms(total) = 0.12584E+02    rms(broyden)= 0.12575E+02
  rms(prec ) = 0.14438E+02
  weight for this iteration     100.00

 Free energy of the ion-electron system (eV)
  ---------------------------------------------------
  alpha Z        PSCENC =      2652.81237852
  Ewald energy   TEWEN  =    -41845.89303194
  -Hartree energ DENC   =    -25765.80698836
  -exchange      EXHF   =         0.00000000
  -V(xc)+E(xc)   XCENC  =      3606.05553423
  PAW double counting   =     55594.23204139   -59034.67079123
  entropy T*S    EENTRO =        -0.00000044
  eigenvalues    EBANDS =    -10282.49356754
  atomic energy  EATOM  =     73862.19814772
  Solvation  Ediel_sol  =         0.00000000
  ---------------------------------------------------
  free energy    TOTEN  =     -1213.56627766 eV

  energy without entropy =    -1213.56627722  energy(sigma->0) =    -1213.56627744


--------------------------------------------------------------------------------------------------------




--------------------------------------- Iteration      1(  13)  ---------------------------------------


    POTLOK:  cpu time    0.2089: real time    0.2100
    SETDIJ:  cpu time    3.2843: real time    3.2865
    EDDIAG:  cpu time    3.8526: real time    3.8689
  RMM-DIIS:  cpu time   13.2005: real time   13.2266
    ORTHCH:  cpu time    1.1753: real time    1.1787
       DOS:  cpu time    0.0014: real time    0.0014
    CHARGE:  cpu time    1.3794: real time    1.3813
    MIXING:  cpu time    0.0009: real time    0.0011
    --------------------------------------------
      LOOP:  cpu time   23.1033: real time   23.1544

 eigenvalue-minimisations  : 17325
 total energy-change (2. order) : 0.2238578E+03  (-0.1390549E+03)
 number of electron     672.0000100 magnetization      48.0000023
 augmentation part      269.2624388 magnetization      26.3440231

 Broyden mixing:
  rms(total) = 0.14030E+02    rms(broyden)= 0.14027E+02
  rms(prec ) = 0.15795E+02
  weight for this iteration     100.00

 eigenvalues of (default mixing * dielectric matrix)
  average eigenvalue GAMMA=   0.3175
  0.3175

 Free energy of the ion-electron system (eV)
  ---------------------------------------------------
  alpha Z        PSCENC =      2652.81237852
  Ewald energy   TEWEN  =    -41845.89303194
  -Hartree energ DENC   =    -25095.58100526
  -exchange      EXHF   =         0.00000000
  -V(xc)+E(xc)   XCENC  =      3696.47912288
  PAW double counting   =     59908.80418394   -63334.22658242
  entropy T*S    EENTRO =        -0.07868278
  eigenvalues    EBANDS =    -10834.22296722
  atomic energy  EATOM  =     73862.19814772
  Solvation  Ediel_sol  =         0.00000000
  ---------------------------------------------------
  free energy    TOTEN  =      -989.70843655 eV

  energy without entropy =     -989.62975377  energy(sigma->0) =     -989.66909516


--------------------------------------------------------------------------------------------------------




--------------------------------------- Iteration      1(  14)  ---------------------------------------


    POTLOK:  cpu time    0.2065: real time    0.2068
    SETDIJ:  cpu time    3.2503: real time    3.2537
    EDDIAG:  cpu time    3.8542: real time    3.8633
  RMM-DIIS:  cpu time   13.6403: real time   13.6872
    ORTHCH:  cpu time    1.1807: real time    1.1839
       DOS:  cpu time    0.0010: real time    0.0010
    CHARGE:  cpu time    1.3749: real time    1.3770
    MIXING:  cpu time    0.0007: real time    0.0007
    --------------------------------------------
      LOOP:  cpu time   23.5086: real time   23.5735

 eigenvalue-minimisations  : 17785
 total energy-change (2. order) : 0.7550167E+02  (-0.1910974E+02)
 number of electron     672.0000048 magnetization      48.0000037
 augmentation part      246.5913904 magnetization      32.1791344

 Broyden mixing:
  rms(total) = 0.52574E+01    rms(broyden)= 0.52530E+01
  rms(prec ) = 0.56813E+01
  weight for this iteration     100.00

 eigenvalues of (default mixing * dielectric matrix)
  average eigenvalue GAMMA=   0.7304
  1.1031  0.3577

 Free energy of the ion-electron system (eV)
  ---------------------------------------------------
  alpha Z        PSCENC =      2652.81237852
  Ewald energy   TEWEN  =    -41845.89303194
  -Hartree energ DENC   =    -25711.91356636
  -exchange      EXHF   =         0.00000000
  -V(xc)+E(xc)   XCENC  =      3674.05428268
  PAW double counting   =     63339.05318606   -66821.83041054
  entropy T*S    EENTRO =        -0.00000000
  eigenvalues    EBANDS =    -10062.68775071
  atomic energy  EATOM  =     73862.19814772
  Solvation  Ediel_sol  =         0.00000000
  ---------------------------------------------------
  free energy    TOTEN  =      -914.20676457 eV

  energy without entropy =     -914.20676457  energy(sigma->0) =     -914.20676457


--------------------------------------------------------------------------------------------------------




--------------------------------------- Iteration      1(  15)  ---------------------------------------


    POTLOK:  cpu time    0.1991: real time    0.2003
    SETDIJ:  cpu time    3.2824: real time    3.2856
    EDDIAG:  cpu time    3.8305: real time    3.8389
  RMM-DIIS:  cpu time   13.5172: real time   13.5535
    ORTHCH:  cpu time    1.1823: real time    1.1866
       DOS:  cpu time    0.0011: real time    0.0011
    CHARGE:  cpu time    1.3761: real time    1.3807
    MIXING:  cpu time    0.0007: real time    0.0007
    --------------------------------------------
      LOOP:  cpu time   23.3893: real time   23.4475

 eigenvalue-minimisations  : 18400
 total energy-change (2. order) : 0.1379624E+02  (-0.2071637E+01)
 number of electron     672.0000054 magnetization      48.0000050
 augmentation part      249.6953924 magnetization      33.8073524

 Broyden mixing:
  rms(total) = 0.21083E+01    rms(broyden)= 0.21080E+01
  rms(prec ) = 0.21904E+01
  weight for this iteration     100.00

 eigenvalues of (default mixing * dielectric matrix)
  average eigenvalue GAMMA=   0.9611
  0.3822  0.7632  1.7378

 Free energy of the ion-electron system (eV)
  ---------------------------------------------------
  alpha Z        PSCENC =      2652.81237852
  Ewald energy   TEWEN  =    -41845.89303194
  -Hartree energ DENC   =    -25629.58118727
  -exchange      EXHF   =         0.00000000
  -V(xc)+E(xc)   XCENC  =      3706.95889788
  PAW double counting   =     67468.23006843   -70991.77915079
  entropy T*S    EENTRO =        -0.00000000
  eigenvalues    EBANDS =    -10123.35664889
  atomic energy  EATOM  =     73862.19814772
  Solvation  Ediel_sol  =         0.00000000
  ---------------------------------------------------
  free energy    TOTEN  =      -900.41052634 eV

  energy without entropy =     -900.41052634  energy(sigma->0) =     -900.41052634


--------------------------------------------------------------------------------------------------------




--------------------------------------- Iteration      1(  16)  ---------------------------------------


    POTLOK:  cpu time    0.2077: real time    0.2081
    SETDIJ:  cpu time    3.3173: real time    3.3196
    EDDIAG:  cpu time    3.8175: real time    3.8253
  RMM-DIIS:  cpu time   13.1971: real time   13.2247
    ORTHCH:  cpu time    1.1730: real time    1.1763
       DOS:  cpu time    0.0011: real time    0.0011
    CHARGE:  cpu time    1.3768: real time    1.3789
    MIXING:  cpu time    0.0008: real time    0.0008
    --------------------------------------------
      LOOP:  cpu time   23.0911: real time   23.1347

 eigenvalue-minimisations  : 17382
 total energy-change (2. order) :-0.1569027E+01  (-0.7238583E+00)
 number of electron     672.0000057 magnetization      48.0000054
 augmentation part      251.2255848 magnetization      33.8916927

 Broyden mixing:
  rms(total) = 0.13595E+01    rms(broyden)= 0.13589E+01
  rms(prec ) = 0.14555E+01
  weight for this iteration     100.00

 eigenvalues of (default mixing * dielectric matrix)
  average eigenvalue GAMMA=   0.9781
  2.0663  0.9133  0.3886  0.5441

 Free energy of the ion-electron system (eV)
  ---------------------------------------------------
  alpha Z        PSCENC =      2652.81237852
  Ewald energy   TEWEN  =    -41845.89303194
  -Hartree energ DENC   =    -25578.00237325
  -exchange      EXHF   =         0.00000000
  -V(xc)+E(xc)   XCENC  =      3708.02441640
  PAW double counting   =     70425.82954075   -73979.32369851
  entropy T*S    EENTRO =        -0.00000000
  eigenvalues    EBANDS =    -10147.62493270
  atomic energy  EATOM  =     73862.19814772
  Solvation  Ediel_sol  =         0.00000000
  ---------------------------------------------------
  free energy    TOTEN  =      -901.97955301 eV

  energy without entropy =     -901.97955301  energy(sigma->0) =     -901.97955301


--------------------------------------------------------------------------------------------------------




--------------------------------------- Iteration      1(  17)  ---------------------------------------


    POTLOK:  cpu time    0.2162: real time    0.2165
    SETDIJ:  cpu time    3.3199: real time    3.3221
    EDDIAG:  cpu time    3.8925: real time    3.9162
  RMM-DIIS:  cpu time   13.9242: real time   13.9489
    ORTHCH:  cpu time    1.1691: real time    1.1726
       DOS:  cpu time    0.0014: real time    0.0014
    CHARGE:  cpu time    1.3931: real time    1.3952
    MIXING:  cpu time    0.0016: real time    0.0016
    --------------------------------------------
      LOOP:  cpu time   23.9182: real time   23.9746

 eigenvalue-minimisations  : 18730
 total energy-change (2. order) : 0.2074978E+00  (-0.6189506E-01)
 number of electron     672.0000057 magnetization      48.0000057
 augmentation part      251.0862587 magnetization      33.8907951

 Broyden mixing:
  rms(total) = 0.74423E+00    rms(broyden)= 0.74414E+00
  rms(prec ) = 0.83792E+00
  weight for this iteration     100.00

 eigenvalues of (default mixing * dielectric matrix)
  average eigenvalue GAMMA=   1.0096
  2.2351  1.1494  0.3805  0.7088  0.5741

 Free energy of the ion-electron system (eV)
  ---------------------------------------------------
  alpha Z        PSCENC =      2652.81237852
  Ewald energy   TEWEN  =    -41845.89303194
  -Hartree energ DENC   =    -25570.78093146
  -exchange      EXHF   =         0.00000000
  -V(xc)+E(xc)   XCENC  =      3705.00492546
  PAW double counting   =     71226.43431551   -74787.72790868
  entropy T*S    EENTRO =        -0.00000000
  eigenvalues    EBANDS =    -10143.81995033
  atomic energy  EATOM  =     73862.19814772
  Solvation  Ediel_sol  =         0.00000000
  ---------------------------------------------------
  free energy    TOTEN  =      -901.77205521 eV

  energy without entropy =     -901.77205521  energy(sigma->0) =     -901.77205521


--------------------------------------------------------------------------------------------------------




--------------------------------------- Iteration      1(  18)  ---------------------------------------


    POTLOK:  cpu time    0.2048: real time    0.2050
    SETDIJ:  cpu time    3.3017: real time    3.3051
    EDDIAG:  cpu time    3.8169: real time    3.8239
  RMM-DIIS:  cpu time   13.2946: real time   13.3322
    ORTHCH:  cpu time    1.1765: real time    1.1811
       DOS:  cpu time    0.0010: real time    0.0010
    CHARGE:  cpu time    1.3771: real time    1.3790
    MIXING:  cpu time    0.0010: real time    0.0010
    --------------------------------------------
      LOOP:  cpu time   23.1737: real time   23.2284

 eigenvalue-minimisations  : 17337
 total energy-change (2. order) : 0.3755929E+00  (-0.7298436E-01)
 number of electron     672.0000055 magnetization      48.0000058
 augmentation part      250.6084452 magnetization      33.8607007

 Broyden mixing:
  rms(total) = 0.28193E+00    rms(broyden)= 0.28166E+00
  rms(prec ) = 0.29662E+00
  weight for this iteration     100.00

 eigenvalues of (default mixing * dielectric matrix)
  average eigenvalue GAMMA=   1.0181
  2.4634  1.3549  0.8513  0.5908  0.3817  0.4666

 Free energy of the ion-electron system (eV)
  ---------------------------------------------------
[...]
   4      -0.871    -0.709     1.580     0.072     0.446    -0.208
   5      -0.547    -1.012     1.559    -0.022     0.111    -0.495
   6      -0.705    -0.817     1.522     0.007     0.059    -0.518
   7      -0.781    -0.608     1.389     0.090     0.439    -0.242
   8      -0.844    -0.961     1.804     0.092     0.007    -0.051
   9      -0.831    -0.756     1.586    -0.172     0.449     0.346
  10      -0.739    -0.648     1.387     0.141    -0.432     0.227
  11      -0.674    -0.638     1.312     0.064    -0.131     0.084
  12      -0.596    -0.875     1.472     0.114     0.027     0.391
  13      -0.832    -0.620     1.452    -0.100    -0.437    -0.321
  14      -0.527    -0.823     1.350     0.047     0.003     0.503
  15      -0.923    -0.833     1.756     0.050    -0.077    -0.014
  16      -0.862    -1.106     1.968     0.033     0.026     0.018
  17       1.669     1.296    -2.965    -0.110     0.016    -0.036
  18       1.299     1.596    -2.896     0.016     0.136     0.195
  19       1.421     1.461    -2.882    -0.006    -0.098    -0.097
  20       1.517     1.449    -2.966    -0.024    -0.170     0.033
  21       1.319     1.636    -2.956     0.163    -0.035     0.010
  22       1.403     1.487    -2.890    -0.091    -0.139    -0.198
  23       1.521     1.363    -2.884    -0.131     0.037     0.047
  24       1.342     1.492    -2.835     0.183     0.045     0.011
  25      -1.605     1.854    -0.250    -1.640    -1.564     0.651
  26      -1.091    -0.056     1.146    -2.114     0.410     0.033
  27      -0.668    -0.409     1.077    -0.163    -0.946    -0.356
  28      -0.687     1.245    -0.559     0.887     0.831    -0.117
  29      -0.680    -0.391     1.070    -1.145     1.646     0.171
  30      -1.539     0.570     0.970    -1.465     0.668     0.498
  31       0.444    -0.631     0.187     0.883    -0.772     1.046
  32      -1.091     2.376    -1.286     1.372     0.878     0.223
  33      -2.017     0.245     1.772     0.299    -0.088    -0.836
  34      -0.480     1.350    -0.870     1.430    -0.188    -0.391
  35       1.612    -0.987    -0.625     0.449    -0.849    -0.069
  36      -0.631    -0.643     1.274    -0.488     0.931     0.751
  37      -0.712    -0.280     0.993     0.157    -1.274    -0.757
  38      -1.001     0.254     0.747    -0.820    -0.696    -1.407
  39       0.857    -0.553    -0.304    -0.273    -2.265     0.281
  40      -2.492     0.835     1.657     1.113    -0.251    -0.205
  41      -2.478     2.314     0.163    -6.888     0.289    -5.004
  42      -2.154     1.354     0.800     3.252     3.720     3.884
  43       5.732    -6.282     0.550    -0.031    -3.913     0.751
  44      -2.912     2.945    -0.033     5.581    -1.187    -3.791
  45      -0.095     0.996    -0.901    -4.743    -0.561     3.113
  46       4.700    -5.301     0.600    -0.858     4.112    -0.674
  47      -4.093     4.778    -0.686    -5.382     3.288    -4.627
  48       2.898    -5.879     2.981     0.038    -5.962     0.709
  49      -4.403     2.979     1.424     4.052     3.280     3.003
  50       4.628    -5.760     1.132     1.290     5.565    -1.553
  51      -2.405     0.405     2.001    -5.328    -0.381     5.041
  52      -2.894     2.021     0.873     5.689    -3.245    -4.402
  53      -3.709     3.355     0.354    -5.536     3.830    -4.059
  54      -4.550     3.222     1.328     2.704     1.810     4.741
  55       2.797    -5.698     2.900    -0.652    -4.376    -0.941
  56      -4.056     4.457    -0.400     4.860    -3.406    -3.802
  57      -4.408     2.603     1.806    -2.873    -2.893     3.879
  58       7.302    -5.071    -2.231     0.042     4.455     1.007
  59      -3.595     2.184     1.411    -4.054     2.380    -5.017
  60       4.764    -5.502     0.738     1.434    -4.543     0.815
  61      -4.470     3.421     1.049     5.198     0.010     5.502
  62       6.597    -5.759    -0.838     0.050     3.750     0.718
  63      -3.837     2.643     1.194    -4.714    -3.132     3.207
  64      -3.968     2.544     1.424     5.568    -4.354    -3.422
  65      -1.929     2.154    -0.225    -5.876     1.480    -3.723
  66      -1.716     2.711    -0.995     4.990     2.336     3.794
  67       4.553    -4.781     0.228    -0.492    -3.786    -0.893
  68      -2.352     1.098     1.253     4.892    -0.343    -4.656
  69      -3.640     1.762     1.878    -4.145    -1.584     5.319
  70       6.108    -4.605    -1.503     0.260     3.594    -1.631
  71      -4.620     1.671     2.950    -3.848     2.767    -4.540
  72       4.011    -5.158     1.148     3.182    -3.649     0.560
  73      -1.901     2.903    -1.002     7.613     1.984     3.053
  74       5.111    -6.892     1.781     0.421     4.031    -0.821
  75      -3.992     4.636    -0.644    -6.036    -0.854     4.340
  76      -4.581     1.379     3.202     3.342    -2.663    -4.479
  77      -2.462     0.463     1.999    -5.106     0.930    -5.469
  78      -1.368     2.940    -1.572     4.539     2.031     2.830
  79       5.588    -6.996     1.408     2.018    -4.830     1.068
  80      -1.003     1.550    -0.547     5.857    -4.380    -2.929
  81      -3.209     2.487     0.723    -4.430    -2.766     4.466
  82       6.334    -4.958    -1.376    -1.042     4.385     1.774
  83      -4.658     3.658     1.000    -5.628     2.797    -4.710
  84       5.149    -5.745     0.596    -0.534    -4.981    -1.193
  85      -3.912     3.977    -0.065     4.685     2.897     2.441
  86       5.204    -5.956     0.751    -1.911     4.423     1.007
  87      -2.469     2.320     0.149    -4.824    -4.745     2.386
  88      -3.095     0.498     2.597     5.242    -2.802    -5.281
 ---------------------------------------------------------------------


 Total hyperfine coupling parameters after diagonalization (MHz)
 (convention: |A_zz| > |A_xx| > |A_yy|)
 ----------------------------------------------------------------------
  ion      A_xx      A_yy      A_zz     asymmetry (A_yy - A_xx)/ A_zz 
 ----------------------------------------------------------------------
   1       2.526     2.148     4.723      -0.080
   2       1.997     1.685     4.457      -0.070
   3       0.563     0.299     3.152      -0.084
   4       2.104     1.793     4.460      -0.070
   5       1.999     1.448     4.208      -0.131
   6       1.394     1.170     3.731      -0.060
   7       1.576     1.220     3.644      -0.098
   8       0.482     0.263     3.080      -0.071
   9       2.851     2.379     5.175      -0.091
  10       1.740     1.344     3.777      -0.105
  11       1.337     1.193     3.251      -0.045
  12       1.374     0.970     3.476      -0.116
  13       2.162     1.761     4.321      -0.093
  14       1.475     1.058     3.458      -0.121
  15       0.964     0.828     3.533      -0.038
  16      -0.348    -0.095     2.731       0.092
  17      14.356    10.125    14.789      -0.286
  18      14.425    10.214    14.729      -0.286
  19      14.843    10.533    14.883      -0.290
  20      14.776    10.361    14.866      -0.297
  21      14.098     9.891    14.552      -0.289
  22      14.306    10.045    14.497      -0.294
  23      14.253    10.079    14.558      -0.287
  24      12.880     8.825    13.276      -0.305
  25      97.106    94.333   100.194      -0.028
  26      98.686    94.828    99.309      -0.039
  27     100.934   100.073   102.795      -0.008
  28      95.098    93.408    96.668      -0.017
  29     100.382    97.955   102.390      -0.024
  30      95.530    91.958    95.841      -0.037
  31      98.956    96.213    99.232      -0.028
  32      95.418    93.900    99.032      -0.015
  33      98.949    96.988   101.195      -0.019
  34      91.809    91.473    94.932      -0.004
  35      90.178    89.968    93.021      -0.002
  36      96.686    95.225    98.613      -0.015
  37      95.366    94.408    97.773      -0.010
  38      96.978    94.826    98.796      -0.022
  39      94.193    92.727    97.451      -0.015
  40     101.242    97.350   101.970      -0.038
  41       7.791     0.394    18.019      -0.411
  42       4.992     2.943    15.192      -0.135
  43       6.613     1.699    15.922      -0.309
  44       5.166     0.404    15.013      -0.317
  45       4.516     0.583    11.964      -0.329
  46       5.807     2.349    15.086      -0.229
  47       4.007     0.445    17.528      -0.203
  48       2.837    -0.222    14.683      -0.208
  49       8.692     2.918    17.164      -0.336
  50       9.830     4.918    20.445      -0.240
  51       8.593     1.506    16.843      -0.421
  52       3.432    -0.567    15.385      -0.260
  53       7.140     2.496    19.202      -0.242
  54       3.313     0.418    13.790      -0.210
  55       5.173     0.431    13.644      -0.348
  56       6.281     1.917    17.863      -0.244
  57       5.973     1.846    15.154      -0.272
  58       6.868     4.725    19.404      -0.110
  59       4.567     1.757    16.023      -0.175
  60       5.114     0.684    14.545      -0.305
  61       7.547     0.939    17.965      -0.368
  62       5.767     2.164    16.216      -0.222
  63       7.244     1.999    16.497      -0.318
  64       5.764    -0.519    16.471      -0.381
  65       6.381     1.948    16.396      -0.270
  66       3.788     1.984    15.082      -0.120
  67       5.280     1.808    13.670      -0.254
  68       6.651     0.622    14.698      -0.410
  69       4.113     0.345    15.000      -0.251
  70       4.868     1.232    14.372      -0.253
  71       3.943    -0.514    14.504      -0.307
  72       7.147     1.020    14.529      -0.422
  73       9.241     3.980    21.187      -0.248
  74       6.277     0.025    14.863      -0.421
  75       6.958     1.753    18.653      -0.279
  76       3.973    -0.066    14.301      -0.282
  77       5.959    -0.097    15.518      -0.390
  78       2.125     0.783    12.240      -0.110
  79       7.399     0.760    17.337      -0.383
  80       4.723     0.957    16.298      -0.231
  81       4.211     1.374    15.487      -0.183
  82       3.085    -1.307    13.370      -0.329
  83       5.468     0.298    17.685      -0.292
  84       2.289    -1.781    12.781      -0.318
  85       6.120     0.731    14.992      -0.359
  86       5.719     0.217    14.995      -0.367
  87       3.312    -2.388    12.601      -0.452
  88       6.616     2.160    18.517      -0.241
 ---------------------------------------------------------------------



--------------------------------------------------------------------------------------------------------


 stress matrix after NEB project (eV)
    -42.38091     -1.22064     -2.71695
     -1.20348    -43.42422      6.12672
     -2.64423      6.16188    -58.15920
  FORCES: max atom, RMS     2.760661    1.227111
  FORCE total and by dimension   11.511318    2.317121
  Stress total and by dimension   84.599736   58.159204
     LOOP+:  cpu time  636.7198: real time  638.1981
    4ORBIT:  cpu time    0.0000: real time    0.0000
 


 total charge     
 
# of ion       s       p       d       tot
------------------------------------------
    1        0.056   5.999   0.000   6.054
    2        0.058   6.003   0.000   6.060
    3        0.051   5.996   0.000   6.047
    4        0.051   5.994   0.000   6.046
    5        0.049   5.992   0.000   6.042
    6        0.044   5.986   0.000   6.031
    7        0.054   5.997   0.000   6.052
    8        0.049   5.993   0.000   6.043
    9        0.058   6.002   0.000   6.060
   10        0.049   5.991   0.000   6.040
   11        0.054   5.998   0.000   6.053
   12        0.048   5.991   0.000   6.039
   13        0.052   5.994   0.000   6.047
   14        0.048   5.990   0.000   6.038
   15        0.050   5.994   0.000   6.043
   16        0.046   5.990   0.000   6.036
   17        0.159   6.143   0.095   6.397
   18        0.146   6.124   0.081   6.352
   19        0.146   6.123   0.080   6.349
   20        0.152   6.133   0.088   6.373
   21        0.150   6.130   0.085   6.366
   22        0.149   6.127   0.083   6.358
   23        0.147   6.124   0.081   6.352
   24        0.145   6.122   0.079   6.346
   25        0.365   6.428   4.812  11.606
   26        0.373   6.450   4.825  11.648
   27        0.378   6.463   4.846  11.687
   28        0.367   6.438   4.811  11.616
   29        0.370   6.445   4.819  11.634
   30        0.376   6.461   4.828  11.666
   31        0.382   6.468   4.853  11.703
   32        0.372   6.432   4.835  11.639
   33        0.372   6.448   4.823  11.643
   34        0.375   6.457   4.836  11.668
   35        0.384   6.469   4.845  11.698
   36        0.376   6.454   4.834  11.664
   37        0.389   6.484   4.863  11.736
   38        0.386   6.479   4.859  11.725
   39        0.376   6.456   4.837  11.669
   40        0.379   6.465   4.837  11.682
   41        1.601   3.486   0.000   5.087
   42        1.599   3.503   0.000   5.102
   43        1.601   3.508   0.000   5.108
   44        1.599   3.527   0.000   5.125
   45        1.596   3.500   0.000   5.096
   46        1.596   3.500   0.000   5.096
   47        1.601   3.511   0.000   5.112
   48        1.598   3.488   0.000   5.087
   49        1.599   3.504   0.000   5.103
   50        1.603   3.481   0.000   5.084
   51        1.599   3.538   0.000   5.137
   52        1.602   3.496   0.000   5.098
   53        1.601   3.507   0.000   5.108
   54        1.596   3.496   0.000   5.093
   55        1.596   3.523   0.000   5.120
   56        1.602   3.524   0.000   5.125
   57        1.599   3.534   0.000   5.134
   58        1.604   3.472   0.000   5.076
   59        1.598   3.515   0.000   5.112
   60        1.598   3.521   0.000   5.119
   61        1.602   3.491   0.000   5.093
   62        1.598   3.486   0.000   5.084
   63        1.599   3.541   0.000   5.140
   64        1.599   3.517   0.000   5.117
   65        1.600   3.517   0.000   5.117
   66        1.600   3.515   0.000   5.115
   67        1.597   3.515   0.000   5.111
   68        1.595   3.503   0.000   5.098
   69        1.601   3.534   0.000   5.135
   70        1.600   3.502   0.000   5.102
   71        1.599   3.514   0.000   5.113
   72        1.597   3.492   0.000   5.090
   73        1.604   3.510   0.000   5.114
   74        1.599   3.505   0.000   5.104
   75        1.599   3.490   0.000   5.089
   76        1.598   3.509   0.000   5.108
   77        1.599   3.535   0.000   5.134
   78        1.597   3.493   0.000   5.091
   79        1.602   3.502   0.000   5.105
   80        1.599   3.488   0.000   5.088
   81        1.600   3.500   0.000   5.100
   82        1.596   3.450   0.000   5.046
   83        1.602   3.526   0.000   5.129
   84        1.598   3.483   0.000   5.081
   85        1.599   3.509   0.000   5.109
   86        1.599   3.494   0.000   5.093
   87        1.599   3.470   0.000   5.069
   88        1.603   3.519   0.000   5.122
--------------------------------------------------
tot         84.805 416.484  78.037 579.326
 


 magnetization (x)
 
# of ion       s       p       d       tot
------------------------------------------
    1        0.002   0.001   0.000   0.003
    2        0.002  -0.000   0.000   0.002
    3        0.001   0.000   0.000   0.001
    4        0.002   0.000   0.000   0.002
    5        0.002   0.000   0.000   0.002
    6        0.002  -0.000   0.000   0.002
    7        0.001   0.000   0.000   0.002
    8        0.001   0.000   0.000   0.001
    9        0.002   0.000   0.000   0.003
   10        0.002   0.000   0.000   0.002
   11        0.001   0.001   0.000   0.002
   12        0.001   0.000   0.000   0.002
   13        0.002   0.000   0.000   0.002
   14        0.002   0.000   0.000   0.002
   15        0.001   0.001   0.000   0.002
   16        0.001   0.000   0.000   0.001
   17        0.007   0.003   0.001   0.011
   18        0.008   0.003   0.002   0.012
   19        0.007   0.003   0.001   0.011
   20        0.007   0.002   0.001   0.011
   21        0.007   0.002   0.001   0.010
   22        0.007   0.002   0.001   0.011
   23        0.007   0.002   0.001   0.011
   24        0.007   0.002   0.001   0.010
   25        0.015   0.029   2.780   2.824
   26        0.016   0.030   2.759   2.804
   27        0.017   0.031   2.754   2.801
   28        0.015   0.029   2.774   2.818
   29        0.016   0.030   2.785   2.831
   30        0.015   0.029   2.750   2.794
   31        0.016   0.030   2.743   2.788
   32        0.015   0.028   2.755   2.797
   33        0.016   0.031   2.765   2.812
   34        0.015   0.031   2.735   2.780
   35        0.014   0.029   2.731   2.773
   36        0.015   0.030   2.752   2.797
   37        0.015   0.031   2.731   2.777
   38        0.016   0.031   2.722   2.769
   39        0.015   0.030   2.741   2.786
   40        0.017   0.032   2.755   2.803
   41        0.002   0.036   0.000   0.038
   42        0.002   0.032   0.000   0.034
   43        0.002   0.029   0.000   0.032
   44        0.002   0.037   0.000   0.039
   45        0.002   0.019   0.000   0.021
   46        0.002   0.030   0.000   0.032
   47        0.002   0.039   0.000   0.041
   48        0.002   0.017   0.000   0.019
   49        0.002   0.050   0.000   0.052
   50        0.003   0.060   0.000   0.063
   51        0.002   0.056   0.000   0.058
   52        0.002   0.029   0.000   0.031
   53        0.002   0.056   0.000   0.058
   54        0.002   0.014   0.000   0.015
   55        0.002   0.036   0.000   0.037
   56        0.002   0.043   0.000   0.045
   57        0.002   0.034   0.000   0.036
   58        0.003   0.035   0.000   0.038
   59        0.002   0.035   0.000   0.037
   60        0.002   0.029   0.000   0.031
   61        0.002   0.038   0.000   0.041
   62        0.002   0.036   0.000   0.039
   63        0.002   0.047   0.000   0.049
   64        0.002   0.035   0.000   0.037
   65        0.002   0.042   0.000   0.045
   66        0.002   0.028   0.000   0.030
   67        0.002   0.022   0.000   0.024
   68        0.002   0.034   0.000   0.036
   69        0.002   0.030   0.000   0.032
   70        0.002   0.021   0.000   0.023
   71        0.002   0.020   0.000   0.022
   72        0.002   0.037   0.000   0.039
   73        0.003   0.062   0.000   0.065
   74        0.002   0.042   0.000   0.044
   75        0.002   0.048   0.000   0.050
   76        0.002   0.019   0.000   0.021
   77        0.002   0.040   0.000   0.042
   78        0.002   0.009   0.000   0.011
   79        0.002   0.036   0.000   0.039
   80        0.002   0.034   0.000   0.036
   81        0.002   0.025   0.000   0.027
   82        0.002   0.006   0.000   0.007
   83        0.002   0.045   0.000   0.047
   84        0.001   0.002   0.000   0.004
   85        0.002   0.034   0.000   0.036
   86        0.002   0.025   0.000   0.027
   87        0.001   0.010   0.000   0.011
   88        0.002   0.050   0.000   0.052
--------------------------------------------------
tot          0.424   2.099  44.040  46.563
 

 total amount of memory used by VASP MPI-rank0    88181. kBytes
=======================================================================

   base      :      30000. kBytes
   nonlr-proj:      13672. kBytes
   fftplans  :        992. kBytes
   grid      :      21513. kBytes
   one-center:       2737. kBytes
   wavefun   :      19267. kBytes
 
  
  
 General timing and accounting informations for this job:
 ========================================================
  
                  Total CPU time used (sec):      655.904
                            User time (sec):      650.151
                          System time (sec):        5.753
                         Elapsed time (sec):      660.218
  
                   Maximum memory used (kb):      181668.
                   Average memory used (kb):           0.
  
                          Minor page faults:       328732
                          Major page faults:            0
                 Voluntary context switches:         3691
