 vasp.5.4.4.18Apr17-6-g9f103f2a35 (build Dec 02 2020 12:53:39) complex          
  
 executed on             LinuxIFC date 2021.08.03  22:34:43
 running on  112 total cores
 distrk:  each k-point on  112 cores,    1 groups
 distr:  one band on NCORES_PER_BAND=   1 cores,  112 groups


--------------------------------------------------------------------------------------------------------


 INCAR:
 POTCAR:    PAW_PBE Na_pv 19Sep2006               
 POTCAR:    PAW_PBE Mg_pv 13Apr2007               
 POTCAR:    PAW_PBE Mn_pv 02Aug2007               
 POTCAR:    PAW_PBE O 08Apr2002                   

 ----------------------------------------------------------------------------- 
|                                                                             |
|           W    W    AA    RRRRR   N    N  II  N    N   GGGG   !!!           |
|           W    W   A  A   R    R  NN   N  II  NN   N  G    G  !!!           |
|           W    W  A    A  R    R  N N  N  II  N N  N  G       !!!           |
|           W WW W  AAAAAA  RRRRR   N  N N  II  N  N N  G  GGG   !            |
|           WW  WW  A    A  R   R   N   NN  II  N   NN  G    G                |
|           W    W  A    A  R    R  N    N  II  N    N   GGGG   !!!           |
|                                                                             |
|      For optimal performance we recommend to set                            |
|        NCORE= 4 - approx SQRT( number of cores)                             |
|      NCORE specifies how many cores store one orbital (NPAR=cpu/NCORE).     |
|      This setting can  greatly improve the performance of VASP for DFT.     |
|      The default,   NCORE=1            might be grossly inefficient         |
|      on modern multi-core architectures or massively parallel machines.     |
|      Do your own testing !!!!                                               |
|      Unfortunately you need to use the default for GW and RPA calculations. |
|      (for HF NCORE is supported but not extensively tested yet)             |
|                                                                             |
 ----------------------------------------------------------------------------- 

 POTCAR:    PAW_PBE Na_pv 19Sep2006               
   VRHFIN =Na: p6s1                                                             
   LEXCH  = PE                                                                  
   EATOM  =   766.0439 eV,   56.3026 Ry                                         
                                                                                
   TITEL  = PAW_PBE Na_pv 19Sep2006                                             
   LULTRA =        F    use ultrasoft PP ?                                      
   IUNSCR =        1    unscreen: 0-lin 1-nonlin 2-no                           
   RPACOR =    1.800    partial core radius                                     
   POMASS =   22.990; ZVAL   =    7.000    mass and valenz                      
   RCORE  =    2.200    outmost cutoff radius                                   
   RWIGS  =    2.200; RWIGS  =    1.164    wigner-seitz radius (au A)           
   ENMAX  =  259.561; ENMIN  =  194.671 eV                                      
   ICORE  =        2    local potential                                         
   LCOR   =        T    correct aug charges                                     
   LPAW   =        T    paw PP                                                  
   EAUG   =  368.056                                                            
   DEXC   =    0.000                                                            
   RMAX   =    2.245    core radius for proj-oper                               
   RAUG   =    1.300    factor for augmentation sphere                          
   RDEP   =    2.259    radius for radial grids                                 
   RDEPT  =    1.738    core radius for aug-charge                              
                                                                                
   Atomic configuration                                                         
    5 entries                                                                   
     n  l   j            E        occ.                                          
     1  0  0.50     -1033.6933   2.0000                                         
     2  0  0.50       -56.7526   2.0000                                         
     2  1  1.50       -28.6721   6.0000                                         
     3  0  0.50        -2.7440   1.0000                                         
     3  2  1.50        -1.3606   0.0000                                         
   Description                                                                  
     l       E           TYP  RCUT    TYP  RCUT                                 
     1    -28.6720912     23  2.000                                             
     1      6.8029130     23  2.000                                             
     0     -2.7439560     23  2.200                                             
     0     34.0145650     23  2.200                                             
     2     -1.3605826     23  2.200                                             
  local pseudopotential read in
  partial core-charges read in
  partial kinetic energy density read in
  atomic valenz-charges read in
  non local Contribution for L=           1  read in
    real space projection operators read in
  non local Contribution for L=           1  read in
    real space projection operators read in
  non local Contribution for L=           0  read in
    real space projection operators read in
  non local Contribution for L=           0  read in
    real space projection operators read in
    PAW grid and wavefunctions read in
 
   number of l-projection  operators is LMAX  =           4
   number of lm-projection operators is LMMAX =           8
 
 POTCAR:    PAW_PBE Mg_pv 13Apr2007               
   VRHFIN =Mg: p6s2                                                             
   LEXCH  = PE                                                                  
   EATOM  =  1056.7344 eV,   77.6678 Ry                                         
                                                                                
   TITEL  = PAW_PBE Mg_pv 13Apr2007                                             
   LULTRA =        F    use ultrasoft PP ?                                      
   IUNSCR =        1    unscreen: 0-lin 1-nonlin 2-no                           
   RPACOR =    1.500    partial core radius                                     
   POMASS =   24.305; ZVAL   =    8.000    mass and valenz                      
   RCORE  =    2.000    outmost cutoff radius                                   
   RWIGS  =    2.000; RWIGS  =    1.058    wigner-seitz radius (au A)           
   ENMAX  =  403.929; ENMIN  =  302.947 eV                                      
   RCLOC  =    1.506    cutoff for local pot                                    
   LCOR   =        T    correct aug charges                                     
   LPAW   =        T    paw PP                                                  
   EAUG   =  758.780                                                            
   DEXC   =    0.000                                                            
   RMAX   =    2.045    core radius for proj-oper                               
   RAUG   =    1.300    factor for augmentation sphere                          
   RDEP   =    2.025    radius for radial grids                                 
   RDEPT  =    1.557    core radius for aug-charge                              
                                                                                
   Atomic configuration                                                         
    5 entries                                                                   
     n  l   j            E        occ.                                          
     1  0  0.50     -1259.6230   2.0000                                         
     2  0  0.50       -79.8442   2.0000                                         
     2  1  1.50       -46.6121   6.0000                                         
     3  0  0.50        -4.7055   2.0000                                         
     3  2  1.50        -1.3606   0.0000                                         
   Description                                                                  
     l       E           TYP  RCUT    TYP  RCUT                                 
     1    -46.6121073     23  1.600                                             
     1      2.7211652     23  1.600                                             
     0     -4.7054661     23  2.000                                             
     0     61.2262170     23  2.000                                             
     2     -1.3605826     23  2.000                                             
  local pseudopotential read in
  partial core-charges read in
  partial kinetic energy density read in
  atomic valenz-charges read in
  non local Contribution for L=           1  read in
    real space projection operators read in
  non local Contribution for L=           1  read in
    real space projection operators read in
  non local Contribution for L=           0  read in
    real space projection operators read in
  non local Contribution for L=           0  read in
    real space projection operators read in
  non local Contribution for L=           2  read in
    real space projection operators read in
    PAW grid and wavefunctions read in
 
   number of l-projection  operators is LMAX  =           5
   number of lm-projection operators is LMMAX =          13
 
 POTCAR:    PAW_PBE Mn_pv 02Aug2007               
   VRHFIN =Mn: 3p4s3d                                                           
   LEXCH  = PE                                                                  
   EATOM  =  2025.2664 eV,  148.8529 Ry                                         
                                                                                
   TITEL  = PAW_PBE Mn_pv 02Aug2007                                             
   LULTRA =        F    use ultrasoft PP ?                                      
   IUNSCR =        1    unscreen: 0-lin 1-nonlin 2-no                           
   RPACOR =    2.080    partial core radius                                     
   POMASS =   54.938; ZVAL   =   13.000    mass and valenz                      
   RCORE  =    2.300    outmost cutoff radius                                   
   RWIGS  =    2.500; RWIGS  =    1.323    wigner-seitz radius (au A)           
   ENMAX  =  269.864; ENMIN  =  202.398 eV                                      
   ICORE  =        3    local potential                                         
   LCOR   =        T    correct aug charges                                     
   LPAW   =        T    paw PP                                                  
   EAUG   =  569.085                                                            
   DEXC   =    0.000                                                            
   RMAX   =    2.343    core radius for proj-oper                               
   RAUG   =    1.300    factor for augmentation sphere                          
   RDEP   =    2.338    radius for radial grids                                 
   RDEPT  =    1.798    core radius for aug-charge                              
                                                                                
   Atomic configuration                                                         
    8 entries                                                                   
     n  l   j            E        occ.                                          
     1  0  0.50     -6424.8287   2.0000                                         
     2  0  0.50      -739.1154   2.0000                                         
     2  1  1.50      -625.3949   6.0000                                         
     3  0  0.50       -81.6100   2.0000                                         
     3  1  1.50       -50.4667   6.0000                                         
     3  2  2.50        -3.3745   6.0000                                         
     4  0  0.50        -4.1331   1.0000                                         
     4  3  2.50        -1.3606   0.0000                                         
   Description                                                                  
     l       E           TYP  RCUT    TYP  RCUT                                 
     1    -50.4666628     23  2.000                                             
     1     -1.3605826     23  2.000                                             
     2     -3.3744729     23  2.300                                             
     2     -4.7350555     23  2.300                                             
     0     -4.1331431     23  2.300                                             
     0      7.6656591     23  2.300                                             
     3      9.5240782     23  2.300                                             
  local pseudopotential read in
  partial core-charges read in
  partial kinetic energy density read in
  atomic valenz-charges read in
  non local Contribution for L=           1  read in
    real space projection operators read in
  non local Contribution for L=           1  read in
    real space projection operators read in
  non local Contribution for L=           2  read in
    real space projection operators read in
  non local Contribution for L=           2  read in
    real space projection operators read in
  non local Contribution for L=           0  read in
    real space projection operators read in
  non local Contribution for L=           0  read in
    real space projection operators read in
    PAW grid and wavefunctions read in
 
   number of l-projection  operators is LMAX  =           6
   number of lm-projection operators is LMMAX =          18
 
 POTCAR:    PAW_PBE O 08Apr2002                   
   VRHFIN =O: s2p4                                                              
   LEXCH  = PE                                                                  
   EATOM  =   432.3788 eV,   31.7789 Ry                                         
                                                                                
   TITEL  = PAW_PBE O 08Apr2002                                                 
   LULTRA =        F    use ultrasoft PP ?                                      
   IUNSCR =        1    unscreen: 0-lin 1-nonlin 2-no                           
   RPACOR =    1.200    partial core radius                                     
   POMASS =   16.000; ZVAL   =    6.000    mass and valenz                      
   RCORE  =    1.520    outmost cutoff radius                                   
   RWIGS  =    1.550; RWIGS  =    0.820    wigner-seitz radius (au A)           
   ENMAX  =  400.000; ENMIN  =  300.000 eV                                      
   ICORE  =        2    local potential                                         
   LCOR   =        T    correct aug charges                                     
   LPAW   =        T    paw PP                                                  
   EAUG   =  605.392                                                            
   DEXC   =    0.000                                                            
   RMAX   =    1.553    core radius for proj-oper                               
   RAUG   =    1.300    factor for augmentation sphere                          
   RDEP   =    1.550    radius for radial grids                                 
   RDEPT  =    1.329    core radius for aug-charge                              
                                                                                
   Atomic configuration                                                         
    4 entries                                                                   
     n  l   j            E        occ.                                          
     1  0  0.50      -514.6923   2.0000                                         
     2  0  0.50       -23.9615   2.0000                                         
     2  1  0.50        -9.0305   4.0000                                         
     3  2  1.50        -9.5241   0.0000                                         
   Description                                                                  
     l       E           TYP  RCUT    TYP  RCUT                                 
     0    -23.9615318     23  1.200                                             
     0     -9.5240782     23  1.200                                             
     1     -9.0304911     23  1.520                                             
     1      8.1634956     23  1.520                                             
     2     -9.5240782      7  1.500                                             
  local pseudopotential read in
  partial core-charges read in
  partial kinetic energy density read in
  kinetic energy density of atom read in
  atomic valenz-charges read in
  non local Contribution for L=           0  read in
    real space projection operators read in
  non local Contribution for L=           0  read in
    real space projection operators read in
  non local Contribution for L=           1  read in
    real space projection operators read in
  non local Contribution for L=           1  read in
    real space projection operators read in
    PAW grid and wavefunctions read in
 
   number of l-projection  operators is LMAX  =           4
   number of lm-projection operators is LMMAX =           8
 
 Optimization of the real space projectors (new method)

 maximal supplied QI-value         = 17.01
 optimisation between [QCUT,QGAM] = [ 10.20, 20.41] = [ 29.16,116.64] Ry 
 Optimized for a Real-space Cutoff    1.30 Angstroem

   l    n(q)    QCUT    max X(q) W(low)/X(q) W(high)/X(q)  e(spline) 
   1      7    10.205     4.940    0.23E-03    0.84E-03    0.11E-06
   1      7    10.205     6.253    0.40E-03    0.13E-02    0.18E-06
   0      8    10.205    37.438    0.23E-03    0.37E-03    0.42E-07
   0      8    10.205     9.606    0.16E-03    0.26E-03    0.31E-07
 Optimization of the real space projectors (new method)

 maximal supplied QI-value         = 18.90
 optimisation between [QCUT,QGAM] = [ 10.20, 20.41] = [ 29.16,116.64] Ry 
 Optimized for a Real-space Cutoff    1.26 Angstroem

   l    n(q)    QCUT    max X(q) W(low)/X(q) W(high)/X(q)  e(spline) 
   1      7    10.205     2.974    0.63E-04    0.14E-03    0.13E-06
   1      7    10.205     4.279    0.11E-03    0.45E-03    0.24E-06
   0      8    10.205    16.381    0.44E-03    0.15E-03    0.55E-07
   0      8    10.205     5.611    0.31E-03    0.11E-03    0.40E-07
   2      7    10.205     4.652    0.50E-03    0.47E-03    0.57E-07
 Optimization of the real space projectors (new method)

 maximal supplied QI-value         = 16.25
 optimisation between [QCUT,QGAM] = [ 10.24, 20.48] = [ 29.35,117.42] Ry 
 Optimized for a Real-space Cutoff    1.34 Angstroem

   l    n(q)    QCUT    max X(q) W(low)/X(q) W(high)/X(q)  e(spline) 
   1      8    10.239     3.658    0.23E-03    0.30E-03    0.98E-07
   1      8    10.239     5.612    0.32E-03    0.65E-03    0.21E-06
   2      7    10.239    55.373    0.42E-03    0.45E-03    0.65E-07
   2      7    10.239    50.863    0.43E-03    0.48E-03    0.67E-07
   0      8    10.239    79.536    0.11E-03    0.21E-03    0.56E-07
   0      8    10.239    38.668    0.96E-04    0.19E-03    0.52E-07
 Optimization of the real space projectors (new method)

 maximal supplied QI-value         = 24.76
 optimisation between [QCUT,QGAM] = [ 10.15, 20.30] = [ 28.85,115.39] Ry 
 Optimized for a Real-space Cutoff    1.38 Angstroem

   l    n(q)    QCUT    max X(q) W(low)/X(q) W(high)/X(q)  e(spline) 
   0      8    10.150    20.381    0.22E-03    0.32E-03    0.29E-06
   0      8    10.150    15.268    0.23E-03    0.35E-03    0.30E-06
   1      8    10.150     5.964    0.46E-03    0.53E-03    0.21E-06
   1      8    10.150     5.382    0.38E-03    0.45E-03    0.19E-06
  PAW_PBE Na_pv 19Sep2006               :
 energy of atom  1       EATOM= -766.0439
 kinetic energy error for atom=    0.0103 (will be added to EATOM!!)
  PAW_PBE Mg_pv 13Apr2007               :
 energy of atom  2       EATOM=-1056.7344
 kinetic energy error for atom=    0.0820 (will be added to EATOM!!)
  PAW_PBE Mn_pv 02Aug2007               :
 energy of atom  3       EATOM=-2025.2664
 kinetic energy error for atom=    0.0284 (will be added to EATOM!!)
  PAW_PBE O 08Apr2002                   :
 energy of atom  4       EATOM= -432.3788
 kinetic energy error for atom=    0.1156 (will be added to EATOM!!)
 
 
 POSCAR: Na Mg Mn  O                             
  positions in cartesian coordinates
  No initial velocities read in

 METAGGA = SCAN     LMAXTAU =  6    LMIXTAU =  F

 exchange correlation table for  LEXCH =        8
   RHO(1)=    0.500       N(1)  =     2000
   RHO(2)=  100.500       N(2)  =     4000

 VTST: version 3.2, (02/03/18)

 CHAIN: initializing optimizer
 
 OPT: Using VASP Dynamics algorithm
 CHAIN: Read ICHAIN            0
 
 POSCAR: Na Mg Mn  O                             
  positions in cartesian coordinates
  No initial velocities read in
 


--------------------------------------------------------------------------------------------------------


 ion  position               nearest neighbor table
   1  0.723  0.610  0.257-  74 2.23  52 2.33
   2  0.079  0.604  0.755-  70 2.33  83 2.33  73 2.34  37 2.77  39 2.91
   3  0.045  0.911  0.753-  72 2.20  73 2.36
   4  0.250  0.291  0.749-  48 2.29  45 2.34
   5  0.106  0.823  0.245-  67 2.20  76 2.29  86 2.33
   6  0.877  0.424  0.267-  62 2.13  75 2.21
   7  0.747  0.305  0.764-  60 2.19  59 2.36  46 2.36  49 2.36
   8  0.404  0.079  0.750-  84 2.28  81 2.31
   9  0.414  0.293  0.265-  50 2.32  52 2.35
  10  0.083  0.265  0.249-
  11  0.556  0.084  0.248-  79 2.25  88 2.31  31 2.79  29 2.86
  12  0.433  0.771  0.732-  82 2.26  85 2.34
  13  0.599  0.609  0.745-  68 2.16  71 2.34  35 2.79  33 2.85
  14  0.885  0.087  0.741-  56 2.29  69 2.35
  15  0.258  0.612  0.241-  77 2.29  78 2.35  55 2.38
  16  0.747  0.928  0.247-  74 2.34  40 2.79
  17  0.748  0.450  0.005-  60 1.97  71 2.02  43 2.05  66 2.06  53 2.09  49 2.21  37 2.77  34 2.78

  18  0.412  0.276  0.513-  45 2.01  50 2.02  52 2.05  46 2.05  51 2.07  44 2.08  28 2.81
  19  0.242  0.427  0.990-  48 1.95  61 1.98  83 2.03  41 2.03  78 2.09  55 2.21  26 2.77  33 2.84

  20  0.906  0.272  0.495-  64 2.01  63 2.07  62 2.09  57 2.10  58 2.13  56 2.13  31 2.85
  21  0.237  0.931  0.000-  42 2.03  77 2.05  84 2.06  47 2.08  73 2.09  67 2.18  37 2.82
  22  0.906  0.768  0.503-  69 1.97  76 2.01  74 2.03  75 2.04  68 2.06  70 2.10  40 2.85
  23  0.740  0.949  0.988-  59 2.00  54 2.03  85 2.03  72 2.08  65 2.09  79 2.12  30 2.80  25 2.80
                            29 2.84
  24  0.407  0.774  0.490-  87 1.98  81 1.98  86 2.07  88 2.07  80 2.10  82 2.17  39 2.85
  25  0.061  0.088  0.004-  67 1.84  72 1.85  61 1.90  47 1.94  54 1.96  41 2.06  34 2.76  23 2.80
                            30 2.97  26 2.99
  26  0.405  0.272  0.999-  49 1.87  43 1.87  41 1.88  42 1.95  48 1.97  47 2.07  19 2.77  29 2.88
                            33 2.93  25 2.99
  27  0.079  0.101  0.489-  76 1.84  58 1.84  50 1.88  63 1.93  44 1.98  69 1.99  36 2.81  40 2.89
                            32 2.93
  28  0.736  0.437  0.514-  68 1.85  57 1.88  52 1.91  46 1.96  62 2.01  75 2.02  18 2.81  31 2.84
                            35 2.88  39 2.98
  29  0.574  0.110  0.993-  42 1.91  59 1.93  79 1.93  49 1.95  53 1.95  84 1.96  23 2.84  30 2.84
                            11 2.86  26 2.88  38 2.97
  30  0.901  0.270  0.011-  53 1.91  54 1.92  61 1.96  59 1.97  55 1.99  60 1.99  23 2.80  29 2.84
                            37 2.92  25 2.97
  31  0.578  0.110  0.496-  46 1.85  62 1.90  81 1.93  56 1.95  51 1.96  88 1.99  11 2.79  28 2.84
                            20 2.85  36 2.92  40 2.96
  32  0.240  0.438  0.503-  45 1.92  80 1.93  87 1.93  58 1.94  64 1.95  50 1.98  39 2.89  35 2.89
                            27 2.93
  33  0.567  0.609  0.998-  78 1.84  71 1.88  85 1.90  43 1.96  65 1.97  48 1.98  38 2.75  19 2.84
                            13 2.85  34 2.86  26 2.93
  34  0.897  0.770  0.007-  65 1.75  71 1.86  67 1.88  72 1.94  66 1.95  73 2.03  25 2.76  17 2.78
                            33 2.86  37 2.90
  35  0.573  0.605  0.497-  82 1.89  52 1.89  87 1.93  74 1.95  45 1.96  68 1.97  13 2.79  28 2.88
                            40 2.88  32 2.89
  36  0.241  0.939  0.505-  51 1.91  44 1.94  76 1.94  81 1.94  86 2.01  70 2.03  27 2.81  39 2.87
                            31 2.92
  37  0.067  0.606  0.002-  66 1.85  77 1.86  73 1.88  60 1.97  83 2.04  55 2.07  17 2.77   2 2.77
                            21 2.82  34 2.90  30 2.92  38 2.97
  38  0.409  0.767  0.997-  78 1.83  85 1.94  77 1.95  83 1.95  84 1.96  79 1.98  33 2.75  29 2.97
                            37 2.97
  39  0.078  0.609  0.496-  70 1.84  86 1.85  64 1.96  80 1.97  75 2.03  57 2.03  24 2.85  36 2.87
                            32 2.89   2 2.91  28 2.98
  40  0.747  0.937  0.495-  69 1.89  82 1.91  88 1.94  63 1.95  74 1.95  56 2.03  16 2.79  22 2.85
                            35 2.88  27 2.89  31 2.96
  41  0.246  0.263  0.094-  26 1.88  19 2.03  25 2.06
  42  0.414  0.109  0.087-  29 1.91  26 1.95  21 2.03
  43  0.558  0.436  0.087-  26 1.87  33 1.96  17 2.05
  44  0.229  0.094  0.601-  36 1.94  27 1.98  18 2.08
  45  0.406  0.451  0.596-  32 1.92  35 1.96  18 2.01   4 2.34
  46  0.581  0.255  0.600-  31 1.85  28 1.96  18 2.05   7 2.36
  47  0.223  0.101  0.902-  25 1.94  26 2.07  21 2.08
  48  0.412  0.437  0.899-  19 1.95  26 1.97  33 1.98   4 2.29
  49  0.554  0.266  0.904-  26 1.87  29 1.95  17 2.21   7 2.36
  50  0.242  0.270  0.412-  27 1.88  32 1.98  18 2.02   9 2.32
  51  0.401  0.098  0.412-  36 1.91  31 1.96  18 2.07
  52  0.586  0.447  0.415-  35 1.89  28 1.91  18 2.05   1 2.33   9 2.35
  53  0.733  0.262  0.098-  30 1.91  29 1.95  17 2.09
  54  0.905  0.106  0.097-  30 1.92  25 1.96  23 2.03
  55  0.069  0.436  0.107-  30 1.99  37 2.07  19 2.21  15 2.38
  56  0.726  0.093  0.597-  31 1.95  40 2.03  20 2.13  14 2.29
  57  0.904  0.447  0.597-  28 1.88  39 2.03  20 2.10
  58  0.085  0.254  0.584-  27 1.84  32 1.94  20 2.13
  59  0.742  0.123  0.900-  29 1.93  30 1.97  23 2.00   7 2.36
  60  0.905  0.434  0.909-  37 1.97  17 1.97  30 1.99   7 2.19
  61  0.057  0.250  0.919-  25 1.90  30 1.96  19 1.98
  62  0.728  0.276  0.403-  31 1.90  28 2.01  20 2.09   6 2.13
  63  0.912  0.097  0.401-  27 1.93  40 1.95  20 2.07
  64  0.082  0.443  0.406-  32 1.95  39 1.96  20 2.01
  65  0.746  0.773  0.083-  34 1.75  33 1.97  23 2.09
  66  0.927  0.622  0.100-  37 1.85  34 1.95  17 2.06
  67  0.050  0.932  0.098-  25 1.84  34 1.88  21 2.18   5 2.20
  68  0.729  0.592  0.597-  28 1.85  35 1.97  22 2.06  13 2.16
  69  0.907  0.941  0.586-  40 1.89  22 1.97  27 1.99  14 2.35
  70  0.080  0.755  0.597-  39 1.84  36 2.03  22 2.10   2 2.33
  71  0.737  0.620  0.917-  34 1.86  33 1.88  17 2.02  13 2.34
  72  0.919  0.936  0.905-  25 1.85  34 1.94  23 2.08   3 2.20
  73  0.055  0.753  0.905-  37 1.88  34 2.03  21 2.09   2 2.34   3 2.36
  74  0.737  0.768  0.403-  40 1.95  35 1.95  22 2.03   1 2.23  16 2.34
  75  0.897  0.593  0.403-  28 2.02  39 2.03  22 2.04   6 2.21
  76  0.080  0.940  0.411-  27 1.84  36 1.94  22 2.01   5 2.29
  77  0.236  0.750  0.088-  37 1.86  38 1.95  21 2.05  15 2.29
  78  0.414  0.615  0.083-  38 1.83  33 1.84  19 2.09  15 2.35
  79  0.562  0.946  0.092-  29 1.93  38 1.98  23 2.12  11 2.25
  80  0.235  0.598  0.595-  32 1.93  39 1.97  24 2.10
  81  0.415  0.945  0.586-  31 1.93  36 1.94  24 1.98   8 2.31
  82  0.593  0.772  0.588-  35 1.89  40 1.91  24 2.17  12 2.26
  83  0.240  0.605  0.906-  38 1.95  19 2.03  37 2.04   2 2.33
  84  0.413  0.935  0.904-  29 1.96  38 1.96  21 2.06   8 2.28
  85  0.569  0.765  0.900-  33 1.90  38 1.94  23 2.03  12 2.34
  86  0.223  0.767  0.402-  39 1.85  36 2.01  24 2.07   5 2.33
  87  0.403  0.597  0.409-  35 1.93  32 1.93  24 1.98
  88  0.591  0.950  0.400-  40 1.94  31 1.99  24 2.07  11 2.31
 
  LATTYP: Found a hexagonal cell.
 ALAT       =    10.0190000534
 C/A-ratio  =     1.1196726572
  
  Lattice vectors:
  
 A1 = (  10.0190000534,   0.0000000000,   0.0000000000)
 A2 = (  -5.0095000267,   8.6767085668,   0.0000000000)
 A3 = (   0.0000000000,   0.0000000000,  11.2180004120)


Analysis of symmetry for initial positions (statically):
=====================================================================
 Subroutine PRICEL returns:
 Original cell was already a primitive cell.
 

 Routine SETGRP: Setting up the symmetry group for a 
 hexagonal supercell.


 Subroutine GETGRP returns: Found  1 space group operations
 (whereof  1 operations were pure point group operations)
 out of a pool of 24 trial point group operations.


The static configuration has the point symmetry C_1 .


Analysis of symmetry for dynamics (positions and initial velocities):
=====================================================================
 Subroutine PRICEL returns:
 Original cell was already a primitive cell.
 

 Routine SETGRP: Setting up the symmetry group for a 
 hexagonal supercell.


 Subroutine GETGRP returns: Found  1 space group operations
 (whereof  1 operations were pure point group operations)
 out of a pool of 24 trial point group operations.


The dynamic configuration has the point symmetry C_1 .


Analysis of structural, dynamic, and magnetic symmetry:
=====================================================================
 Subroutine PRICEL returns:
 Original cell was already a primitive cell.
 

 Routine SETGRP: Setting up the symmetry group for a 
 hexagonal supercell.


 Subroutine GETGRP returns: Found  1 space group operations
 (whereof  1 operations were pure point group operations)
 out of a pool of 24 trial point group operations.


The magnetic configuration has the point symmetry C_1 .


 Subroutine INISYM returns: Found  1 space group operations
 (whereof  1 operations are pure point group operations),
 and found     1 'primitive' translations

 
 

Automatic generation of k-mesh.
 generate k-points for:    2    2    2
Space group operators:
 irot       det(A)        alpha          n_x          n_y          n_z        tau_x        tau_y        tau_z
    1     1.000000     0.000000     1.000000     0.000000     0.000000     0.000000     0.000000     0.000000
 
 Subroutine IBZKPT returns following result:
 ===========================================
 
 Found      8 irreducible k-points:
 
 Following reciprocal coordinates:
            Coordinates               Weight
  0.000000  0.000000  0.000000      1.000000
  0.500000 -0.000000 -0.000000      1.000000
  0.000000  0.500000  0.000000      1.000000
  0.500000  0.500000 -0.000000      1.000000
  0.000000  0.000000  0.500000      1.000000
  0.500000 -0.000000  0.500000      1.000000
  0.000000  0.500000  0.500000      1.000000
  0.500000  0.500000  0.500000      1.000000
 
 Following cartesian coordinates:
            Coordinates               Weight
  0.000000  0.000000  0.000000      1.000000
  0.049905  0.028813 -0.000000      1.000000
  0.000000  0.057626  0.000000      1.000000
  0.049905  0.086438 -0.000000      1.000000
  0.000000  0.000000  0.044571      1.000000
  0.049905  0.028813  0.044571      1.000000
  0.000000  0.057626  0.044571      1.000000
  0.049905  0.086438  0.044571      1.000000
 


--------------------------------------------------------------------------------------------------------




 Dimension of arrays:
   k-points           NKPTS =      8   k-points in BZ     NKDIM =      8   number of bands    NBANDS=    448
   number of dos      NEDOS =    301   number of ions     NIONS =     88
   non local maximal  LDIM  =      6   non local SUM 2l+1 LMDIM =     18
   total plane-waves  NPLWV = 140000
   max r-space proj   IRMAX =   1632   max aug-charges    IRDMAX=   4555
   dimension x,y,z NGX =    50 NGY =   50 NGZ =   56
   dimension x,y,z NGXF=   100 NGYF=  100 NGZF=  112
   support grid    NGXF=   100 NGYF=  100 NGZF=  112
   ions per type =              16   8  16  48
   NGX,Y,Z   is equivalent  to a cutoff of   8.30,  8.30,  8.30 a.u.
   NGXF,Y,Z  is equivalent  to a cutoff of  16.59, 16.59, 16.60 a.u.

 SYSTEM =  unknown system                          
 POSCAR =  Na Mg Mn  O                             

 Startparameter for this run:
   NWRITE =      2    write-flag & timer
   PREC   = normal    normal or accurate (medium, high low for compatibility)
   ISTART =      0    job   : 0-new  1-cont  2-samecut
   ICHARG =      1    charge: 1-file 2-atom 10-const
   ISPIN  =      2    spin polarized calculation?
   LNONCOLLINEAR =      F non collinear calculations
   LSORBIT =      F    spin-orbit coupling
   INIWAV =      1    electr: 0-lowe 1-rand  2-diag
   LASPH  =      T    aspherical Exc in radial PAW
   METAGGA=      F    non-selfconsistent MetaGGA calc.

 Electronic Relaxation 1
   ENCUT  =  400.0 eV  29.40 Ry    5.42 a.u.  16.34 16.34 18.29*2*pi/ulx,y,z
   ENINI  =  400.0     initial cutoff
   ENAUG  =  758.8 eV  augmentation charge cutoff
   NELM   =    200;   NELMIN=  6; NELMDL=-12     # of ELM steps 
   EDIFF  = 0.1E-04   stopping-criterion for ELM
   LREAL  =      T    real-space projection
   NLSPLINE    = F    spline interpolate recip. space projectors
   LCOMPAT=      F    compatible to vasp.4.4
   GGA_COMPAT  = T    GGA compatible to vasp.4.4-vasp.4.6
   LMAXPAW     = -100 max onsite density
   LMAXMIX     =    4 max onsite mixed and CHGCAR
   VOSKOWN=      0    Vosko Wilk Nusair interpolation
   ROPT   =   -0.00050  -0.00050  -0.00050  -0.00050
 Ionic relaxation
   EDIFFG = 0.1E-03   stopping-criterion for IOM
   NSW    =      1    number of steps for IOM
   NBLOCK =      1;   KBLOCK =      1    inner block; outer block 
   IBRION =     -1    ionic relax: 0-MD 1-quasi-New 2-CG
   NFREE  =      0    steps in history (QN), initial steepest desc. (CG)
   ISIF   =      2    stress and relaxation
   IWAVPR =     10    prediction:  0-non 1-charg 2-wave 3-comb
   ISYM   =      2    0-nonsym 1-usesym 2-fastsym
   LCORR  =      T    Harris-Foulkes like correction to forces

   POTIM  = 0.5000    time-step for ionic-motion
   TEIN   =    0.0    initial temperature
   TEBEG  =    0.0;   TEEND  =   0.0 temperature during run
   SMASS  =  -3.00    Nose mass-parameter (am)
   estimated Nose-frequenzy (Omega)   =  0.10E-29 period in steps =****** mass=  -0.229E-26a.u.
   SCALEE = 1.0000    scale energy and forces
   NPACO  =    256;   APACO  = 16.0  distance and # of slots for P.C.
   PSTRESS=    0.0 pullay stress

  Mass of Ions in am
   POMASS =  22.99 24.30 54.94 16.00
  Ionic Valenz
   ZVAL   =   7.00  8.00 13.00  6.00
  Atomic Wigner-Seitz radii
   RWIGS  =  -1.00 -1.00 -1.00 -1.00
  virtual crystal weights 
   VCA    =   1.00  1.00  1.00  1.00
   NELECT =     672.0000    total number of electrons
   NUPDOWN=      48.0000    fix difference up-down

 DOS related values:
   EMIN   =  10.00;   EMAX   =-10.00  energy-range for DOS
   EFERMI =   0.00
   ISMEAR =     0;   SIGMA  =   0.05  broadening in eV -4-tet -1-fermi 0-gaus

 Electronic relaxation 2 (details)
   IALGO  =     48    algorithm
   LDIAG  =      T    sub-space diagonalisation (order eigenvalues)
   LSUBROT=      F    optimize rotation matrix (better conditioning)
   TURBO    =      0    0=normal 1=particle mesh
   IRESTART =      0    0=no restart 2=restart with 2 vectors
   NREBOOT  =      0    no. of reboots
   NMIN     =      0    reboot dimension
   EREF     =   0.00    reference energy to select bands
   IMIX   =      4    mixing-type and parameters
     AMIX     =   0.40;   BMIX     =  1.00
     AMIX_MAG =   1.60;   BMIX_MAG =  1.00
     AMIN     =   0.10
     WC   =   100.;   INIMIX=   1;  MIXPRE=   1;  MAXMIX= -45

 Intra band minimization:
   WEIMIN = 0.0000     energy-eigenvalue tresh-hold
   EBREAK =  0.56E-08  absolut break condition
   DEPER  =   0.30     relativ break condition  

   TIME   =   0.40     timestep for ELM

  volume/ion in A,a.u.               =      11.08        74.78
  Fermi-wavevector in a.u.,A,eV,Ry     =   1.445993  2.732531 28.448379  2.090897
  Thomas-Fermi vector in A             =   2.564112
 
 Write flags
   LWAVE        =      F    write WAVECAR
   LDOWNSAMPLE  =      F    k-point downsampling of WAVECAR
   LCHARG       =      F    write CHGCAR
   LVTOT        =      F    write LOCPOT, total local potential
   LVHAR        =      F    write LOCPOT, Hartree potential only
   LELF         =      F    write electronic localiz. function (ELF)
   LORBIT       =     11    0 simple, 1 ext, 2 COOP (PROOUT), +10 PAW based schemes


 Dipole corrections
   LMONO  =      F    monopole corrections only (constant potential shift)
   LDIPOL =      F    correct potential (dipole corrections)
   IDIPOL =      0    1-x, 2-y, 3-z, 4-all directions 
   EPSILON=  1.0000000 bulk dielectric constant

 Exchange correlation treatment:
   GGA     =    --    GGA type
   LEXCH   =     8    internal setting for exchange type
   VOSKOWN=      0    Vosko Wilk Nusair interpolation
   LHFCALC =     F    Hartree Fock is set to
   LHFONE  =     F    Hartree Fock one center treatment
   AEXX    =    0.0000 exact exchange contribution

 Linear response parameters
   LEPSILON=     F    determine dielectric tensor
   LRPA    =     F    only Hartree local field effects (RPA)
   LNABLA  =     F    use nabla operator in PAW spheres
   LVEL    =     F    velocity operator in full k-point grid
   LINTERFAST=   F  fast interpolation
   KINTER  =     0    interpolate to denser k-point grid
   CSHIFT  =0.1000    complex shift for real part using Kramers Kronig
   OMEGAMAX=  -1.0    maximum frequency
   DEG_THRESHOLD= 0.2000000E-02 threshold for treating states as degnerate
   RTIME   =   -0.100 relaxation time in fs
  (WPLASMAI=    0.000 imaginary part of plasma frequency in eV, 0.658/RTIME)
   DFIELD  = 0.0000000 0.0000000 0.0000000 field for delta impulse in time
 
 Orbital magnetization related:
   ORBITALMAG=     F  switch on orbital magnetization
   LCHIMAG   =     F  perturbation theory with respect to B field
   DQ        =  0.001000  dq finite difference perturbation B field
   LLRAUG    =     F  two centre corrections for induced B field



--------------------------------------------------------------------------------------------------------


 Static calculation
 charge density and potential will be updated during run
 spin polarized calculation
 RMM-DIIS sequential band-by-band
 perform sub-space diagonalisation
    before iterative eigenvector-optimisation
 modified Broyden-mixing scheme, WC =      100.0
 initial mixing is a Kerker type mixing with AMIX =  0.4000 and BMIX =      1.0000
 Hartree-type preconditioning will be used
 using additional bands          112
 real space projection scheme for non local part
 use partial core corrections
 calculate Harris-corrections to forces 
   (improved forces if not selfconsistent)
 use gradient corrections 
 use of overlap-Matrix (Vanderbilt PP)
 Gauss-broadening in eV      SIGMA  =   0.05


--------------------------------------------------------------------------------------------------------


  energy-cutoff  :      400.00
  volume of cell :      975.20
      direct lattice vectors                 reciprocal lattice vectors
    10.019000053  0.000000000  0.000000000     0.099810360  0.057625538 -0.000000000
    -5.009500027  8.676708567  0.000000000     0.000000000  0.115251076  0.000000000
     0.000000000  0.000000000 11.218000412     0.000000000  0.000000000  0.089142446

  length of vectors
    10.019000053 10.019000053 11.218000412     0.115251076  0.115251076  0.089142446


 
 k-points in units of 2pi/SCALE and weight: read from INCAR                         
   0.00000000  0.00000000  0.00000000       0.125
   0.04990518  0.02881277 -0.00000000       0.125
   0.00000000  0.05762554  0.00000000       0.125
   0.04990518  0.08643831 -0.00000000       0.125
   0.00000000  0.00000000  0.04457122       0.125
   0.04990518  0.02881277  0.04457122       0.125
   0.00000000  0.05762554  0.04457122       0.125
   0.04990518  0.08643831  0.04457122       0.125
 
 k-points in reciprocal lattice and weights: read from INCAR                         
   0.00000000  0.00000000  0.00000000       0.125
   0.50000000 -0.00000000 -0.00000000       0.125
   0.00000000  0.50000000  0.00000000       0.125
   0.50000000  0.50000000 -0.00000000       0.125
   0.00000000  0.00000000  0.50000000       0.125
   0.50000000 -0.00000000  0.50000000       0.125
   0.00000000  0.50000000  0.50000000       0.125
   0.50000000  0.50000000  0.50000000       0.125
 
 position of ions in fractional coordinates (direct lattice) 
   0.72283934  0.61016620  0.25747904
   0.07876399  0.60358042  0.75486448
   0.04453298  0.91092442  0.75310124
   0.24959208  0.29143885  0.74889193
   0.10554368  0.82257953  0.24484132
   0.87719451  0.42445588  0.26728115
   0.74695478  0.30476896  0.76367264
   0.40449603  0.07855991  0.74990102
   0.41428484  0.29337655  0.26452843
   0.08313976  0.26539919  0.24900516
   0.55599669  0.08364726  0.24779104
   0.43349199  0.77068296  0.73192902
   0.59927264  0.60868605  0.74504276
   0.88456327  0.08676298  0.74111158
   0.25840835  0.61214358  0.24101443
   0.74659668  0.92778762  0.24665804
   0.74753200  0.44972814  0.00509042
   0.41212155  0.27561949  0.51322159
   0.24161747  0.42709859  0.99006949
   0.90635867  0.27162143  0.49544480
   0.23658914  0.93088064  0.00035961
   0.90641824  0.76832706  0.50286769
   0.74030219  0.94872496  0.98776787
   0.40684649  0.77401816  0.49031020
   0.06113880  0.08819836  0.00392492
   0.40494516  0.27191647  0.99894513
   0.07945603  0.10082003  0.48943571
   0.73591506  0.43682463  0.51401852
   0.57407866  0.10957743  0.99334137
   0.90077060  0.26965179  0.01112494
   0.57780543  0.10996958  0.49564716
   0.23976861  0.43794026  0.50323585
   0.56749162  0.60923217  0.99790561
   0.89736474  0.77005237  0.00746752
   0.57288601  0.60504740  0.49703243
   0.24116409  0.93945762  0.50548313
   0.06665986  0.60571817  0.00158526
   0.40909710  0.76742926  0.99726246
   0.07798911  0.60903740  0.49590210
   0.74679516  0.93741307  0.49548313
   0.24586492  0.26281279  0.09364681
   0.41408371  0.10875829  0.08727438
   0.55770070  0.43630369  0.08672588
   0.22878399  0.09353563  0.60131750
   0.40633622  0.45063632  0.59582187
   0.58072596  0.25452509  0.59985913
   0.22336530  0.10076194  0.90244247
   0.41226370  0.43715540  0.89906397
   0.55444820  0.26584620  0.90360132
   0.24216048  0.26980853  0.41202798
   0.40095846  0.09754522  0.41159563
   0.58580943  0.44683995  0.41507576
   0.73333553  0.26177438  0.09790069
   0.90501555  0.10638204  0.09682474
   0.06851685  0.43632905  0.10657782
   0.72575795  0.09277152  0.59745674
   0.90402585  0.44670626  0.59713672
   0.08463571  0.25391080  0.58391957
   0.74211748  0.12340855  0.90015151
   0.90465543  0.43429141  0.90944907
   0.05676656  0.25036913  0.91868422
   0.72783968  0.27623032  0.40283026
   0.91212150  0.09709459  0.40057763
   0.08164812  0.44312656  0.40591191
   0.74635380  0.77260979  0.08334845
   0.92714856  0.62235581  0.10014352
   0.04959582  0.93248839  0.09813959
   0.72854623  0.59241934  0.59676322
   0.90743581  0.94130740  0.58640130
   0.07981908  0.75470554  0.59708680
   0.73731031  0.62003235  0.91682115
   0.91910285  0.93573040  0.90494737
   0.05512614  0.75312083  0.90509000
   0.73689674  0.76818415  0.40291673
   0.89657666  0.59313736  0.40312532
   0.07972076  0.94011225  0.41093509
   0.23562274  0.75033522  0.08803191
   0.41404920  0.61493940  0.08324790
   0.56189622  0.94572498  0.09182474
   0.23533089  0.59842623  0.59479049
   0.41547802  0.94461050  0.58586199
   0.59285012  0.77243346  0.58836511
   0.23996666  0.60532746  0.90575857
   0.41337381  0.93514147  0.90400246
   0.56861816  0.76525908  0.90038328
   0.22285060  0.76749380  0.40188267
   0.40333496  0.59683461  0.40940362
   0.59147971  0.95003998  0.40045105
 
 position of ions in cartesian coordinates  (Angst):
   4.18549979  5.29423427  2.88840000
  -2.23449976  5.23709143  8.46807000
  -4.11709992  7.90382570  8.44829000
   1.04070011  2.52873000  8.40107000
  -3.06327005  7.13728287  2.74663000
   6.66230011  3.68288000  2.99836000
   5.95699987  2.64439143  8.56688000
   3.65909987  0.68164143  8.41239000
   2.68104997  2.54554283  2.96748000
  -0.49653997  2.30279143  2.79334000
   5.15149995  0.72578287  2.77972000
   0.48241997  6.68699143  8.21078000
   2.95489987  5.28139143  8.35789000
   8.42780027  0.75281713  8.31379000
  -0.47753997  5.31139143  2.70370000
   2.83240008  8.05014283  2.76701000
   5.23661000  3.90216000  0.05710430
   2.74833000  2.39147000  5.75732000
   0.28121500  3.70581000 11.10660000
   7.72012000  2.35678000  5.55790000
  -2.29286000  8.07698000  0.00403406
   5.23247000  6.66655000  5.64117000
   2.66445000  8.23181000 11.08078041
   0.19875100  6.71593000  5.50030000
   0.17071997  0.76527143  0.04402980
   2.69498000  2.35934000 11.20616691
   0.29101200  0.87478600  5.49049000
   5.18486000  3.79020000  5.76626000
   5.20276603  0.95077143 11.14330391
   7.67400000  2.33969000  0.12479959
   5.23814000  0.95417400  5.56017000
   0.20838000  3.79988000  5.64530000
   2.63375000  5.28613000 11.19450551
   5.13312000  6.68152000  0.08377060
   2.70876000  5.24982000  5.57571000
  -2.28999000  8.15140000  5.67051000
  -2.36648000  5.25564000  0.01778350
   0.25430700  6.65876000 11.18729071
  -2.26960000  5.28444000  5.56303000
   2.78617000  8.13366000  5.55833000
   1.14676000  2.28035000  1.05053000
   3.60388000  0.94366400  0.97904400
   3.40194000  3.78568000  0.97289100
   1.82362003  0.81158143  6.74558000
   1.81362000  3.91004000  6.68393000
   4.54325000  2.20844000  6.72922000
   1.73313000  0.87428200 10.12360000
   1.94054000  3.79307000 10.08570000
   4.22326000  2.30667000 10.13660000
   1.07460000  2.34105000  4.62213000
   3.52855003  0.84637143  4.61728000
   3.63078000  3.87710000  4.65632000
   6.03593000  2.27134000  1.09825000
   8.53443000  0.92304600  1.08618000
  -1.49932005  3.78590000  1.19559000
   6.80663003  0.80495143  6.70227000
   6.81966000  3.87594000  6.69868000
  -0.42400100  2.20311000  6.55041000
   6.81706000  1.07078000 10.09790000
   6.88816000  3.76822000 10.20220000
  -0.68548005  2.17238000 10.30580000
   5.90845000  2.39677000  4.51895000
   8.65215003  0.84246143  4.49368000
  -1.40181000  3.84488000  4.55352000
   3.60733000  6.70371000  0.93500300
   6.17141000  5.40000000  1.12341000
  -4.17440005  8.09093000  1.10093000
   4.33158000  5.14025000  6.69449000
   4.37612000  8.16745000  6.57825000
  -2.98099000  6.54836000  6.69812000
   4.28106000  5.37984000 10.28490000
   4.52095000  8.11906000 10.15170000
  -3.22045005  6.53461000 10.15330000
   3.53475000  6.66531000  4.51992000
   6.01148000  5.14648000  4.52226000
  -3.91077000  8.15708000  4.60987000
  -1.39810000  6.51044000  0.98754200
   1.06782000  5.33565000  0.93387500
   0.89202900  8.20578000  1.03009000
  -0.64003600  5.19237000  6.67236000
  -0.56935200  8.19611000  6.57220000
   2.07026000  6.70218000  6.60028000
  -0.62816200  5.25225000 10.16080000
  -0.54299900  8.11395000 10.14110000
   1.86342000  6.63993000 10.10050000
  -1.61202000  6.65932000  4.50832000
   1.05117000  5.17856000  4.59269000
   1.16681000  8.24322000  4.49226000
 


--------------------------------------------------------------------------------------------------------


 k-point  1 :   0.0000 0.0000 0.0000  plane waves:   17725
 k-point  2 :   0.5000-0.0000-0.0000  plane waves:   17736
 k-point  3 :   0.0000 0.5000 0.0000  plane waves:   17736
 k-point  4 :   0.5000 0.5000-0.0000  plane waves:   17736
 k-point  5 :   0.0000 0.0000 0.5000  plane waves:   17676
 k-point  6 :   0.5000-0.0000 0.5000  plane waves:   17700
 k-point  7 :   0.0000 0.5000 0.5000  plane waves:   17700
 k-point  8 :   0.5000 0.5000 0.5000  plane waves:   17700

 maximum and minimum number of plane-waves per node :     17736    17676

 maximum number of plane-waves:     17736
 maximum index in each direction: 
   IXMAX=   16   IYMAX=   16   IZMAX=   18
   IXMIN=  -16   IYMIN=  -16   IZMIN=  -18


 serial   3D FFT for wavefunctions
 parallel 3D FFT for charge:
    minimum data exchange during FFTs selected (reduces bandwidth)


 total amount of memory used by VASP MPI-rank0    88190. kBytes
=======================================================================

   base      :      30000. kBytes
   nonlr-proj:      13681. kBytes
   fftplans  :        992. kBytes
   grid      :      21513. kBytes
   one-center:       2737. kBytes
   wavefun   :      19267. kBytes
 
     INWAV:  cpu time    0.0000: real time    0.0001
 Broyden mixing: mesh for mixing (old mesh)
   NGX = 33   NGY = 33   NGZ = 37
  (NGX  =100   NGY  =100   NGZ  =112)
  gives a total of  40293 points

 initial charge density was supplied:
 charge density of overlapping atoms calculated
 number of electron     672.0000000 magnetization      48.0000000
 keeping initial charge density in first step


--------------------------------------------------------------------------------------------------------


 Maximum index for non-local projection operator         1553
 Maximum index for augmentation-charges          223 (set IRDMAX)


--------------------------------------------------------------------------------------------------------


 First call to EWALD:  gamma=   0.179
 Maximum number of real-space cells 3x 3x 2
 Maximum number of reciprocal cells 3x 3x 3

    FEWALD:  cpu time    0.0024: real time    0.0030


--------------------------------------- Iteration      1(   1)  ---------------------------------------


    POTLOK:  cpu time    0.2019: real time    0.2033
    SETDIJ:  cpu time    3.0849: real time    3.0864
    EDDIAG:  cpu time    3.7392: real time    3.7691
  RMM-DIIS:  cpu time    6.6126: real time    6.6179
    ORTHCH:  cpu time    1.1457: real time    1.1484
       DOS:  cpu time    0.0025: real time    0.0026
    --------------------------------------------
      LOOP:  cpu time   14.7868: real time   14.8277

 eigenvalue-minimisations  :  7168
 total energy-change (2. order) : 0.1845741E+04  (-0.3592231E+05)
 number of electron     672.0000000 magnetization      48.0000000
 augmentation part      672.0000000 magnetization      48.0000000

 Free energy of the ion-electron system (eV)
  ---------------------------------------------------
  alpha Z        PSCENC =      2652.81237852
  Ewald energy   TEWEN  =    -42047.11703454
  -Hartree energ DENC   =    -25576.47080115
  -exchange      EXHF   =         0.00000000
  -V(xc)+E(xc)   XCENC  =      3605.28424439
  PAW double counting   =     55594.23204139   -59034.67079123
  entropy T*S    EENTRO =        -0.04252565
  eigenvalues    EBANDS =     -7210.48454034
  atomic energy  EATOM  =     73862.19814772
  Solvation  Ediel_sol  =         0.00000000
  ---------------------------------------------------
  free energy    TOTEN  =      1845.74111910 eV

  energy without entropy =     1845.78364476  energy(sigma->0) =     1845.76238193


--------------------------------------------------------------------------------------------------------




--------------------------------------- Iteration      1(   2)  ---------------------------------------


    EDDIAG:  cpu time    3.7746: real time    3.7868
  RMM-DIIS:  cpu time    6.6153: real time    6.6277
    ORTHCH:  cpu time    1.1384: real time    1.1405
       DOS:  cpu time    0.0014: real time    0.0014
    --------------------------------------------
      LOOP:  cpu time   11.5298: real time   11.5564

 eigenvalue-minimisations  :  7168
 total energy-change (2. order) :-0.2691437E+04  (-0.8671750E+04)
 number of electron     672.0000000 magnetization      48.0000000
 augmentation part      672.0000000 magnetization      48.0000000

 Free energy of the ion-electron system (eV)
  ---------------------------------------------------
  alpha Z        PSCENC =      2652.81237852
  Ewald energy   TEWEN  =    -42047.11703454
  -Hartree energ DENC   =    -25576.47080115
  -exchange      EXHF   =         0.00000000
  -V(xc)+E(xc)   XCENC  =      3605.28424439
  PAW double counting   =     55594.23204139   -59034.67079123
  entropy T*S    EENTRO =        -0.03993625
  eigenvalues    EBANDS =     -9901.92375028
  atomic energy  EATOM  =     73862.19814772
  Solvation  Ediel_sol  =         0.00000000
  ---------------------------------------------------
  free energy    TOTEN  =      -845.69550144 eV

  energy without entropy =     -845.65556519  energy(sigma->0) =     -845.67553332


--------------------------------------------------------------------------------------------------------




--------------------------------------- Iteration      1(   3)  ---------------------------------------


    EDDIAG:  cpu time    3.7133: real time    3.7174
  RMM-DIIS:  cpu time    6.5559: real time    6.6539
    ORTHCH:  cpu time    1.1440: real time    1.1462
       DOS:  cpu time    0.0018: real time    0.0018
    --------------------------------------------
      LOOP:  cpu time   11.4150: real time   11.5193

 eigenvalue-minimisations  :  7168
 total energy-change (2. order) : 0.3093436E+03  (-0.1557350E+04)
 number of electron     672.0000000 magnetization      48.0000000
 augmentation part      672.0000000 magnetization      48.0000000

 Free energy of the ion-electron system (eV)
  ---------------------------------------------------
  alpha Z        PSCENC =      2652.81237852
  Ewald energy   TEWEN  =    -42047.11703454
  -Hartree energ DENC   =    -25576.47080115
  -exchange      EXHF   =         0.00000000
  -V(xc)+E(xc)   XCENC  =      3605.28424439
  PAW double counting   =     55594.23204139   -59034.67079123
  entropy T*S    EENTRO =        -0.03581682
  eigenvalues    EBANDS =     -9592.58425614
  atomic energy  EATOM  =     73862.19814772
  Solvation  Ediel_sol  =         0.00000000
  ---------------------------------------------------
  free energy    TOTEN  =      -536.35188787 eV

  energy without entropy =     -536.31607105  energy(sigma->0) =     -536.33397946


--------------------------------------------------------------------------------------------------------




--------------------------------------- Iteration      1(   4)  ---------------------------------------


    EDDIAG:  cpu time    3.7709: real time    3.7749
  RMM-DIIS:  cpu time    6.6503: real time    6.6535
    ORTHCH:  cpu time    1.1399: real time    1.1420
       DOS:  cpu time    0.0012: real time    0.0012
    --------------------------------------------
      LOOP:  cpu time   11.5622: real time   11.5715

 eigenvalue-minimisations  :  7168
 total energy-change (2. order) :-0.5224424E+03  (-0.5081241E+03)
 number of electron     672.0000000 magnetization      48.0000000
 augmentation part      672.0000000 magnetization      48.0000000

 Free energy of the ion-electron system (eV)
  ---------------------------------------------------
  alpha Z        PSCENC =      2652.81237852
  Ewald energy   TEWEN  =    -42047.11703454
  -Hartree energ DENC   =    -25576.47080115
  -exchange      EXHF   =         0.00000000
  -V(xc)+E(xc)   XCENC  =      3605.28424439
  PAW double counting   =     55594.23204139   -59034.67079123
  entropy T*S    EENTRO =        -0.00170120
  eigenvalues    EBANDS =    -10115.06081896
  atomic energy  EATOM  =     73862.19814772
  Solvation  Ediel_sol  =         0.00000000
  ---------------------------------------------------
  free energy    TOTEN  =     -1058.79433507 eV

  energy without entropy =    -1058.79263386  energy(sigma->0) =    -1058.79348447


--------------------------------------------------------------------------------------------------------




--------------------------------------- Iteration      1(   5)  ---------------------------------------


    EDDIAG:  cpu time    3.7142: real time    3.7164
  RMM-DIIS:  cpu time    6.6505: real time    6.6539
    ORTHCH:  cpu time    1.1361: real time    1.1382
       DOS:  cpu time    0.0010: real time    0.0010
    --------------------------------------------
      LOOP:  cpu time   11.5018: real time   11.5095

 eigenvalue-minimisations  :  7168
 total energy-change (2. order) :-0.1471664E+03  (-0.2125489E+03)
 number of electron     672.0000000 magnetization      48.0000000
 augmentation part      672.0000000 magnetization      48.0000000

 Free energy of the ion-electron system (eV)
  ---------------------------------------------------
  alpha Z        PSCENC =      2652.81237852
  Ewald energy   TEWEN  =    -42047.11703454
  -Hartree energ DENC   =    -25576.47080115
  -exchange      EXHF   =         0.00000000
  -V(xc)+E(xc)   XCENC  =      3605.28424439
  PAW double counting   =     55594.23204139   -59034.67079123
  entropy T*S    EENTRO =        -0.00000000
  eigenvalues    EBANDS =    -10262.22891837
  atomic energy  EATOM  =     73862.19814772
  Solvation  Ediel_sol  =         0.00000000
  ---------------------------------------------------
  free energy    TOTEN  =     -1205.96073327 eV

  energy without entropy =    -1205.96073327  energy(sigma->0) =    -1205.96073327


--------------------------------------------------------------------------------------------------------




--------------------------------------- Iteration      1(   6)  ---------------------------------------


    EDDIAG:  cpu time    3.7320: real time    3.7348
  RMM-DIIS:  cpu time    6.5934: real time    6.6142
    ORTHCH:  cpu time    1.1424: real time    1.1449
       DOS:  cpu time    0.0014: real time    0.0014
    --------------------------------------------
      LOOP:  cpu time   11.4692: real time   11.4953

 eigenvalue-minimisations  :  7168
 total energy-change (2. order) :-0.2186021E+02  (-0.1155047E+03)
 number of electron     672.0000000 magnetization      48.0000000
 augmentation part      672.0000000 magnetization      48.0000000

 Free energy of the ion-electron system (eV)
  ---------------------------------------------------
  alpha Z        PSCENC =      2652.81237852
  Ewald energy   TEWEN  =    -42047.11703454
  -Hartree energ DENC   =    -25576.47080115
  -exchange      EXHF   =         0.00000000
  -V(xc)+E(xc)   XCENC  =      3605.28424439
  PAW double counting   =     55594.23204139   -59034.67079123
  entropy T*S    EENTRO =        -0.00000000
  eigenvalues    EBANDS =    -10284.08912762
  atomic energy  EATOM  =     73862.19814772
  Solvation  Ediel_sol  =         0.00000000
  ---------------------------------------------------
  free energy    TOTEN  =     -1227.82094253 eV

  energy without entropy =    -1227.82094253  energy(sigma->0) =    -1227.82094253


--------------------------------------------------------------------------------------------------------




--------------------------------------- Iteration      1(   7)  ---------------------------------------


    EDDIAG:  cpu time    3.7259: real time    3.7318
  RMM-DIIS:  cpu time    6.6247: real time    6.6270
    ORTHCH:  cpu time    1.1440: real time    1.1466
       DOS:  cpu time    0.0012: real time    0.0012
    --------------------------------------------
      LOOP:  cpu time   11.4959: real time   11.5065

 eigenvalue-minimisations  :  7168
 total energy-change (2. order) :-0.6451625E+01  (-0.7627521E+02)
 number of electron     672.0000000 magnetization      48.0000000
 augmentation part      672.0000000 magnetization      48.0000000

 Free energy of the ion-electron system (eV)
  ---------------------------------------------------
  alpha Z        PSCENC =      2652.81237852
  Ewald energy   TEWEN  =    -42047.11703454
  -Hartree energ DENC   =    -25576.47080115
  -exchange      EXHF   =         0.00000000
  -V(xc)+E(xc)   XCENC  =      3605.28424439
  PAW double counting   =     55594.23204139   -59034.67079123
  entropy T*S    EENTRO =        -0.00000000
  eigenvalues    EBANDS =    -10290.54075225
  atomic energy  EATOM  =     73862.19814772
  Solvation  Ediel_sol  =         0.00000000
  ---------------------------------------------------
  free energy    TOTEN  =     -1234.27256715 eV

  energy without entropy =    -1234.27256715  energy(sigma->0) =    -1234.27256715


--------------------------------------------------------------------------------------------------------




--------------------------------------- Iteration      1(   8)  ---------------------------------------


    EDDIAG:  cpu time    3.7220: real time    3.7303
  RMM-DIIS:  cpu time    6.6232: real time    6.6257
    ORTHCH:  cpu time    1.1563: real time    1.1690
       DOS:  cpu time    0.0010: real time    0.0010
    --------------------------------------------
      LOOP:  cpu time   11.5025: real time   11.5261

 eigenvalue-minimisations  :  7168
 total energy-change (2. order) : 0.4693985E+01  (-0.5283274E+02)
 number of electron     672.0000000 magnetization      48.0000000
 augmentation part      672.0000000 magnetization      48.0000000

 Free energy of the ion-electron system (eV)
  ---------------------------------------------------
  alpha Z        PSCENC =      2652.81237852
  Ewald energy   TEWEN  =    -42047.11703454
  -Hartree energ DENC   =    -25576.47080115
  -exchange      EXHF   =         0.00000000
  -V(xc)+E(xc)   XCENC  =      3605.28424439
  PAW double counting   =     55594.23204139   -59034.67079123
  entropy T*S    EENTRO =        -0.00000000
  eigenvalues    EBANDS =    -10285.84676681
  atomic energy  EATOM  =     73862.19814772
  Solvation  Ediel_sol  =         0.00000000
  ---------------------------------------------------
  free energy    TOTEN  =     -1229.57858171 eV

  energy without entropy =    -1229.57858171  energy(sigma->0) =    -1229.57858171


--------------------------------------------------------------------------------------------------------




--------------------------------------- Iteration      1(   9)  ---------------------------------------


    EDDIAG:  cpu time    3.7791: real time    3.7815
  RMM-DIIS:  cpu time   13.9347: real time   13.9402
    ORTHCH:  cpu time    1.1366: real time    1.1390
       DOS:  cpu time    0.0010: real time    0.0010
    --------------------------------------------
      LOOP:  cpu time   18.8514: real time   18.8617

 eigenvalue-minimisations  : 20272
 total energy-change (2. order) : 0.1813470E+02  (-0.2369372E+02)
 number of electron     672.0000000 magnetization      48.0000000
 augmentation part      672.0000000 magnetization      48.0000000

 Free energy of the ion-electron system (eV)
  ---------------------------------------------------
  alpha Z        PSCENC =      2652.81237852
  Ewald energy   TEWEN  =    -42047.11703454
  -Hartree energ DENC   =    -25576.47080115
  -exchange      EXHF   =         0.00000000
  -V(xc)+E(xc)   XCENC  =      3605.28424439
  PAW double counting   =     55594.23204139   -59034.67079123
  entropy T*S    EENTRO =        -0.00000000
  eigenvalues    EBANDS =    -10267.71206704
  atomic energy  EATOM  =     73862.19814772
  Solvation  Ediel_sol  =         0.00000000
  ---------------------------------------------------
  free energy    TOTEN  =     -1211.44388195 eV

  energy without entropy =    -1211.44388195  energy(sigma->0) =    -1211.44388195


--------------------------------------------------------------------------------------------------------




--------------------------------------- Iteration      1(  10)  ---------------------------------------


    EDDIAG:  cpu time    3.7074: real time    3.7106
  RMM-DIIS:  cpu time   15.6032: real time   15.6550
    ORTHCH:  cpu time    1.1436: real time    1.1457
       DOS:  cpu time    0.0011: real time    0.0011
    --------------------------------------------
      LOOP:  cpu time   20.4553: real time   20.5124

 eigenvalue-minimisations  : 20149
 total energy-change (2. order) :-0.3109470E+01  (-0.1036290E+01)
 number of electron     672.0000000 magnetization      48.0000000
 augmentation part      672.0000000 magnetization      48.0000000

 Free energy of the ion-electron system (eV)
  ---------------------------------------------------
  alpha Z        PSCENC =      2652.81237852
  Ewald energy   TEWEN  =    -42047.11703454
  -Hartree energ DENC   =    -25576.47080115
  -exchange      EXHF   =         0.00000000
  -V(xc)+E(xc)   XCENC  =      3605.28424439
  PAW double counting   =     55594.23204139   -59034.67079123
  entropy T*S    EENTRO =        -0.00000025
  eigenvalues    EBANDS =    -10270.82153700
  atomic energy  EATOM  =     73862.19814772
  Solvation  Ediel_sol  =         0.00000000
  ---------------------------------------------------
  free energy    TOTEN  =     -1214.55335215 eV

  energy without entropy =    -1214.55335191  energy(sigma->0) =    -1214.55335203


--------------------------------------------------------------------------------------------------------




--------------------------------------- Iteration      1(  11)  ---------------------------------------


    EDDIAG:  cpu time    3.8739: real time    3.8771
  RMM-DIIS:  cpu time   15.0800: real time   15.0879
    ORTHCH:  cpu time    1.2105: real time    1.2266
       DOS:  cpu time    0.0012: real time    0.0012
    --------------------------------------------
      LOOP:  cpu time   20.1656: real time   20.1929

 eigenvalue-minimisations  : 21720
 total energy-change (2. order) : 0.1026933E+00  (-0.9874498E-01)
 number of electron     672.0000000 magnetization      48.0000000
 augmentation part      672.0000000 magnetization      48.0000000

 Free energy of the ion-electron system (eV)
  ---------------------------------------------------
  alpha Z        PSCENC =      2652.81237852
  Ewald energy   TEWEN  =    -42047.11703454
  -Hartree energ DENC   =    -25576.47080115
  -exchange      EXHF   =         0.00000000
  -V(xc)+E(xc)   XCENC  =      3605.28424439
  PAW double counting   =     55594.23204139   -59034.67079123
  entropy T*S    EENTRO =        -0.00000019
  eigenvalues    EBANDS =    -10270.71884378
  atomic energy  EATOM  =     73862.19814772
  Solvation  Ediel_sol  =         0.00000000
  ---------------------------------------------------
  free energy    TOTEN  =     -1214.45065887 eV

  energy without entropy =    -1214.45065868  energy(sigma->0) =    -1214.45065878


--------------------------------------------------------------------------------------------------------




--------------------------------------- Iteration      1(  12)  ---------------------------------------


    EDDIAG:  cpu time    3.7367: real time    3.7391
  RMM-DIIS:  cpu time   15.9943: real time   16.0003
    ORTHCH:  cpu time    1.1414: real time    1.1441
       DOS:  cpu time    0.0012: real time    0.0012
    CHARGE:  cpu time    1.3512: real time    1.3520
    MIXING:  cpu time    0.0011: real time    0.0014
    --------------------------------------------
      LOOP:  cpu time   22.2259: real time   22.2381

 eigenvalue-minimisations  : 22751
 total energy-change (2. order) : 0.7290672E-02  (-0.6805107E-02)
 number of electron     672.0000402 magnetization      48.0000062
 augmentation part      238.9532533 magnetization      29.0284093

 Broyden mixing:
  rms(total) = 0.12431E+02    rms(broyden)= 0.12421E+02
  rms(prec ) = 0.14316E+02
  weight for this iteration     100.00

 Free energy of the ion-electron system (eV)
  ---------------------------------------------------
  alpha Z        PSCENC =      2652.81237852
  Ewald energy   TEWEN  =    -42047.11703454
  -Hartree energ DENC   =    -25576.47080115
  -exchange      EXHF   =         0.00000000
  -V(xc)+E(xc)   XCENC  =      3605.28424439
  PAW double counting   =     55594.23204139   -59034.67079123
  entropy T*S    EENTRO =        -0.00000017
  eigenvalues    EBANDS =    -10270.71155313
  atomic energy  EATOM  =     73862.19814772
  Solvation  Ediel_sol  =         0.00000000
  ---------------------------------------------------
  free energy    TOTEN  =     -1214.44336820 eV

  energy without entropy =    -1214.44336803  energy(sigma->0) =    -1214.44336812


--------------------------------------------------------------------------------------------------------




--------------------------------------- Iteration      1(  13)  ---------------------------------------


    POTLOK:  cpu time    0.1983: real time    0.1992
    SETDIJ:  cpu time    3.2689: real time    3.2694
    EDDIAG:  cpu time    3.7185: real time    3.7205
  RMM-DIIS:  cpu time   13.0585: real time   13.1085
    ORTHCH:  cpu time    1.1459: real time    1.1482
       DOS:  cpu time    0.0012: real time    0.0013
    CHARGE:  cpu time    1.3485: real time    1.3487
    MIXING:  cpu time    0.0010: real time    0.0011
    --------------------------------------------
      LOOP:  cpu time   22.7409: real time   22.7969

 eigenvalue-minimisations  : 17334
 total energy-change (2. order) : 0.2233637E+03  (-0.1394692E+03)
 number of electron     672.0000474 magnetization      48.0000075
 augmentation part      269.3379325 magnetization      26.3852962

 Broyden mixing:
  rms(total) = 0.14056E+02    rms(broyden)= 0.14053E+02
  rms(prec ) = 0.15842E+02
  weight for this iteration     100.00

 eigenvalues of (default mixing * dielectric matrix)
  average eigenvalue GAMMA=   0.3140
  0.3140

 Free energy of the ion-electron system (eV)
  ---------------------------------------------------
  alpha Z        PSCENC =      2652.81237852
  Ewald energy   TEWEN  =    -42047.11703454
  -Hartree energ DENC   =    -24895.69964610
  -exchange      EXHF   =         0.00000000
  -V(xc)+E(xc)   XCENC  =      3695.05004971
  PAW double counting   =     59776.02722498   -63200.60034440
  entropy T*S    EENTRO =        -0.07839707
  eigenvalues    EBANDS =    -10833.67209014
  atomic energy  EATOM  =     73862.19814772
  Solvation  Ediel_sol  =         0.00000000
  ---------------------------------------------------
  free energy    TOTEN  =      -991.07971132 eV

  energy without entropy =     -991.00131425  energy(sigma->0) =     -991.04051278


--------------------------------------------------------------------------------------------------------




--------------------------------------- Iteration      1(  14)  ---------------------------------------


    POTLOK:  cpu time    0.2063: real time    0.2064
    SETDIJ:  cpu time    3.2626: real time    3.2631
    EDDIAG:  cpu time    3.7215: real time    3.7238
  RMM-DIIS:  cpu time   13.5835: real time   13.6272
    ORTHCH:  cpu time    1.1530: real time    1.1553
       DOS:  cpu time    0.0010: real time    0.0010
    CHARGE:  cpu time    1.3493: real time    1.3497
    MIXING:  cpu time    0.0007: real time    0.0007
    --------------------------------------------
      LOOP:  cpu time   23.2778: real time   23.3271

 eigenvalue-minimisations  : 17814
 total energy-change (2. order) : 0.7655808E+02  (-0.1883497E+02)
 number of electron     672.0000431 magnetization      48.0000121
 augmentation part      246.5626122 magnetization      32.1950016

 Broyden mixing:
  rms(total) = 0.51802E+01    rms(broyden)= 0.51757E+01
  rms(prec ) = 0.56069E+01
  weight for this iteration     100.00

 eigenvalues of (default mixing * dielectric matrix)
  average eigenvalue GAMMA=   0.7236
  1.0897  0.3575

 Free energy of the ion-electron system (eV)
  ---------------------------------------------------
  alpha Z        PSCENC =      2652.81237852
  Ewald energy   TEWEN  =    -42047.11703454
  -Hartree energ DENC   =    -25505.88994228
  -exchange      EXHF   =         0.00000000
  -V(xc)+E(xc)   XCENC  =      3672.29757556
  PAW double counting   =     63149.73396828   -66631.15078700
  entropy T*S    EENTRO =        -0.00000000
  eigenvalues    EBANDS =    -10067.40593511
  atomic energy  EATOM  =     73862.19814772
  Solvation  Ediel_sol  =         0.00000000
  ---------------------------------------------------
  free energy    TOTEN  =      -914.52162886 eV

  energy without entropy =     -914.52162886  energy(sigma->0) =     -914.52162886


--------------------------------------------------------------------------------------------------------




--------------------------------------- Iteration      1(  15)  ---------------------------------------


    POTLOK:  cpu time    0.2025: real time    0.2036
    SETDIJ:  cpu time    3.2671: real time    3.2676
    EDDIAG:  cpu time    3.7472: real time    3.7499
  RMM-DIIS:  cpu time   13.6054: real time   13.6103
    ORTHCH:  cpu time    1.1569: real time    1.1839
       DOS:  cpu time    0.0011: real time    0.0011
    CHARGE:  cpu time    1.3505: real time    1.3506
    MIXING:  cpu time    0.0006: real time    0.0006
    --------------------------------------------
      LOOP:  cpu time   23.3312: real time   23.3677

 eigenvalue-minimisations  : 18401
 total energy-change (2. order) : 0.1372587E+02  (-0.2155694E+01)
 number of electron     672.0000432 magnetization      48.0000154
 augmentation part      249.7342660 magnetization      33.8463821

 Broyden mixing:
  rms(total) = 0.21437E+01    rms(broyden)= 0.21433E+01
  rms(prec ) = 0.22205E+01
  weight for this iteration     100.00

 eigenvalues of (default mixing * dielectric matrix)
  average eigenvalue GAMMA=   0.9391
  0.3807  0.7559  1.6808

 Free energy of the ion-electron system (eV)
  ---------------------------------------------------
  alpha Z        PSCENC =      2652.81237852
  Ewald energy   TEWEN  =    -42047.11703454
  -Hartree energ DENC   =    -25419.37295634
  -exchange      EXHF   =         0.00000000
  -V(xc)+E(xc)   XCENC  =      3705.08653942
  PAW double counting   =     67153.78278851   -70675.36077865
  entropy T*S    EENTRO =        -0.00000000
  eigenvalues    EBANDS =    -10132.82484365
  atomic energy  EATOM  =     73862.19814772
  Solvation  Ediel_sol  =         0.00000000
  ---------------------------------------------------
  free energy    TOTEN  =      -900.79575902 eV

  energy without entropy =     -900.79575902  energy(sigma->0) =     -900.79575902


--------------------------------------------------------------------------------------------------------




--------------------------------------- Iteration      1(  16)  ---------------------------------------


    POTLOK:  cpu time    0.2079: real time    0.2080
    SETDIJ:  cpu time    3.3036: real time    3.3046
    EDDIAG:  cpu time    3.7186: real time    3.7210
  RMM-DIIS:  cpu time   13.1433: real time   13.1484
    ORTHCH:  cpu time    1.1525: real time    1.1546
       DOS:  cpu time    0.0010: real time    0.0010
    CHARGE:  cpu time    1.3505: real time    1.3509
    MIXING:  cpu time    0.0010: real time    0.0010
    --------------------------------------------
      LOOP:  cpu time   22.8784: real time   22.8895

 eigenvalue-minimisations  : 17442
 total energy-change (2. order) :-0.1562523E+01  (-0.6854347E+00)
 number of electron     672.0000437 magnetization      48.0000166
 augmentation part      251.1730883 magnetization      33.9510569

 Broyden mixing:
  rms(total) = 0.14554E+01    rms(broyden)= 0.14549E+01
  rms(prec ) = 0.15475E+01
  weight for this iteration     100.00

 eigenvalues of (default mixing * dielectric matrix)
  average eigenvalue GAMMA=   0.9653
  2.0543  0.9002  0.3873  0.5194

 Free energy of the ion-electron system (eV)
  ---------------------------------------------------
  alpha Z        PSCENC =      2652.81237852
  Ewald energy   TEWEN  =    -42047.11703454
  -Hartree energ DENC   =    -25370.42083289
  -exchange      EXHF   =         0.00000000
  -V(xc)+E(xc)   XCENC  =      3706.07841024
  PAW double counting   =     70012.44843606   -73563.33396789
  entropy T*S    EENTRO =        -0.00000000
  eigenvalues    EBANDS =    -10155.02381914
  atomic energy  EATOM  =     73862.19814772
  Solvation  Ediel_sol  =         0.00000000
  ---------------------------------------------------
  free energy    TOTEN  =      -902.35828191 eV

  energy without entropy =     -902.35828191  energy(sigma->0) =     -902.35828191


--------------------------------------------------------------------------------------------------------




--------------------------------------- Iteration      1(  17)  ---------------------------------------


    POTLOK:  cpu time    0.2072: real time    0.2079
    SETDIJ:  cpu time    3.2992: real time    3.2998
    EDDIAG:  cpu time    3.8398: real time    3.8609
  RMM-DIIS:  cpu time   13.8557: real time   13.8603
    ORTHCH:  cpu time    1.1440: real time    1.1463
       DOS:  cpu time    0.0011: real time    0.0011
    CHARGE:  cpu time    1.3505: real time    1.3507
    MIXING:  cpu time    0.0015: real time    0.0015
    --------------------------------------------
      LOOP:  cpu time   23.6991: real time   23.7286

 eigenvalue-minimisations  : 18430
 total energy-change (2. order) : 0.1804014E+00  (-0.7597678E-01)
 number of electron     672.0000435 magnetization      48.0000173
 augmentation part      251.0852689 magnetization      33.9547698

 Broyden mixing:
  rms(total) = 0.77438E+00    rms(broyden)= 0.77425E+00
  rms(prec ) = 0.87392E+00
  weight for this iteration     100.00

 eigenvalues of (default mixing * dielectric matrix)
  average eigenvalue GAMMA=   0.9909
  2.2201  1.1138  0.3777  0.6947  0.5482

 Free energy of the ion-electron system (eV)
  ---------------------------------------------------
  alpha Z        PSCENC =      2652.81237852
  Ewald energy   TEWEN  =    -42047.11703454
  -Hartree energ DENC   =    -25363.22177259
  -exchange      EXHF   =         0.00000000
  -V(xc)+E(xc)   XCENC  =      3703.49032523
  PAW double counting   =     70880.76673420   -74440.17249637
  entropy T*S    EENTRO =        -0.00000000
  eigenvalues    EBANDS =    -10150.93416267
  atomic energy  EATOM  =     73862.19814772
  Solvation  Ediel_sol  =         0.00000000
  ---------------------------------------------------
  free energy    TOTEN  =      -902.17788050 eV

  energy without entropy =     -902.17788050  energy(sigma->0) =     -902.17788050


--------------------------------------------------------------------------------------------------------




--------------------------------------- Iteration      1(  18)  ---------------------------------------


    POTLOK:  cpu time    0.2043: real time    0.2044
    SETDIJ:  cpu time    3.2880: real time    3.2889
    EDDIAG:  cpu time    3.7251: real time    3.7270
  RMM-DIIS:  cpu time   13.2573: real time   13.2938
    ORTHCH:  cpu time    1.1610: real time    1.1631
       DOS:  cpu time    0.0012: real time    0.0012
    CHARGE:  cpu time    1.3525: real time    1.3530
    MIXING:  cpu time    0.0010: real time    0.0010
    --------------------------------------------
      LOOP:  cpu time   22.9903: real time   23.0324

 eigenvalue-minimisations  : 17754
 total energy-change (2. order) : 0.4082127E+00  (-0.7052366E-01)
 number of electron     672.0000435 magnetization      48.0000176
 augmentation part      250.5808515 magnetization      33.9169755

 Broyden mixing:
  rms(total) = 0.28286E+00    rms(broyden)= 0.28258E+00
  rms(prec ) = 0.29834E+00
  weight for this iteration     100.00

 eigenvalues of (default mixing * dielectric matrix)
  average eigenvalue GAMMA=   1.0172
  2.4671  1.3432  0.8581  0.3794  0.5850  0.4707

 Free energy of the ion-electron system (eV)
  ---------------------------------------------------
  alpha Z        PSCENC =      2652.81237852
  Ewald energy   TEWEN  =    -42047.11703454
  -Hartree energ DENC   =    -25369.03927030
[...]
   4      -0.816    -0.649     1.465     0.092     0.396    -0.223
   5      -0.850    -0.631     1.481    -0.216     0.414     0.347
   6      -0.765    -0.718     1.484     0.096    -0.373     0.265
   7      -0.875    -0.694     1.569     0.100     0.413    -0.318
   8      -0.772    -0.873     1.645     0.080     0.067     0.440
   9      -0.618    -0.565     1.183     0.047     0.007     0.031
  10      -0.820    -0.667     1.487    -0.088     0.476     0.271
  11      -0.889    -1.011     1.900     0.024    -0.020    -0.008
  12      -0.609    -0.646     1.255    -0.099    -0.045     0.001
  13      -0.965    -1.048     2.014    -0.076    -0.080     0.139
  14      -0.673    -0.825     1.498     0.020    -0.082     0.372
  15      -0.540    -0.967     1.507     0.019    -0.040    -0.507
  16      -0.740    -0.662     1.402     0.006    -0.086     0.070
  17       1.508     1.410    -2.918    -0.116     0.107    -0.017
  18       1.394     1.515    -2.909    -0.011     0.101     0.021
  19       1.296     1.616    -2.912     0.210     0.011     0.018
  20       1.523     1.297    -2.820    -0.059    -0.085     0.080
  21       1.422     1.389    -2.811     0.054    -0.112    -0.011
  22       1.409     1.538    -2.947     0.056     0.007    -0.225
  23       1.387     1.533    -2.920    -0.159     0.214     0.043
  24       1.412     1.515    -2.927    -0.153    -0.078     0.062
  25       1.504    -0.830    -0.674     0.693     0.336     0.284
  26       0.021    -0.373     0.352    -0.255     1.722     0.360
  27       0.850    -3.284     2.434    -0.080    -0.865    -0.915
  28      -0.286    -0.576     0.862     1.517    -0.109    -0.281
  29      -0.390     0.596    -0.206     0.076     0.804     0.122
  30      -1.933     1.333     0.600     1.246    -0.545    -0.713
  31       0.572    -0.026    -0.547     0.273     0.134     0.904
  32       0.020    -2.326     2.306     0.050    -0.922    -0.187
  33      -1.897    -0.092     1.988    -0.377     0.880     0.410
  34      -1.707     1.592     0.116     0.392    -0.472     0.277
  35      -0.393    -0.869     1.262     0.830     0.263    -0.258
  36      -0.266    -0.598     0.864    -0.122     1.052    -0.675
  37      -1.047     2.058    -1.011    -0.420    -1.602    -0.458
  38       0.113    -1.521     1.409     0.406     0.790     1.244
  39       1.126     0.151    -1.277     0.204     0.392    -0.753
  40      -0.462     0.455     0.007     0.460    -0.286     0.967
  41      -3.663     1.482     2.180    -4.663     4.022    -2.671
  42      -3.092     1.222     1.871     4.669     3.952     4.358
  43       3.406    -5.721     2.315     0.096    -3.848    -1.448
  44      -0.936     1.610    -0.673     5.371    -0.299    -3.988
  45      -3.330     2.357     0.973    -3.703    -2.499     4.144
  46       5.652    -6.177     0.525    -0.283     3.937    -2.301
  47      -1.930     2.423    -0.493    -4.507     2.980    -2.589
  48       4.727    -4.119    -0.607     0.652    -4.031    -0.456
  49      -3.388     2.686     0.702     6.069     2.593     4.136
  50       3.218    -6.353     3.134    -0.553     5.934    -0.413
  51      -3.521     2.102     1.419    -5.396    -0.877     5.935
  52      -2.046     2.098    -0.052     5.630    -2.646    -3.213
  53      -4.524     4.120     0.404    -4.098     1.816    -3.941
  54      -1.926    -0.123     2.049     6.174     2.797     5.016
  55       3.370    -6.040     2.669    -1.533    -4.448    -0.958
  56      -1.689     3.655    -1.966     6.305    -2.422    -3.699
  57      -5.896     3.142     2.754    -3.687    -2.053     3.465
  58       5.658    -5.748     0.090    -0.332     4.347    -0.885
  59      -2.848     3.406    -0.557    -4.024     1.270    -4.056
  60       5.090    -5.082    -0.008     1.088    -4.037     0.422
  61      -2.272     0.834     1.438     5.111     3.954     2.925
  62       5.347    -3.746    -1.601    -1.462     3.791     1.341
  63      -5.207     2.430     2.776    -3.711    -1.983     4.588
  64      -2.317     0.008     2.309     3.798    -3.681    -2.216
  65      -6.240     2.708     3.533    -4.132     3.263    -5.829
  66      -4.264     4.341    -0.077     4.191     2.959     1.950
  67       5.642    -6.183     0.541    -0.762    -5.000     1.740
  68      -1.912     0.098     1.814     7.188    -4.267    -5.051
  69      -3.298     2.980     0.319    -3.384    -2.467     3.339
  70       6.127    -5.175    -0.953     0.362     5.617    -2.049
  71      -4.593     2.954     1.639    -4.863     2.490    -5.709
  72       6.985    -4.980    -2.005    -1.949    -2.933    -1.191
  73       0.103     1.175    -1.278     5.557    -0.429     5.415
  74       4.303    -5.861     1.558    -0.766     5.274    -0.342
  75      -2.925     4.370    -1.445    -3.992    -0.933     3.260
  76      -3.463     0.018     3.445     4.750    -5.674    -4.048
  77      -4.444     3.860     0.584    -4.632     1.098    -4.352
  78      -3.670     1.368     2.302     6.549     3.181     5.848
  79       6.893    -6.073    -0.819     0.347    -4.390     0.716
  80      -1.779     1.232     0.547     5.846    -3.614    -4.600
  81      -4.727     1.314     3.413    -3.008    -2.518     4.624
  82       6.330    -6.200    -0.130    -1.306     4.471    -1.046
  83      -3.565     2.001     1.564    -3.895     1.055    -5.106
  84       4.281    -5.812     1.531    -1.056    -4.574    -0.667
  85      -2.264     2.178     0.086     4.284     2.429     5.104
  86       6.677    -6.272    -0.405    -1.040     4.495     1.524
  87      -4.494     3.169     1.324    -4.606    -1.296     5.056
  88      -2.730     1.635     1.095     4.467    -2.837    -2.651
 ---------------------------------------------------------------------


 Total hyperfine coupling parameters after diagonalization (MHz)
 (convention: |A_zz| > |A_xx| > |A_yy|)
 ----------------------------------------------------------------------
  ion      A_xx      A_yy      A_zz     asymmetry (A_yy - A_xx)/ A_zz 
 ----------------------------------------------------------------------
   1       1.800     1.601     4.212      -0.047
   2      -0.139     0.025     2.841       0.058
   3       1.735     1.501     4.131      -0.057
   4       1.735     1.401     3.894      -0.086
   5       2.810     2.217     4.906      -0.121
   6       1.663     1.379     3.877      -0.073
   7       1.913     1.547     4.242      -0.086
   8       1.965     1.746     4.438      -0.049
   9       1.222     1.114     2.943      -0.037
  10       1.623     1.270     3.860      -0.092
  11      -0.238    -0.107     2.678       0.049
  12       1.177     0.975     2.960      -0.068
  13       0.321     0.153     3.270      -0.051
  14       1.931     1.713     4.160      -0.052
  15       2.461     1.936     4.610      -0.114
  16       0.793     0.711     2.863      -0.029
  17      14.166     9.912    14.419      -0.295
  18      14.285     9.978    14.405      -0.299
  19      13.276     9.171    13.804      -0.297
  20      12.465     8.358    12.722      -0.323
  21      13.894     9.731    14.008      -0.297
  22      14.068     9.721    14.247      -0.305
  23      13.803     9.577    14.145      -0.299
  24      14.457    10.225    14.782      -0.286
  25      93.056    92.596    95.466      -0.005
  26      93.528    92.078    95.683      -0.015
  27      95.330    91.375    97.733      -0.040
  28      95.189    92.540    95.773      -0.028
  29      96.875    95.361    97.170      -0.016
  30      94.726    92.167    96.759      -0.026
  31      94.586    93.044    95.189      -0.016
  32      99.890    97.862   102.835      -0.020
  33     103.180   101.031   105.441      -0.020
  34      98.271    96.181    99.732      -0.021
  35      99.248    97.476   100.330      -0.018
  36      99.561    99.082   101.836      -0.005
  37      93.682    90.398    95.249      -0.034
  38      98.381    96.644   100.862      -0.017
  39      94.342    92.199    95.066      -0.023
  40      96.264    95.212    97.605      -0.011
  41       6.298     0.080    14.882      -0.418
  42       2.276    -1.289    13.966      -0.255
  43       4.635    -0.566    12.281      -0.424
  44       6.726     1.521    15.082      -0.345
  45       3.149     0.412    13.277      -0.206
  46       7.506     1.494    16.379      -0.367
  47       1.934    -1.236    11.068      -0.286
  48       2.861     1.447    12.579      -0.112
  49       7.124     2.078    18.446      -0.274
  50       3.707     0.077    15.602      -0.233
  51       5.573    -0.256    16.733      -0.348
  52       5.571     1.707    15.835      -0.244
  53       6.596     2.432    16.772      -0.248
  54       4.909    -0.502    16.460      -0.329
  55       5.123    -0.660    13.480      -0.429
  56       2.246     0.046    15.443      -0.142
  57       6.482    -0.410    14.531      -0.474
  58       6.011     2.302    16.266      -0.228
  59       5.030     2.649    15.178      -0.157
  60       5.046     1.645    14.387      -0.236
  61       2.825    -1.953    12.507      -0.382
  62       6.484     2.823    15.268      -0.240
  63       5.210     0.168    15.270      -0.330
  64       5.986     1.487    13.712      -0.328
  65       4.984    -0.361    18.180      -0.294
  66       7.626     1.584    15.492      -0.390
  67      10.325     5.935    21.431      -0.205
  68       6.340     1.080    20.319      -0.259
  69       4.044     0.971    12.937      -0.238
  70       6.485     2.386    18.324      -0.224
  71       7.926     3.930    20.898      -0.191
  72       6.822     2.754    16.849      -0.241
  73       7.977     0.360    16.092      -0.473
  74       4.004     0.593    14.938      -0.228
  75       1.877    -0.270    11.915      -0.180
  76       8.680     3.692    21.371      -0.233
  77       3.650    -1.153    13.896      -0.346
  78      11.157     5.643    24.825      -0.222
  79       4.118     0.484    15.620      -0.233
  80       3.245     0.183    16.054      -0.191
  81       4.307     0.516    14.784      -0.256
  82       5.494     1.475    16.678      -0.241
  83      -2.303     1.609    11.667       0.335
  84       4.824     0.232    14.074      -0.326
  85       5.891     4.342    17.919      -0.086
  86       6.515     1.324    17.213      -0.302
  87       6.612     1.839    17.503      -0.273
  88       5.080     0.558    13.151      -0.344
 ---------------------------------------------------------------------



--------------------------------------------------------------------------------------------------------


 stress matrix after NEB project (eV)
    -46.57482     -4.51039     -9.22990
     -4.51164    -50.95888      3.54193
     -9.25311      3.50732    -68.52204
  FORCES: max atom, RMS     3.007566    1.196719
  FORCE total and by dimension   11.226224    2.506727
  Stress total and by dimension   98.476635   68.522045
     LOOP+:  cpu time  611.4028: real time  612.4289
    4ORBIT:  cpu time    0.0000: real time    0.0000
 


 total charge     
 
# of ion       s       p       d       tot
------------------------------------------
    1        0.048   5.990   0.000   6.038
    2        0.052   5.997   0.000   6.049
    3        0.050   5.992   0.000   6.043
    4        0.049   5.990   0.000   6.039
    5        0.050   5.993   0.000   6.044
    6        0.057   6.000   0.000   6.057
    7        0.053   5.996   0.000   6.049
    8        0.051   5.993   0.000   6.044
    9        0.046   5.988   0.000   6.034
   10        0.048   5.990   0.000   6.038
   11        0.053   5.997   0.000   6.050
   12        0.049   5.991   0.000   6.040
   13        0.052   5.997   0.000   6.050
   14        0.047   5.988   0.000   6.034
   15        0.047   5.990   0.000   6.037
   16        0.049   5.992   0.000   6.040
   17        0.149   6.128   0.084   6.361
   18        0.153   6.134   0.088   6.374
   19        0.153   6.134   0.089   6.376
   20        0.145   6.120   0.077   6.342
   21        0.145   6.121   0.078   6.344
   22        0.153   6.136   0.091   6.380
   23        0.150   6.130   0.085   6.366
   24        0.151   6.131   0.085   6.367
   25        0.380   6.463   4.844  11.687
   26        0.373   6.450   4.822  11.645
   27        0.386   6.480   4.854  11.719
   28        0.371   6.444   4.828  11.644
   29        0.368   6.439   4.813  11.620
   30        0.359   6.419   4.787  11.566
   31        0.377   6.456   4.830  11.664
   32        0.364   6.433   4.800  11.597
   33        0.376   6.462   4.843  11.682
   34        0.399   6.500   4.905  11.804
   35        0.373   6.450   4.825  11.647
   36        0.357   6.414   4.794  11.565
   37        0.373   6.443   4.831  11.647
   38        0.370   6.444   4.818  11.633
   39        0.369   6.436   4.822  11.627
   40        0.366   6.435   4.805  11.605
   41        1.596   3.497   0.000   5.093
   42        1.599   3.493   0.000   5.092
   43        1.597   3.508   0.000   5.105
   44        1.596   3.490   0.000   5.086
   45        1.598   3.510   0.000   5.108
   46        1.601   3.512   0.000   5.113
   47        1.594   3.478   0.000   5.072
   48        1.598   3.499   0.000   5.097
   49        1.600   3.495   0.000   5.094
   50        1.599   3.516   0.000   5.115
   51        1.599   3.487   0.000   5.087
   52        1.599   3.529   0.000   5.128
   53        1.598   3.493   0.000   5.091
   54        1.599   3.502   0.000   5.100
   55        1.594   3.455   0.000   5.049
   56        1.600   3.455   0.000   5.054
   57        1.598   3.486   0.000   5.083
   58        1.600   3.514   0.000   5.114
   59        1.599   3.501   0.000   5.100
   60        1.598   3.507   0.000   5.105
   61        1.598   3.507   0.000   5.105
   62        1.599   3.503   0.000   5.102
   63        1.598   3.493   0.000   5.091
   64        1.594   3.512   0.000   5.106
   65        1.604   3.537   0.000   5.141
   66        1.597   3.516   0.000   5.113
   67        1.604   3.517   0.000   5.121
   68        1.604   3.500   0.000   5.104
   69        1.599   3.522   0.000   5.121
   70        1.601   3.493   0.000   5.094
   71        1.605   3.523   0.000   5.128
   72        1.602   3.518   0.000   5.121
   73        1.599   3.494   0.000   5.093
   74        1.599   3.507   0.000   5.105
   75        1.597   3.478   0.000   5.075
   76        1.604   3.516   0.000   5.120
   77        1.599   3.519   0.000   5.118
   78        1.606   3.526   0.000   5.132
   79        1.599   3.481   0.000   5.080
   80        1.599   3.478   0.000   5.077
   81        1.599   3.516   0.000   5.115
   82        1.600   3.507   0.000   5.108
   83        1.598   3.472   0.000   5.070
   84        1.596   3.494   0.000   5.090
   85        1.600   3.505   0.000   5.105
   86        1.600   3.496   0.000   5.096
   87        1.601   3.494   0.000   5.095
   88        1.596   3.496   0.000   5.091
--------------------------------------------------
tot         84.718 416.135  77.898 578.751
 


 magnetization (x)
 
# of ion       s       p       d       tot
------------------------------------------
    1        0.002   0.000   0.000   0.002
    2        0.001   0.000   0.000   0.001
    3        0.002   0.000   0.000   0.002
    4        0.002   0.000   0.000   0.002
    5        0.002   0.001   0.000   0.003
    6        0.002   0.000   0.000   0.002
    7        0.002   0.000   0.000   0.002
    8        0.002   0.000   0.000   0.002
    9        0.001   0.001   0.000   0.002
   10        0.002  -0.000   0.000   0.002
   11        0.001   0.000   0.000   0.001
   12        0.001   0.001   0.000   0.002
   13        0.001   0.001   0.000   0.001
   14        0.002   0.000   0.000   0.002
   15        0.002   0.000   0.000   0.003
   16        0.001   0.001   0.000   0.002
   17        0.007   0.002   0.001   0.010
   18        0.007   0.002   0.001   0.010
   19        0.007   0.002   0.001   0.010
   20        0.006   0.002   0.001   0.009
   21        0.007   0.002   0.001   0.010
   22        0.007   0.003   0.001   0.011
   23        0.007   0.002   0.001   0.010
   24        0.007   0.003   0.001   0.011
   25        0.014   0.030   2.741   2.785
   26        0.015   0.029   2.748   2.792
   27        0.015   0.030   2.727   2.772
   28        0.015   0.029   2.741   2.785
   29        0.015   0.030   2.778   2.823
   30        0.014   0.028   2.803   2.845
   31        0.015   0.030   2.748   2.792
   32        0.016   0.030   2.791   2.837
   33        0.017   0.032   2.754   2.803
   34        0.016   0.031   2.687   2.734
   35        0.016   0.031   2.762   2.808
   36        0.016   0.029   2.805   2.850
   37        0.014   0.028   2.752   2.794
   38        0.016   0.030   2.771   2.817
   39        0.014   0.028   2.761   2.803
   40        0.015   0.029   2.771   2.816
   41        0.002   0.040   0.000   0.041
   42        0.002   0.014   0.000   0.016
   43        0.002   0.024   0.000   0.026
   44        0.002   0.023   0.000   0.025
   45        0.002   0.020   0.000   0.021
   46        0.002   0.041   0.000   0.043
   47        0.001   0.003   0.000   0.004
   48        0.002   0.007   0.000   0.009
   49        0.002   0.048   0.000   0.051
   50        0.002   0.027   0.000   0.028
   51        0.002   0.027   0.000   0.029
   52        0.002   0.042   0.000   0.044
   53        0.002   0.038   0.000   0.040
   54        0.002   0.025   0.000   0.027
   55        0.002   0.015   0.000   0.017
   56        0.002   0.007   0.000   0.009
   57        0.002   0.038   0.000   0.040
   58        0.002   0.040   0.000   0.042
   59        0.002   0.026   0.000   0.028
   60        0.002   0.024   0.000   0.026
   61        0.001   0.020   0.000   0.021
   62        0.002   0.037   0.000   0.039
   63        0.002   0.030   0.000   0.032
   64        0.002   0.036   0.000   0.038
   65        0.002   0.052   0.000   0.054
   66        0.002   0.040   0.000   0.043
   67        0.003   0.080   0.000   0.083
   68        0.002   0.044   0.000   0.046
   69        0.002   0.024   0.000   0.026
   70        0.002   0.040   0.000   0.042
   71        0.003   0.061   0.000   0.063
   72        0.002   0.033   0.000   0.036
   73        0.002   0.037   0.000   0.039
   74        0.002   0.021   0.000   0.023
   75        0.002  -0.008   0.000  -0.006
   76        0.003   0.067   0.000   0.070
   77        0.002   0.023   0.000   0.025
   78        0.003   0.088   0.000   0.092
   79        0.002   0.022   0.000   0.023
   80        0.002   0.016   0.000   0.018
   81        0.002   0.027   0.000   0.029
   82        0.002   0.039   0.000   0.041
   83        0.001  -0.002   0.000  -0.000
   84        0.002   0.023   0.000   0.025
   85        0.002   0.040   0.000   0.042
   86        0.002   0.035   0.000   0.037
   87        0.002   0.033   0.000   0.036
   88        0.002   0.028   0.000   0.030
--------------------------------------------------
tot          0.419   2.013  44.150  46.582
 

 total amount of memory used by VASP MPI-rank0    88190. kBytes
=======================================================================

   base      :      30000. kBytes
   nonlr-proj:      13681. kBytes
   fftplans  :        992. kBytes
   grid      :      21513. kBytes
   one-center:       2737. kBytes
   wavefun   :      19267. kBytes
 
  
  
 General timing and accounting informations for this job:
 ========================================================
  
                  Total CPU time used (sec):      629.518
                            User time (sec):      623.963
                          System time (sec):        5.555
                         Elapsed time (sec):      633.527
  
                   Maximum memory used (kb):      182664.
                   Average memory used (kb):           0.
  
                          Minor page faults:       258659
                          Major page faults:            0
                 Voluntary context switches:         3619
