 vasp.5.4.4.18Apr17-6-g9f103f2a35 (build Dec 02 2020 12:53:39) complex          
  
 executed on             LinuxIFC date 2021.07.30  23:15:07
 running on  112 total cores
 distrk:  each k-point on  112 cores,    1 groups
 distr:  one band on NCORES_PER_BAND=   1 cores,  112 groups


--------------------------------------------------------------------------------------------------------


 INCAR:
 POTCAR:    PAW_PBE Na_pv 19Sep2006               
 POTCAR:    PAW_PBE Mg_pv 13Apr2007               
 POTCAR:    PAW_PBE Mn_pv 02Aug2007               
 POTCAR:    PAW_PBE O 08Apr2002                   

 ----------------------------------------------------------------------------- 
|                                                                             |
|           W    W    AA    RRRRR   N    N  II  N    N   GGGG   !!!           |
|           W    W   A  A   R    R  NN   N  II  NN   N  G    G  !!!           |
|           W    W  A    A  R    R  N N  N  II  N N  N  G       !!!           |
|           W WW W  AAAAAA  RRRRR   N  N N  II  N  N N  G  GGG   !            |
|           WW  WW  A    A  R   R   N   NN  II  N   NN  G    G                |
|           W    W  A    A  R    R  N    N  II  N    N   GGGG   !!!           |
|                                                                             |
|      For optimal performance we recommend to set                            |
|        NCORE= 4 - approx SQRT( number of cores)                             |
|      NCORE specifies how many cores store one orbital (NPAR=cpu/NCORE).     |
|      This setting can  greatly improve the performance of VASP for DFT.     |
|      The default,   NCORE=1            might be grossly inefficient         |
|      on modern multi-core architectures or massively parallel machines.     |
|      Do your own testing !!!!                                               |
|      Unfortunately you need to use the default for GW and RPA calculations. |
|      (for HF NCORE is supported but not extensively tested yet)             |
|                                                                             |
 ----------------------------------------------------------------------------- 

 POTCAR:    PAW_PBE Na_pv 19Sep2006               
   VRHFIN =Na: p6s1                                                             
   LEXCH  = PE                                                                  
   EATOM  =   766.0439 eV,   56.3026 Ry                                         
                                                                                
   TITEL  = PAW_PBE Na_pv 19Sep2006                                             
   LULTRA =        F    use ultrasoft PP ?                                      
   IUNSCR =        1    unscreen: 0-lin 1-nonlin 2-no                           
   RPACOR =    1.800    partial core radius                                     
   POMASS =   22.990; ZVAL   =    7.000    mass and valenz                      
   RCORE  =    2.200    outmost cutoff radius                                   
   RWIGS  =    2.200; RWIGS  =    1.164    wigner-seitz radius (au A)           
   ENMAX  =  259.561; ENMIN  =  194.671 eV                                      
   ICORE  =        2    local potential                                         
   LCOR   =        T    correct aug charges                                     
   LPAW   =        T    paw PP                                                  
   EAUG   =  368.056                                                            
   DEXC   =    0.000                                                            
   RMAX   =    2.245    core radius for proj-oper                               
   RAUG   =    1.300    factor for augmentation sphere                          
   RDEP   =    2.259    radius for radial grids                                 
   RDEPT  =    1.738    core radius for aug-charge                              
                                                                                
   Atomic configuration                                                         
    5 entries                                                                   
     n  l   j            E        occ.                                          
     1  0  0.50     -1033.6933   2.0000                                         
     2  0  0.50       -56.7526   2.0000                                         
     2  1  1.50       -28.6721   6.0000                                         
     3  0  0.50        -2.7440   1.0000                                         
     3  2  1.50        -1.3606   0.0000                                         
   Description                                                                  
     l       E           TYP  RCUT    TYP  RCUT                                 
     1    -28.6720912     23  2.000                                             
     1      6.8029130     23  2.000                                             
     0     -2.7439560     23  2.200                                             
     0     34.0145650     23  2.200                                             
     2     -1.3605826     23  2.200                                             
  local pseudopotential read in
  partial core-charges read in
  partial kinetic energy density read in
  atomic valenz-charges read in
  non local Contribution for L=           1  read in
    real space projection operators read in
  non local Contribution for L=           1  read in
    real space projection operators read in
  non local Contribution for L=           0  read in
    real space projection operators read in
  non local Contribution for L=           0  read in
    real space projection operators read in
    PAW grid and wavefunctions read in
 
   number of l-projection  operators is LMAX  =           4
   number of lm-projection operators is LMMAX =           8
 
 POTCAR:    PAW_PBE Mg_pv 13Apr2007               
   VRHFIN =Mg: p6s2                                                             
   LEXCH  = PE                                                                  
   EATOM  =  1056.7344 eV,   77.6678 Ry                                         
                                                                                
   TITEL  = PAW_PBE Mg_pv 13Apr2007                                             
   LULTRA =        F    use ultrasoft PP ?                                      
   IUNSCR =        1    unscreen: 0-lin 1-nonlin 2-no                           
   RPACOR =    1.500    partial core radius                                     
   POMASS =   24.305; ZVAL   =    8.000    mass and valenz                      
   RCORE  =    2.000    outmost cutoff radius                                   
   RWIGS  =    2.000; RWIGS  =    1.058    wigner-seitz radius (au A)           
   ENMAX  =  403.929; ENMIN  =  302.947 eV                                      
   RCLOC  =    1.506    cutoff for local pot                                    
   LCOR   =        T    correct aug charges                                     
   LPAW   =        T    paw PP                                                  
   EAUG   =  758.780                                                            
   DEXC   =    0.000                                                            
   RMAX   =    2.045    core radius for proj-oper                               
   RAUG   =    1.300    factor for augmentation sphere                          
   RDEP   =    2.025    radius for radial grids                                 
   RDEPT  =    1.557    core radius for aug-charge                              
                                                                                
   Atomic configuration                                                         
    5 entries                                                                   
     n  l   j            E        occ.                                          
     1  0  0.50     -1259.6230   2.0000                                         
     2  0  0.50       -79.8442   2.0000                                         
     2  1  1.50       -46.6121   6.0000                                         
     3  0  0.50        -4.7055   2.0000                                         
     3  2  1.50        -1.3606   0.0000                                         
   Description                                                                  
     l       E           TYP  RCUT    TYP  RCUT                                 
     1    -46.6121073     23  1.600                                             
     1      2.7211652     23  1.600                                             
     0     -4.7054661     23  2.000                                             
     0     61.2262170     23  2.000                                             
     2     -1.3605826     23  2.000                                             
  local pseudopotential read in
  partial core-charges read in
  partial kinetic energy density read in
  atomic valenz-charges read in
  non local Contribution for L=           1  read in
    real space projection operators read in
  non local Contribution for L=           1  read in
    real space projection operators read in
  non local Contribution for L=           0  read in
    real space projection operators read in
  non local Contribution for L=           0  read in
    real space projection operators read in
  non local Contribution for L=           2  read in
    real space projection operators read in
    PAW grid and wavefunctions read in
 
   number of l-projection  operators is LMAX  =           5
   number of lm-projection operators is LMMAX =          13
 
 POTCAR:    PAW_PBE Mn_pv 02Aug2007               
   VRHFIN =Mn: 3p4s3d                                                           
   LEXCH  = PE                                                                  
   EATOM  =  2025.2664 eV,  148.8529 Ry                                         
                                                                                
   TITEL  = PAW_PBE Mn_pv 02Aug2007                                             
   LULTRA =        F    use ultrasoft PP ?                                      
   IUNSCR =        1    unscreen: 0-lin 1-nonlin 2-no                           
   RPACOR =    2.080    partial core radius                                     
   POMASS =   54.938; ZVAL   =   13.000    mass and valenz                      
   RCORE  =    2.300    outmost cutoff radius                                   
   RWIGS  =    2.500; RWIGS  =    1.323    wigner-seitz radius (au A)           
   ENMAX  =  269.864; ENMIN  =  202.398 eV                                      
   ICORE  =        3    local potential                                         
   LCOR   =        T    correct aug charges                                     
   LPAW   =        T    paw PP                                                  
   EAUG   =  569.085                                                            
   DEXC   =    0.000                                                            
   RMAX   =    2.343    core radius for proj-oper                               
   RAUG   =    1.300    factor for augmentation sphere                          
   RDEP   =    2.338    radius for radial grids                                 
   RDEPT  =    1.798    core radius for aug-charge                              
                                                                                
   Atomic configuration                                                         
    8 entries                                                                   
     n  l   j            E        occ.                                          
     1  0  0.50     -6424.8287   2.0000                                         
     2  0  0.50      -739.1154   2.0000                                         
     2  1  1.50      -625.3949   6.0000                                         
     3  0  0.50       -81.6100   2.0000                                         
     3  1  1.50       -50.4667   6.0000                                         
     3  2  2.50        -3.3745   6.0000                                         
     4  0  0.50        -4.1331   1.0000                                         
     4  3  2.50        -1.3606   0.0000                                         
   Description                                                                  
     l       E           TYP  RCUT    TYP  RCUT                                 
     1    -50.4666628     23  2.000                                             
     1     -1.3605826     23  2.000                                             
     2     -3.3744729     23  2.300                                             
     2     -4.7350555     23  2.300                                             
     0     -4.1331431     23  2.300                                             
     0      7.6656591     23  2.300                                             
     3      9.5240782     23  2.300                                             
  local pseudopotential read in
  partial core-charges read in
  partial kinetic energy density read in
  atomic valenz-charges read in
  non local Contribution for L=           1  read in
    real space projection operators read in
  non local Contribution for L=           1  read in
    real space projection operators read in
  non local Contribution for L=           2  read in
    real space projection operators read in
  non local Contribution for L=           2  read in
    real space projection operators read in
  non local Contribution for L=           0  read in
    real space projection operators read in
  non local Contribution for L=           0  read in
    real space projection operators read in
    PAW grid and wavefunctions read in
 
   number of l-projection  operators is LMAX  =           6
   number of lm-projection operators is LMMAX =          18
 
 POTCAR:    PAW_PBE O 08Apr2002                   
   VRHFIN =O: s2p4                                                              
   LEXCH  = PE                                                                  
   EATOM  =   432.3788 eV,   31.7789 Ry                                         
                                                                                
   TITEL  = PAW_PBE O 08Apr2002                                                 
   LULTRA =        F    use ultrasoft PP ?                                      
   IUNSCR =        1    unscreen: 0-lin 1-nonlin 2-no                           
   RPACOR =    1.200    partial core radius                                     
   POMASS =   16.000; ZVAL   =    6.000    mass and valenz                      
   RCORE  =    1.520    outmost cutoff radius                                   
   RWIGS  =    1.550; RWIGS  =    0.820    wigner-seitz radius (au A)           
   ENMAX  =  400.000; ENMIN  =  300.000 eV                                      
   ICORE  =        2    local potential                                         
   LCOR   =        T    correct aug charges                                     
   LPAW   =        T    paw PP                                                  
   EAUG   =  605.392                                                            
   DEXC   =    0.000                                                            
   RMAX   =    1.553    core radius for proj-oper                               
   RAUG   =    1.300    factor for augmentation sphere                          
   RDEP   =    1.550    radius for radial grids                                 
   RDEPT  =    1.329    core radius for aug-charge                              
                                                                                
   Atomic configuration                                                         
    4 entries                                                                   
     n  l   j            E        occ.                                          
     1  0  0.50      -514.6923   2.0000                                         
     2  0  0.50       -23.9615   2.0000                                         
     2  1  0.50        -9.0305   4.0000                                         
     3  2  1.50        -9.5241   0.0000                                         
   Description                                                                  
     l       E           TYP  RCUT    TYP  RCUT                                 
     0    -23.9615318     23  1.200                                             
     0     -9.5240782     23  1.200                                             
     1     -9.0304911     23  1.520                                             
     1      8.1634956     23  1.520                                             
     2     -9.5240782      7  1.500                                             
  local pseudopotential read in
  partial core-charges read in
  partial kinetic energy density read in
  kinetic energy density of atom read in
  atomic valenz-charges read in
  non local Contribution for L=           0  read in
    real space projection operators read in
  non local Contribution for L=           0  read in
    real space projection operators read in
  non local Contribution for L=           1  read in
    real space projection operators read in
  non local Contribution for L=           1  read in
    real space projection operators read in
    PAW grid and wavefunctions read in
 
   number of l-projection  operators is LMAX  =           4
   number of lm-projection operators is LMMAX =           8
 
 Optimization of the real space projectors (new method)

 maximal supplied QI-value         = 17.01
 optimisation between [QCUT,QGAM] = [ 10.20, 20.41] = [ 29.16,116.64] Ry 
 Optimized for a Real-space Cutoff    1.30 Angstroem

   l    n(q)    QCUT    max X(q) W(low)/X(q) W(high)/X(q)  e(spline) 
   1      7    10.205     4.940    0.23E-03    0.84E-03    0.11E-06
   1      7    10.205     6.253    0.40E-03    0.13E-02    0.18E-06
   0      8    10.205    37.438    0.23E-03    0.37E-03    0.42E-07
   0      8    10.205     9.606    0.16E-03    0.26E-03    0.31E-07
 Optimization of the real space projectors (new method)

 maximal supplied QI-value         = 18.90
 optimisation between [QCUT,QGAM] = [ 10.20, 20.41] = [ 29.16,116.64] Ry 
 Optimized for a Real-space Cutoff    1.26 Angstroem

   l    n(q)    QCUT    max X(q) W(low)/X(q) W(high)/X(q)  e(spline) 
   1      7    10.205     2.974    0.63E-04    0.14E-03    0.13E-06
   1      7    10.205     4.279    0.11E-03    0.45E-03    0.24E-06
   0      8    10.205    16.381    0.44E-03    0.15E-03    0.55E-07
   0      8    10.205     5.611    0.31E-03    0.11E-03    0.40E-07
   2      7    10.205     4.652    0.50E-03    0.47E-03    0.57E-07
 Optimization of the real space projectors (new method)

 maximal supplied QI-value         = 16.25
 optimisation between [QCUT,QGAM] = [ 10.24, 20.48] = [ 29.35,117.42] Ry 
 Optimized for a Real-space Cutoff    1.34 Angstroem

   l    n(q)    QCUT    max X(q) W(low)/X(q) W(high)/X(q)  e(spline) 
   1      8    10.239     3.658    0.23E-03    0.30E-03    0.98E-07
   1      8    10.239     5.612    0.32E-03    0.65E-03    0.21E-06
   2      7    10.239    55.373    0.42E-03    0.45E-03    0.65E-07
   2      7    10.239    50.863    0.43E-03    0.48E-03    0.67E-07
   0      8    10.239    79.536    0.11E-03    0.21E-03    0.56E-07
   0      8    10.239    38.668    0.96E-04    0.19E-03    0.52E-07
 Optimization of the real space projectors (new method)

 maximal supplied QI-value         = 24.76
 optimisation between [QCUT,QGAM] = [ 10.15, 20.30] = [ 28.85,115.39] Ry 
 Optimized for a Real-space Cutoff    1.38 Angstroem

   l    n(q)    QCUT    max X(q) W(low)/X(q) W(high)/X(q)  e(spline) 
   0      8    10.150    20.381    0.22E-03    0.32E-03    0.29E-06
   0      8    10.150    15.268    0.23E-03    0.35E-03    0.30E-06
   1      8    10.150     5.964    0.46E-03    0.53E-03    0.21E-06
   1      8    10.150     5.382    0.38E-03    0.45E-03    0.19E-06
  PAW_PBE Na_pv 19Sep2006               :
 energy of atom  1       EATOM= -766.0439
 kinetic energy error for atom=    0.0103 (will be added to EATOM!!)
  PAW_PBE Mg_pv 13Apr2007               :
 energy of atom  2       EATOM=-1056.7344
 kinetic energy error for atom=    0.0820 (will be added to EATOM!!)
  PAW_PBE Mn_pv 02Aug2007               :
 energy of atom  3       EATOM=-2025.2664
 kinetic energy error for atom=    0.0284 (will be added to EATOM!!)
  PAW_PBE O 08Apr2002                   :
 energy of atom  4       EATOM= -432.3788
 kinetic energy error for atom=    0.1156 (will be added to EATOM!!)
 
 
 POSCAR: Na Mg Mn  O                             
  positions in cartesian coordinates
  No initial velocities read in

 METAGGA = SCAN     LMAXTAU =  6    LMIXTAU =  F

 exchange correlation table for  LEXCH =        8
   RHO(1)=    0.500       N(1)  =     2000
   RHO(2)=  100.500       N(2)  =     4000

 VTST: version 3.2, (02/03/18)

 CHAIN: initializing optimizer
 
 OPT: Using VASP Dynamics algorithm
 CHAIN: Read ICHAIN            0
 
 POSCAR: Na Mg Mn  O                             
  positions in cartesian coordinates
  No initial velocities read in
 


--------------------------------------------------------------------------------------------------------


 ion  position               nearest neighbor table
   1  0.659  0.022  0.235-  54 2.29  53 2.35
   2  0.953  0.501  0.754-  60 2.30  83 2.36  37 2.78  39 2.85
   3  0.308  0.190  0.739-  45 2.27  26 2.92
   4  0.610  0.631  0.754-  71 2.15  68 2.28  82 2.32
   5  0.533  0.267  0.242-  52 2.22  43 2.25  53 2.33  28 2.95
   6  0.463  0.550  0.253-  87 2.24  78 2.31  74 2.35  65 2.38  33 2.84  35 2.88
   7  0.823  0.041  0.754-  61 2.22  58 2.28
   8  0.422  0.819  0.751-  84 2.26  85 2.26  81 2.36
   9  0.111  0.311  0.248-  41 2.32  50 2.32  64 2.36  32 2.90
  10  0.122  0.999  0.236-  67 2.32  41 2.38
  11  0.799  0.745  0.266-  76 2.30  74 2.30
  12  0.192  0.406  0.764-  48 2.22  80 2.26  45 2.37  19 2.64  32 2.98
  13  0.010  0.840  0.742-  70 2.15  44 2.27  73 2.36  36 2.96
  14  0.616  0.206  0.745-  46 2.16
  15  0.287  0.792  0.265-  86 2.27  88 2.31  51 2.37
  16  0.945  0.504  0.248-  75 2.22  55 2.24  37 2.78  39 2.85
  17  0.629  0.351  0.005-  60 1.97  53 2.00  66 2.02  49 2.04  71 2.05  43 2.22  30 2.81  29 2.83
                            37 2.85
  18  0.297  0.174  0.487-  52 1.97  44 2.04  50 2.04  45 2.12  46 2.14  51 2.18  35 2.82  32 2.84

  19  0.133  0.362  0.994-  61 1.99  83 2.01  48 2.02  55 2.10  78 2.14  41 2.15  12 2.64  33 2.82
                            30 2.85
  20  0.810  0.172  0.495-  58 1.97  64 1.99  57 2.08  56 2.09  63 2.09  62 2.12  32 2.76  39 2.80

  21  0.126  0.860  0.997-  67 1.98  77 1.99  73 2.00  84 2.08  47 2.10  42 2.13  26 2.83  25 2.84
                            38 2.84
  22  0.797  0.663  0.509-  68 2.03  74 2.03  75 2.06  70 2.10  76 2.12  69 2.14  28 2.76
  23  0.643  0.865  0.998-  72 2.00  65 2.05  79 2.09  54 2.11  85 2.13  59 2.20  34 2.77  25 2.81

  24  0.294  0.658  0.497-  86 2.02  87 2.05  88 2.09  80 2.10  82 2.11  81 2.17  35 2.81  39 2.83
                            32 2.84
  25  0.966  0.027  0.992-  47 1.83  67 1.86  54 1.88  41 1.93  72 1.98  61 2.00  23 2.81  21 2.84
                            26 2.84  34 2.87  30 2.94
  26  0.294  0.186  0.999-  42 1.85  41 1.86  48 1.90  49 1.91  43 1.97  47 2.03  21 2.83  25 2.84
                            29 2.87  33 2.89   3 2.92
  27  0.964  0.995  0.501-  50 1.89  44 1.90  63 1.91  76 1.91  58 1.94  69 1.99  36 2.90  40 2.90
                            32 2.91
  28  0.639  0.346  0.490-  52 1.88  75 1.89  62 1.91  57 1.96  68 1.99  46 2.00  22 2.76  39 2.86
                            35 2.89  31 2.92   5 2.95
  29  0.464  0.025  0.997-  59 1.88  84 1.88  79 1.89  49 1.89  42 1.90  53 1.92  38 2.82  17 2.83
                            26 2.87  30 2.96
  30  0.805  0.204  0.002-  54 1.83  60 1.89  55 1.92  61 1.92  53 1.92  59 2.00  17 2.81  37 2.83
                            19 2.85  25 2.94  29 2.96
  31  0.467  0.009  0.493-  62 1.87  51 1.89  81 1.91  46 1.91  56 1.92  88 1.99  36 2.85  40 2.91
                            28 2.92
  32  0.128  0.331  0.506-  58 1.90  45 1.91  80 1.91  87 1.96  64 1.98  50 1.99  20 2.76  39 2.81
                            24 2.84  18 2.84  35 2.87   9 2.90  27 2.91  12 2.98
  33  0.458  0.518  0.002-  71 1.86  48 1.89  43 1.89  78 1.98  65 2.03  85 2.06  19 2.82   6 2.84
                            26 2.89  34 2.91  38 3.00
  34  0.793  0.696  0.001-  65 1.87  67 1.89  72 1.90  66 1.91  71 1.92  73 1.94  23 2.77  25 2.87
                            37 2.88  33 2.91
  35  0.459  0.498  0.507-  68 1.83  45 1.87  87 1.93  74 1.94  82 1.95  52 1.96  24 2.81  18 2.82
                            32 2.87   6 2.88  28 2.89  40 2.94
  36  0.139  0.837  0.505-  81 1.78  70 1.87  76 1.90  44 1.92  86 1.93  51 2.04  31 2.85  27 2.90
                            13 2.96  39 2.97
  37  0.958  0.529  0.001-  60 1.83  73 1.85  77 1.89  83 1.91  55 1.95  66 1.95   2 2.78  16 2.78
                            30 2.83  17 2.85  34 2.88  38 2.92
  38  0.294  0.700  1.000-  84 1.79  85 1.94  83 1.94  77 1.97  78 1.98  79 1.98  29 2.82  21 2.84
                            37 2.92  33 3.00
  39  0.968  0.494  0.501-  64 1.86  57 1.86  86 1.88  80 1.91  75 1.97  70 2.12  20 2.80  32 2.81
                            24 2.83  16 2.85   2 2.85  28 2.86  36 2.97
  40  0.630  0.837  0.512-  63 1.89  56 1.90  69 1.90  82 1.93  74 1.97  88 1.98  27 2.90  31 2.91
                            35 2.94
  41  0.134  0.176  0.089-  26 1.86  25 1.93  19 2.15   9 2.32  10 2.38
  42  0.315  0.042  0.089-  26 1.85  29 1.90  21 2.13
  43  0.439  0.357  0.101-  33 1.89  26 1.97  17 2.22   5 2.25
  44  0.130  0.001  0.586-  27 1.90  36 1.92  18 2.04  13 2.27
  45  0.297  0.346  0.596-  35 1.87  32 1.91  18 2.12   3 2.27  12 2.37
  46  0.479  0.173  0.588-  31 1.91  28 2.00  18 2.14  14 2.16
  47  0.117  0.031  0.896-  25 1.83  26 2.03  21 2.10
  48  0.307  0.353  0.911-  33 1.89  26 1.90  19 2.02  12 2.22
  49  0.453  0.181  0.910-  29 1.89  26 1.91  17 2.04
  50  0.108  0.158  0.405-  27 1.89  32 1.99  18 2.04   9 2.32
  51  0.306  0.989  0.393-  31 1.89  36 2.04  18 2.18  15 2.37
  52  0.476  0.346  0.408-  28 1.88  35 1.96  18 1.97   5 2.22
  53  0.631  0.177  0.092-  29 1.92  30 1.92  17 2.00   5 2.33   1 2.35
  54  0.825  0.056  0.083-  30 1.83  25 1.88  23 2.11   1 2.29
  55  0.961  0.368  0.096-  30 1.92  37 1.95  19 2.10  16 2.24
  56  0.621  0.002  0.589-  40 1.90  31 1.92  20 2.09
  57  0.801  0.347  0.588-  39 1.86  28 1.96  20 2.08
  58  0.970  0.163  0.591-  32 1.90  27 1.94  20 1.97   7 2.28
  59  0.629  0.050  0.902-  29 1.88  30 2.00  23 2.20
  60  0.807  0.367  0.916-  37 1.83  30 1.89  17 1.97   2 2.30
  61  0.958  0.196  0.903-  30 1.92  19 1.99  25 2.00   7 2.22
  62  0.624  0.173  0.406-  31 1.87  28 1.91  20 2.12
  63  0.793  0.977  0.412-  40 1.89  27 1.91  20 2.09
  64  0.976  0.348  0.404-  39 1.86  32 1.98  20 1.99   9 2.36
  65  0.635  0.689  0.095-  34 1.87  33 2.03  23 2.05   6 2.38
  66  0.795  0.536  0.092-  34 1.91  37 1.95  17 2.02
  67  0.955  0.865  0.082-  25 1.86  34 1.89  21 1.98  10 2.32
  68  0.611  0.492  0.593-  35 1.83  28 1.99  22 2.03   4 2.28
  69  0.793  0.845  0.605-  40 1.90  27 1.99  22 2.14
  70  0.989  0.683  0.602-  36 1.87  22 2.10  39 2.12  13 2.15
  71  0.624  0.529  0.919-  33 1.86  34 1.92  17 2.05   4 2.15
  72  0.804  0.853  0.900-  34 1.90  25 1.98  23 2.00
  73  0.952  0.683  0.912-  37 1.85  34 1.94  21 2.00  13 2.36
  74  0.623  0.666  0.419-  35 1.94  40 1.97  22 2.03  11 2.30   6 2.35
  75  0.807  0.500  0.404-  28 1.89  39 1.97  22 2.06  16 2.22
  76  0.983  0.842  0.413-  36 1.90  27 1.91  22 2.12  11 2.30
  77  0.120  0.688  0.090-  37 1.89  38 1.97  21 1.99
  78  0.308  0.544  0.099-  33 1.98  38 1.98  19 2.14   6 2.31
  79  0.464  0.868  0.092-  29 1.89  38 1.98  23 2.09
  80  0.117  0.484  0.600-  39 1.91  32 1.91  24 2.10  12 2.26
  81  0.301  0.854  0.584-  36 1.78  31 1.91  24 2.17   8 2.36
  82  0.473  0.667  0.603-  40 1.93  35 1.95  24 2.11   4 2.32
  83  0.124  0.537  0.912-  37 1.91  38 1.94  19 2.01   2 2.36
  84  0.309  0.857  0.912-  38 1.79  29 1.88  21 2.08   8 2.26
  85  0.450  0.689  0.905-  38 1.94  33 2.06  23 2.13   8 2.26
  86  0.118  0.663  0.414-  39 1.88  36 1.93  24 2.02  15 2.27
  87  0.296  0.482  0.405-  35 1.93  32 1.96  24 2.05   6 2.24
  88  0.474  0.840  0.406-  40 1.98  31 1.99  24 2.09  15 2.31
 
  LATTYP: Found a hexagonal cell.
 ALAT       =    10.0190000534
 C/A-ratio  =     1.1196726572
  
  Lattice vectors:
  
 A1 = (  10.0190000534,   0.0000000000,   0.0000000000)
 A2 = (  -5.0095000267,   8.6767085668,   0.0000000000)
 A3 = (   0.0000000000,   0.0000000000,  11.2180004120)


Analysis of symmetry for initial positions (statically):
=====================================================================
 Subroutine PRICEL returns:
 Original cell was already a primitive cell.
 

 Routine SETGRP: Setting up the symmetry group for a 
 hexagonal supercell.


 Subroutine GETGRP returns: Found  1 space group operations
 (whereof  1 operations were pure point group operations)
 out of a pool of 24 trial point group operations.


The static configuration has the point symmetry C_1 .


Analysis of symmetry for dynamics (positions and initial velocities):
=====================================================================
 Subroutine PRICEL returns:
 Original cell was already a primitive cell.
 

 Routine SETGRP: Setting up the symmetry group for a 
 hexagonal supercell.


 Subroutine GETGRP returns: Found  1 space group operations
 (whereof  1 operations were pure point group operations)
 out of a pool of 24 trial point group operations.


The dynamic configuration has the point symmetry C_1 .


Analysis of structural, dynamic, and magnetic symmetry:
=====================================================================
 Subroutine PRICEL returns:
 Original cell was already a primitive cell.
 

 Routine SETGRP: Setting up the symmetry group for a 
 hexagonal supercell.


 Subroutine GETGRP returns: Found  1 space group operations
 (whereof  1 operations were pure point group operations)
 out of a pool of 24 trial point group operations.


The magnetic configuration has the point symmetry C_1 .


 Subroutine INISYM returns: Found  1 space group operations
 (whereof  1 operations are pure point group operations),
 and found     1 'primitive' translations

 
 

Automatic generation of k-mesh.
 generate k-points for:    2    2    2
Space group operators:
 irot       det(A)        alpha          n_x          n_y          n_z        tau_x        tau_y        tau_z
    1     1.000000     0.000000     1.000000     0.000000     0.000000     0.000000     0.000000     0.000000
 
 Subroutine IBZKPT returns following result:
 ===========================================
 
 Found      8 irreducible k-points:
 
 Following reciprocal coordinates:
            Coordinates               Weight
  0.000000  0.000000  0.000000      1.000000
  0.500000 -0.000000 -0.000000      1.000000
  0.000000  0.500000  0.000000      1.000000
  0.500000  0.500000 -0.000000      1.000000
  0.000000  0.000000  0.500000      1.000000
  0.500000 -0.000000  0.500000      1.000000
  0.000000  0.500000  0.500000      1.000000
  0.500000  0.500000  0.500000      1.000000
 
 Following cartesian coordinates:
            Coordinates               Weight
  0.000000  0.000000  0.000000      1.000000
  0.049905  0.028813 -0.000000      1.000000
  0.000000  0.057626  0.000000      1.000000
  0.049905  0.086438 -0.000000      1.000000
  0.000000  0.000000  0.044571      1.000000
  0.049905  0.028813  0.044571      1.000000
  0.000000  0.057626  0.044571      1.000000
  0.049905  0.086438  0.044571      1.000000
 


--------------------------------------------------------------------------------------------------------




 Dimension of arrays:
   k-points           NKPTS =      8   k-points in BZ     NKDIM =      8   number of bands    NBANDS=    448
   number of dos      NEDOS =    301   number of ions     NIONS =     88
   non local maximal  LDIM  =      6   non local SUM 2l+1 LMDIM =     18
   total plane-waves  NPLWV = 140000
   max r-space proj   IRMAX =   1632   max aug-charges    IRDMAX=   4555
   dimension x,y,z NGX =    50 NGY =   50 NGZ =   56
   dimension x,y,z NGXF=   100 NGYF=  100 NGZF=  112
   support grid    NGXF=   100 NGYF=  100 NGZF=  112
   ions per type =              16   8  16  48
   NGX,Y,Z   is equivalent  to a cutoff of   8.30,  8.30,  8.30 a.u.
   NGXF,Y,Z  is equivalent  to a cutoff of  16.59, 16.59, 16.60 a.u.

 SYSTEM =  unknown system                          
 POSCAR =  Na Mg Mn  O                             

 Startparameter for this run:
   NWRITE =      2    write-flag & timer
   PREC   = normal    normal or accurate (medium, high low for compatibility)
   ISTART =      0    job   : 0-new  1-cont  2-samecut
   ICHARG =      1    charge: 1-file 2-atom 10-const
   ISPIN  =      2    spin polarized calculation?
   LNONCOLLINEAR =      F non collinear calculations
   LSORBIT =      F    spin-orbit coupling
   INIWAV =      1    electr: 0-lowe 1-rand  2-diag
   LASPH  =      T    aspherical Exc in radial PAW
   METAGGA=      F    non-selfconsistent MetaGGA calc.

 Electronic Relaxation 1
   ENCUT  =  400.0 eV  29.40 Ry    5.42 a.u.  16.34 16.34 18.29*2*pi/ulx,y,z
   ENINI  =  400.0     initial cutoff
   ENAUG  =  758.8 eV  augmentation charge cutoff
   NELM   =    200;   NELMIN=  6; NELMDL=-12     # of ELM steps 
   EDIFF  = 0.1E-04   stopping-criterion for ELM
   LREAL  =      T    real-space projection
   NLSPLINE    = F    spline interpolate recip. space projectors
   LCOMPAT=      F    compatible to vasp.4.4
   GGA_COMPAT  = T    GGA compatible to vasp.4.4-vasp.4.6
   LMAXPAW     = -100 max onsite density
   LMAXMIX     =    4 max onsite mixed and CHGCAR
   VOSKOWN=      0    Vosko Wilk Nusair interpolation
   ROPT   =   -0.00050  -0.00050  -0.00050  -0.00050
 Ionic relaxation
   EDIFFG = 0.1E-03   stopping-criterion for IOM
   NSW    =      1    number of steps for IOM
   NBLOCK =      1;   KBLOCK =      1    inner block; outer block 
   IBRION =     -1    ionic relax: 0-MD 1-quasi-New 2-CG
   NFREE  =      0    steps in history (QN), initial steepest desc. (CG)
   ISIF   =      2    stress and relaxation
   IWAVPR =     10    prediction:  0-non 1-charg 2-wave 3-comb
   ISYM   =      2    0-nonsym 1-usesym 2-fastsym
   LCORR  =      T    Harris-Foulkes like correction to forces

   POTIM  = 0.5000    time-step for ionic-motion
   TEIN   =    0.0    initial temperature
   TEBEG  =    0.0;   TEEND  =   0.0 temperature during run
   SMASS  =  -3.00    Nose mass-parameter (am)
   estimated Nose-frequenzy (Omega)   =  0.10E-29 period in steps =****** mass=  -0.229E-26a.u.
   SCALEE = 1.0000    scale energy and forces
   NPACO  =    256;   APACO  = 16.0  distance and # of slots for P.C.
   PSTRESS=    0.0 pullay stress

  Mass of Ions in am
   POMASS =  22.99 24.30 54.94 16.00
  Ionic Valenz
   ZVAL   =   7.00  8.00 13.00  6.00
  Atomic Wigner-Seitz radii
   RWIGS  =  -1.00 -1.00 -1.00 -1.00
  virtual crystal weights 
   VCA    =   1.00  1.00  1.00  1.00
   NELECT =     672.0000    total number of electrons
   NUPDOWN=      48.0000    fix difference up-down

 DOS related values:
   EMIN   =  10.00;   EMAX   =-10.00  energy-range for DOS
   EFERMI =   0.00
   ISMEAR =     0;   SIGMA  =   0.05  broadening in eV -4-tet -1-fermi 0-gaus

 Electronic relaxation 2 (details)
   IALGO  =     48    algorithm
   LDIAG  =      T    sub-space diagonalisation (order eigenvalues)
   LSUBROT=      F    optimize rotation matrix (better conditioning)
   TURBO    =      0    0=normal 1=particle mesh
   IRESTART =      0    0=no restart 2=restart with 2 vectors
   NREBOOT  =      0    no. of reboots
   NMIN     =      0    reboot dimension
   EREF     =   0.00    reference energy to select bands
   IMIX   =      4    mixing-type and parameters
     AMIX     =   0.40;   BMIX     =  1.00
     AMIX_MAG =   1.60;   BMIX_MAG =  1.00
     AMIN     =   0.10
     WC   =   100.;   INIMIX=   1;  MIXPRE=   1;  MAXMIX= -45

 Intra band minimization:
   WEIMIN = 0.0000     energy-eigenvalue tresh-hold
   EBREAK =  0.56E-08  absolut break condition
   DEPER  =   0.30     relativ break condition  

   TIME   =   0.40     timestep for ELM

  volume/ion in A,a.u.               =      11.08        74.78
  Fermi-wavevector in a.u.,A,eV,Ry     =   1.445993  2.732531 28.448379  2.090897
  Thomas-Fermi vector in A             =   2.564112
 
 Write flags
   LWAVE        =      F    write WAVECAR
   LDOWNSAMPLE  =      F    k-point downsampling of WAVECAR
   LCHARG       =      F    write CHGCAR
   LVTOT        =      F    write LOCPOT, total local potential
   LVHAR        =      F    write LOCPOT, Hartree potential only
   LELF         =      F    write electronic localiz. function (ELF)
   LORBIT       =     11    0 simple, 1 ext, 2 COOP (PROOUT), +10 PAW based schemes


 Dipole corrections
   LMONO  =      F    monopole corrections only (constant potential shift)
   LDIPOL =      F    correct potential (dipole corrections)
   IDIPOL =      0    1-x, 2-y, 3-z, 4-all directions 
   EPSILON=  1.0000000 bulk dielectric constant

 Exchange correlation treatment:
   GGA     =    --    GGA type
   LEXCH   =     8    internal setting for exchange type
   VOSKOWN=      0    Vosko Wilk Nusair interpolation
   LHFCALC =     F    Hartree Fock is set to
   LHFONE  =     F    Hartree Fock one center treatment
   AEXX    =    0.0000 exact exchange contribution

 Linear response parameters
   LEPSILON=     F    determine dielectric tensor
   LRPA    =     F    only Hartree local field effects (RPA)
   LNABLA  =     F    use nabla operator in PAW spheres
   LVEL    =     F    velocity operator in full k-point grid
   LINTERFAST=   F  fast interpolation
   KINTER  =     0    interpolate to denser k-point grid
   CSHIFT  =0.1000    complex shift for real part using Kramers Kronig
   OMEGAMAX=  -1.0    maximum frequency
   DEG_THRESHOLD= 0.2000000E-02 threshold for treating states as degnerate
   RTIME   =   -0.100 relaxation time in fs
  (WPLASMAI=    0.000 imaginary part of plasma frequency in eV, 0.658/RTIME)
   DFIELD  = 0.0000000 0.0000000 0.0000000 field for delta impulse in time
 
 Orbital magnetization related:
   ORBITALMAG=     F  switch on orbital magnetization
   LCHIMAG   =     F  perturbation theory with respect to B field
   DQ        =  0.001000  dq finite difference perturbation B field
   LLRAUG    =     F  two centre corrections for induced B field



--------------------------------------------------------------------------------------------------------


 Static calculation
 charge density and potential will be updated during run
 spin polarized calculation
 RMM-DIIS sequential band-by-band
 perform sub-space diagonalisation
    before iterative eigenvector-optimisation
 modified Broyden-mixing scheme, WC =      100.0
 initial mixing is a Kerker type mixing with AMIX =  0.4000 and BMIX =      1.0000
 Hartree-type preconditioning will be used
 using additional bands          112
 real space projection scheme for non local part
 use partial core corrections
 calculate Harris-corrections to forces 
   (improved forces if not selfconsistent)
 use gradient corrections 
 use of overlap-Matrix (Vanderbilt PP)
 Gauss-broadening in eV      SIGMA  =   0.05


--------------------------------------------------------------------------------------------------------


  energy-cutoff  :      400.00
  volume of cell :      975.20
      direct lattice vectors                 reciprocal lattice vectors
    10.019000053  0.000000000  0.000000000     0.099810360  0.057625538 -0.000000000
    -5.009500027  8.676708567  0.000000000     0.000000000  0.115251076  0.000000000
     0.000000000  0.000000000 11.218000412     0.000000000  0.000000000  0.089142446

  length of vectors
    10.019000053 10.019000053 11.218000412     0.115251076  0.115251076  0.089142446


 
 k-points in units of 2pi/SCALE and weight: read from INCAR                         
   0.00000000  0.00000000  0.00000000       0.125
   0.04990518  0.02881277 -0.00000000       0.125
   0.00000000  0.05762554  0.00000000       0.125
   0.04990518  0.08643831 -0.00000000       0.125
   0.00000000  0.00000000  0.04457122       0.125
   0.04990518  0.02881277  0.04457122       0.125
   0.00000000  0.05762554  0.04457122       0.125
   0.04990518  0.08643831  0.04457122       0.125
 
 k-points in reciprocal lattice and weights: read from INCAR                         
   0.00000000  0.00000000  0.00000000       0.125
   0.50000000 -0.00000000 -0.00000000       0.125
   0.00000000  0.50000000  0.00000000       0.125
   0.50000000  0.50000000 -0.00000000       0.125
   0.00000000  0.00000000  0.50000000       0.125
   0.50000000 -0.00000000  0.50000000       0.125
   0.00000000  0.50000000  0.50000000       0.125
   0.50000000  0.50000000  0.50000000       0.125
 
 position of ions in fractional coordinates (direct lattice) 
   0.65869803  0.02239658  0.23514886
   0.95315740  0.50072542  0.75445888
   0.30835741  0.19048467  0.73876089
   0.61012386  0.63096737  0.75385003
   0.53338769  0.26670153  0.24175788
   0.46280981  0.54954216  0.25342663
   0.82282674  0.04110015  0.75385806
   0.42239678  0.81931397  0.75121588
   0.11139721  0.31062355  0.24811374
   0.12211807  0.99917974  0.23632197
   0.79868715  0.74470635  0.26551702
   0.19194523  0.40593537  0.76357815
   0.01047158  0.83984727  0.74158938
   0.61584574  0.20649535  0.74524601
   0.28733116  0.79219902  0.26452219
   0.94467693  0.50432142  0.24751203
   0.62944132  0.35112739  0.00491618
   0.29722386  0.17383089  0.48688980
   0.13330259  0.36230674  0.99408090
   0.80994526  0.17205142  0.49514172
   0.12594722  0.85953792  0.99725107
   0.79733517  0.66271904  0.50921285
   0.64291283  0.86504115  0.99777093
   0.29412884  0.65774365  0.49747992
   0.96637357  0.02672458  0.99189439
   0.29371451  0.18561647  0.99888498
   0.96390122  0.99520498  0.50086021
   0.63860670  0.34588692  0.49032713
   0.46448005  0.02519405  0.99720042
   0.80522978  0.20366248  0.00150647
   0.46716645  0.00900303  0.49253965
   0.12794649  0.33075215  0.50583970
   0.45785982  0.51837860  0.00166064
   0.79283077  0.69637120  0.00095414
   0.45858216  0.49819237  0.50670528
   0.13911603  0.83667902  0.50466659
   0.95782109  0.52937009  0.00076730
   0.29425409  0.70043611  0.99971712
   0.96793257  0.49441790  0.50057406
   0.62997359  0.83696484  0.51201906
   0.13364312  0.17557349  0.08908379
   0.31463021  0.04231962  0.08878543
   0.43918666  0.35727142  0.10095917
   0.13025861  0.00067093  0.58622301
   0.29654985  0.34559994  0.59645478
   0.47867826  0.17291695  0.58769832
   0.11676929  0.03118706  0.89611336
   0.30705604  0.35349925  0.91082186
   0.45331081  0.18093843  0.90955604
   0.10827788  0.15832040  0.40489836
   0.30610429  0.98867329  0.39252093
   0.47552500  0.34625111  0.40819396
   0.63064823  0.17744978  0.09217062
   0.82545726  0.05628632  0.08336593
   0.96051817  0.36776157  0.09562489
   0.62148593  0.00171625  0.58857459
   0.80117553  0.34666486  0.58830805
   0.96992259  0.16276564  0.59142358
   0.62933806  0.04986488  0.90202350
   0.80732243  0.36732477  0.91641109
   0.95836329  0.19577239  0.90300407
   0.62361361  0.17292041  0.40636297
   0.79254213  0.97726113  0.41233819
   0.97592701  0.34770789  0.40441254
   0.63495744  0.68852952  0.09523266
   0.79514996  0.53619872  0.09158852
   0.95480452  0.86456863  0.08153681
   0.61087036  0.49198725  0.59288641
   0.79302494  0.84505777  0.60462825
   0.98900269  0.68273239  0.60197983
   0.62363307  0.52893098  0.91921908
   0.80365784  0.85280725  0.89958991
   0.95182500  0.68269782  0.91237294
   0.62300441  0.66639210  0.41903368
   0.80658398  0.49961572  0.40362006
   0.98252369  0.84159793  0.41293990
   0.11975968  0.68762595  0.09039222
   0.30774865  0.54406921  0.09871991
   0.46409030  0.86841455  0.09163130
   0.11717200  0.48429309  0.60027989
   0.30072026  0.85444382  0.58402476
   0.47345392  0.66674015  0.60286680
   0.12431222  0.53663321  0.91218574
   0.30934738  0.85707385  0.91232837
   0.45012049  0.68886260  0.90512566
   0.11833321  0.66306825  0.41398198
   0.29570122  0.48187973  0.40533249
   0.47421007  0.83994984  0.40575235
 
 position of ions in cartesian coordinates  (Angst):
   6.48729997  0.19432857  2.63790000
   7.04130003  4.34464857  8.46352000
   2.13519995  1.65278000  8.28742000
   2.95199995  5.47472000  8.45669000
   4.00797003  2.31409143  2.71204000
   1.88396005  4.76821713  2.84294000
   8.03801000  0.35661400  8.45678000
   0.12764003  7.10894857  8.42714000
  -0.43998005  2.69519000  2.78334000
  -3.78188997  8.66959143  2.65106000
   4.27144005  6.46160000  2.97857000
  -0.11043400  3.52218287  8.56582000
  -4.10230011  7.28711000  8.31915000
   5.13572000  1.79170000  8.36017000
  -1.08975005  6.87368000  2.96741000
   6.93832005  4.37585000  2.77659000
   4.54740000  3.04663000  0.05514970
   2.10708000  1.50828000  5.46193000
  -0.47941700  3.14363000 11.15160000
   7.25295000  1.49284000  5.55450000
  -3.04399000  7.45796000 11.18716291
   4.66861000  5.75022000  5.71235000
   2.10792000  7.50571000 11.19299471
  -0.34809000  5.70705000  5.58073000
   9.54822003  0.23188143 11.12707171
   2.01288000  1.61054000 11.20549211
   4.67184703  8.63510357  5.61865000
   4.66548000  3.00116000  5.50049000
   4.52741603  0.21860143 11.18659471
   7.04735000  1.76712000  0.01689959
   4.63544000  0.07811670  5.52531000
  -0.37500700  2.86984000  5.67451000
   1.99048000  4.49782000  0.01862910
   4.45490000  6.04221000  0.01070350
   2.09884000  4.32267000  5.68422000
  -2.79754000  7.25962000  5.66135000
   6.94453005  4.59319000  0.00860762
  -0.56070300  6.07748000 11.21482704
   7.22093005  4.28992000  5.61544000
   2.11893000  7.26210000  5.74383000
   0.45943500  1.52340000  0.99934200
   2.94028000  0.36719500  0.99599500
   2.61046000  3.09994000  1.13256000
   1.30170003  0.00582143  6.57625000
   1.23985000  2.99867000  6.69103000
   3.92965000  1.50035000  6.59280000
   1.01368000  0.27060100 10.05260000
   1.30554000  3.06721000 10.21760000
   3.63531000  1.56995000 10.20340000
   0.29173000  1.37370000  4.54215000
  -1.88590000  8.57843000  4.40330000
   3.02974000  3.00432000  4.57912000
   5.42953000  1.53968000  1.03397000
   7.98829000  0.48838000  0.93519900
   7.78113000  3.19096000  1.07272000
   6.21807003  0.01489143  6.60263000
   6.29036000  3.00791000  6.59964000
   8.90228005  1.41227000  6.63459000
   6.05554000  0.43266300 10.11890000
   6.24845000  3.18717000 10.28030000
   8.62112000  1.69866000 10.12990000
   5.38174000  1.50038000  4.55858000
   3.04489000  8.47941000  4.62561000
   8.03597005  3.01696000  4.53670000
   2.91245000  5.97417000  1.06832000
   5.28052000  4.65244000  1.02744000
   5.23513000  7.50161000  0.91468000
   3.65570000  4.26883000  6.65100000
   3.71200000  7.33232000  6.78272000
   6.48867005  5.92387000  6.75301000
   3.59850000  4.58938000 10.31180000
   3.77971000  7.39956000 10.09160000
   6.11636000  5.92357000 10.23500000
   2.90359000  5.78209000  4.70072000
   5.57834000  4.33502000  4.52781000
   5.62792005  7.30230000  4.63236000
  -2.24479000  5.96633000  1.01402000
   0.35781900  4.72073000  1.10744000
   0.29939800  7.53498000  1.02792000
  -1.25212000  4.20207000  6.73394000
  -1.26742000  7.41376000  6.55159000
   1.40350000  5.78511000  6.76296000
  -1.44278000  4.65621000 10.23290000
  -1.19416000  7.43658000 10.23450000
   1.05890000  5.97706000 10.15370000
  -2.13606000  5.75325000  4.64405000
   0.54865400  4.18113000  4.54702000
   0.54338200  7.28800000  4.55173000
 


--------------------------------------------------------------------------------------------------------


 k-point  1 :   0.0000 0.0000 0.0000  plane waves:   17725
 k-point  2 :   0.5000-0.0000-0.0000  plane waves:   17736
 k-point  3 :   0.0000 0.5000 0.0000  plane waves:   17736
 k-point  4 :   0.5000 0.5000-0.0000  plane waves:   17736
 k-point  5 :   0.0000 0.0000 0.5000  plane waves:   17676
 k-point  6 :   0.5000-0.0000 0.5000  plane waves:   17700
 k-point  7 :   0.0000 0.5000 0.5000  plane waves:   17700
 k-point  8 :   0.5000 0.5000 0.5000  plane waves:   17700

 maximum and minimum number of plane-waves per node :     17736    17676

 maximum number of plane-waves:     17736
 maximum index in each direction: 
   IXMAX=   16   IYMAX=   16   IZMAX=   18
   IXMIN=  -16   IYMIN=  -16   IZMIN=  -18


 serial   3D FFT for wavefunctions
 parallel 3D FFT for charge:
    minimum data exchange during FFTs selected (reduces bandwidth)


 total amount of memory used by VASP MPI-rank0    88209. kBytes
=======================================================================

   base      :      30000. kBytes
   nonlr-proj:      13700. kBytes
   fftplans  :        992. kBytes
   grid      :      21513. kBytes
   one-center:       2737. kBytes
   wavefun   :      19267. kBytes
 
     INWAV:  cpu time    0.0000: real time    0.0001
 Broyden mixing: mesh for mixing (old mesh)
   NGX = 33   NGY = 33   NGZ = 37
  (NGX  =100   NGY  =100   NGZ  =112)
  gives a total of  40293 points

 initial charge density was supplied:
 charge density of overlapping atoms calculated
 number of electron     672.0000000 magnetization      48.0000000
 keeping initial charge density in first step


--------------------------------------------------------------------------------------------------------


 Maximum index for non-local projection operator         1565
 Maximum index for augmentation-charges          268 (set IRDMAX)


--------------------------------------------------------------------------------------------------------


 First call to EWALD:  gamma=   0.179
 Maximum number of real-space cells 3x 3x 2
 Maximum number of reciprocal cells 3x 3x 3

    FEWALD:  cpu time    0.0025: real time    0.0029


--------------------------------------- Iteration      1(   1)  ---------------------------------------


    POTLOK:  cpu time    0.2052: real time    0.2069
    SETDIJ:  cpu time    3.1175: real time    3.1187
    EDDIAG:  cpu time    3.7043: real time    3.7086
  RMM-DIIS:  cpu time    6.6062: real time    6.6089
    ORTHCH:  cpu time    1.1473: real time    1.1499
       DOS:  cpu time    0.0019: real time    0.0019
    --------------------------------------------
      LOOP:  cpu time   14.7823: real time   14.7949

 eigenvalue-minimisations  :  7168
 total energy-change (2. order) : 0.1777649E+04  (-0.3594489E+05)
 number of electron     672.0000000 magnetization      48.0000000
 augmentation part      672.0000000 magnetization      48.0000000

 Free energy of the ion-electron system (eV)
  ---------------------------------------------------
  alpha Z        PSCENC =      2652.81237852
  Ewald energy   TEWEN  =    -41781.94601588
  -Hartree energ DENC   =    -25827.46448376
  -exchange      EXHF   =         0.00000000
  -V(xc)+E(xc)   XCENC  =      3606.64416382
  PAW double counting   =     55594.23204139   -59034.67079123
  entropy T*S    EENTRO =        -0.04990003
  eigenvalues    EBANDS =     -7294.10619165
  atomic energy  EATOM  =     73862.19814772
  Solvation  Ediel_sol  =         0.00000000
  ---------------------------------------------------
  free energy    TOTEN  =      1777.64934890 eV

  energy without entropy =     1777.69924894  energy(sigma->0) =     1777.67429892


--------------------------------------------------------------------------------------------------------




--------------------------------------- Iteration      1(   2)  ---------------------------------------


    EDDIAG:  cpu time    3.7276: real time    3.7320
  RMM-DIIS:  cpu time    6.5932: real time    6.6073
    ORTHCH:  cpu time    1.1498: real time    1.1520
       DOS:  cpu time    0.0016: real time    0.0016
    --------------------------------------------
      LOOP:  cpu time   11.4722: real time   11.4929

 eigenvalue-minimisations  :  7168
 total energy-change (2. order) :-0.2593693E+04  (-0.8636591E+04)
 number of electron     672.0000000 magnetization      48.0000000
 augmentation part      672.0000000 magnetization      48.0000000

 Free energy of the ion-electron system (eV)
  ---------------------------------------------------
  alpha Z        PSCENC =      2652.81237852
  Ewald energy   TEWEN  =    -41781.94601588
  -Hartree energ DENC   =    -25827.46448376
  -exchange      EXHF   =         0.00000000
  -V(xc)+E(xc)   XCENC  =      3606.64416382
  PAW double counting   =     55594.23204139   -59034.67079123
  entropy T*S    EENTRO =        -0.04925097
  eigenvalues    EBANDS =     -9887.79987397
  atomic energy  EATOM  =     73862.19814772
  Solvation  Ediel_sol  =         0.00000000
  ---------------------------------------------------
  free energy    TOTEN  =      -816.04368436 eV

  energy without entropy =     -815.99443339  energy(sigma->0) =     -816.01905887


--------------------------------------------------------------------------------------------------------




--------------------------------------- Iteration      1(   3)  ---------------------------------------


    EDDIAG:  cpu time    3.7471: real time    3.7504
  RMM-DIIS:  cpu time    6.6067: real time    6.6102
    ORTHCH:  cpu time    1.1466: real time    1.1498
       DOS:  cpu time    0.0015: real time    0.0015
    --------------------------------------------
      LOOP:  cpu time   11.5020: real time   11.5120

 eigenvalue-minimisations  :  7168
 total energy-change (2. order) : 0.2834933E+03  (-0.1557216E+04)
 number of electron     672.0000000 magnetization      48.0000000
 augmentation part      672.0000000 magnetization      48.0000000

 Free energy of the ion-electron system (eV)
  ---------------------------------------------------
  alpha Z        PSCENC =      2652.81237852
  Ewald energy   TEWEN  =    -41781.94601588
  -Hartree energ DENC   =    -25827.46448376
  -exchange      EXHF   =         0.00000000
  -V(xc)+E(xc)   XCENC  =      3606.64416382
  PAW double counting   =     55594.23204139   -59034.67079123
  entropy T*S    EENTRO =        -0.03909254
  eigenvalues    EBANDS =     -9604.31672913
  atomic energy  EATOM  =     73862.19814772
  Solvation  Ediel_sol  =         0.00000000
  ---------------------------------------------------
  free energy    TOTEN  =      -532.55038108 eV

  energy without entropy =     -532.51128854  energy(sigma->0) =     -532.53083481


--------------------------------------------------------------------------------------------------------




--------------------------------------- Iteration      1(   4)  ---------------------------------------


    EDDIAG:  cpu time    3.7341: real time    3.7371
  RMM-DIIS:  cpu time    6.6052: real time    6.6099
    ORTHCH:  cpu time    1.1903: real time    1.2081
       DOS:  cpu time    0.0012: real time    0.0012
    --------------------------------------------
      LOOP:  cpu time   11.5308: real time   11.5564

 eigenvalue-minimisations  :  7168
 total energy-change (2. order) :-0.5248941E+03  (-0.5052264E+03)
 number of electron     672.0000000 magnetization      48.0000000
 augmentation part      672.0000000 magnetization      48.0000000

 Free energy of the ion-electron system (eV)
  ---------------------------------------------------
  alpha Z        PSCENC =      2652.81237852
  Ewald energy   TEWEN  =    -41781.94601588
  -Hartree energ DENC   =    -25827.46448376
  -exchange      EXHF   =         0.00000000
  -V(xc)+E(xc)   XCENC  =      3606.64416382
  PAW double counting   =     55594.23204139   -59034.67079123
  entropy T*S    EENTRO =        -0.00002838
  eigenvalues    EBANDS =    -10129.24988218
  atomic energy  EATOM  =     73862.19814772
  Solvation  Ediel_sol  =         0.00000000
  ---------------------------------------------------
  free energy    TOTEN  =     -1057.44446997 eV

  energy without entropy =    -1057.44444159  energy(sigma->0) =    -1057.44445578


--------------------------------------------------------------------------------------------------------




--------------------------------------- Iteration      1(   5)  ---------------------------------------


    EDDIAG:  cpu time    3.7579: real time    3.7617
  RMM-DIIS:  cpu time    6.6429: real time    6.6474
    ORTHCH:  cpu time    1.1482: real time    1.1506
       DOS:  cpu time    0.0010: real time    0.0010
    --------------------------------------------
      LOOP:  cpu time   11.5501: real time   11.5607

 eigenvalue-minimisations  :  7168
 total energy-change (2. order) :-0.1468595E+03  (-0.2125627E+03)
 number of electron     672.0000000 magnetization      48.0000000
 augmentation part      672.0000000 magnetization      48.0000000

 Free energy of the ion-electron system (eV)
  ---------------------------------------------------
  alpha Z        PSCENC =      2652.81237852
  Ewald energy   TEWEN  =    -41781.94601588
  -Hartree energ DENC   =    -25827.46448376
  -exchange      EXHF   =         0.00000000
  -V(xc)+E(xc)   XCENC  =      3606.64416382
  PAW double counting   =     55594.23204139   -59034.67079123
  entropy T*S    EENTRO =        -0.00000000
  eigenvalues    EBANDS =    -10276.10939534
  atomic energy  EATOM  =     73862.19814772
  Solvation  Ediel_sol  =         0.00000000
  ---------------------------------------------------
  free energy    TOTEN  =     -1204.30395475 eV

  energy without entropy =    -1204.30395475  energy(sigma->0) =    -1204.30395475


--------------------------------------------------------------------------------------------------------




--------------------------------------- Iteration      1(   6)  ---------------------------------------


    EDDIAG:  cpu time    3.8195: real time    3.8232
  RMM-DIIS:  cpu time    6.6052: real time    6.6092
    ORTHCH:  cpu time    1.1598: real time    1.1623
       DOS:  cpu time    0.0012: real time    0.0012
    --------------------------------------------
      LOOP:  cpu time   11.5857: real time   11.5958

 eigenvalue-minimisations  :  7168
 total energy-change (2. order) :-0.2124806E+02  (-0.1148542E+03)
 number of electron     672.0000000 magnetization      48.0000000
 augmentation part      672.0000000 magnetization      48.0000000

 Free energy of the ion-electron system (eV)
  ---------------------------------------------------
  alpha Z        PSCENC =      2652.81237852
  Ewald energy   TEWEN  =    -41781.94601588
  -Hartree energ DENC   =    -25827.46448376
  -exchange      EXHF   =         0.00000000
  -V(xc)+E(xc)   XCENC  =      3606.64416382
  PAW double counting   =     55594.23204139   -59034.67079123
  entropy T*S    EENTRO =        -0.00000000
  eigenvalues    EBANDS =    -10297.35745175
  atomic energy  EATOM  =     73862.19814772
  Solvation  Ediel_sol  =         0.00000000
  ---------------------------------------------------
  free energy    TOTEN  =     -1225.55201116 eV

  energy without entropy =    -1225.55201116  energy(sigma->0) =    -1225.55201116


--------------------------------------------------------------------------------------------------------




--------------------------------------- Iteration      1(   7)  ---------------------------------------


    EDDIAG:  cpu time    3.7356: real time    3.7392
  RMM-DIIS:  cpu time    6.6163: real time    6.6384
    ORTHCH:  cpu time    1.1450: real time    1.1475
       DOS:  cpu time    0.0011: real time    0.0011
    --------------------------------------------
      LOOP:  cpu time   11.4980: real time   11.5262

 eigenvalue-minimisations  :  7168
 total energy-change (2. order) :-0.6597715E+01  (-0.7556511E+02)
 number of electron     672.0000000 magnetization      48.0000000
 augmentation part      672.0000000 magnetization      48.0000000

 Free energy of the ion-electron system (eV)
  ---------------------------------------------------
  alpha Z        PSCENC =      2652.81237852
  Ewald energy   TEWEN  =    -41781.94601588
  -Hartree energ DENC   =    -25827.46448376
  -exchange      EXHF   =         0.00000000
  -V(xc)+E(xc)   XCENC  =      3606.64416382
  PAW double counting   =     55594.23204139   -59034.67079123
  entropy T*S    EENTRO =        -0.00000000
  eigenvalues    EBANDS =    -10303.95516643
  atomic energy  EATOM  =     73862.19814772
  Solvation  Ediel_sol  =         0.00000000
  ---------------------------------------------------
  free energy    TOTEN  =     -1232.14972584 eV

  energy without entropy =    -1232.14972584  energy(sigma->0) =    -1232.14972584


--------------------------------------------------------------------------------------------------------




--------------------------------------- Iteration      1(   8)  ---------------------------------------


    EDDIAG:  cpu time    3.7222: real time    3.7262
  RMM-DIIS:  cpu time    6.6115: real time    6.6233
    ORTHCH:  cpu time    1.1510: real time    1.1533
       DOS:  cpu time    0.0011: real time    0.0011
    --------------------------------------------
      LOOP:  cpu time   11.4857: real time   11.5039

 eigenvalue-minimisations  :  7168
 total energy-change (2. order) : 0.4633996E+01  (-0.5208510E+02)
 number of electron     672.0000000 magnetization      48.0000000
 augmentation part      672.0000000 magnetization      48.0000000

 Free energy of the ion-electron system (eV)
  ---------------------------------------------------
  alpha Z        PSCENC =      2652.81237852
  Ewald energy   TEWEN  =    -41781.94601588
  -Hartree energ DENC   =    -25827.46448376
  -exchange      EXHF   =         0.00000000
  -V(xc)+E(xc)   XCENC  =      3606.64416382
  PAW double counting   =     55594.23204139   -59034.67079123
  entropy T*S    EENTRO =        -0.00000000
  eigenvalues    EBANDS =    -10299.32117016
  atomic energy  EATOM  =     73862.19814772
  Solvation  Ediel_sol  =         0.00000000
  ---------------------------------------------------
  free energy    TOTEN  =     -1227.51572957 eV

  energy without entropy =    -1227.51572957  energy(sigma->0) =    -1227.51572957


--------------------------------------------------------------------------------------------------------




--------------------------------------- Iteration      1(   9)  ---------------------------------------


    EDDIAG:  cpu time    3.7291: real time    3.7333
  RMM-DIIS:  cpu time   13.6877: real time   13.7331
    ORTHCH:  cpu time    1.1539: real time    1.1565
       DOS:  cpu time    0.0010: real time    0.0010
    --------------------------------------------
      LOOP:  cpu time   18.5716: real time   18.6239

 eigenvalue-minimisations  : 20230
 total energy-change (2. order) : 0.1774432E+02  (-0.2326765E+02)
 number of electron     672.0000000 magnetization      48.0000000
 augmentation part      672.0000000 magnetization      48.0000000

 Free energy of the ion-electron system (eV)
  ---------------------------------------------------
  alpha Z        PSCENC =      2652.81237852
  Ewald energy   TEWEN  =    -41781.94601588
  -Hartree energ DENC   =    -25827.46448376
  -exchange      EXHF   =         0.00000000
  -V(xc)+E(xc)   XCENC  =      3606.64416382
  PAW double counting   =     55594.23204139   -59034.67079123
  entropy T*S    EENTRO =        -0.00000000
  eigenvalues    EBANDS =    -10281.57685302
  atomic energy  EATOM  =     73862.19814772
  Solvation  Ediel_sol  =         0.00000000
  ---------------------------------------------------
  free energy    TOTEN  =     -1209.77141243 eV

  energy without entropy =    -1209.77141243  energy(sigma->0) =    -1209.77141243


--------------------------------------------------------------------------------------------------------




--------------------------------------- Iteration      1(  10)  ---------------------------------------


    EDDIAG:  cpu time    3.7231: real time    3.7261
  RMM-DIIS:  cpu time   15.8913: real time   15.8994
    ORTHCH:  cpu time    1.1569: real time    1.1598
       DOS:  cpu time    0.0012: real time    0.0012
    --------------------------------------------
      LOOP:  cpu time   20.7725: real time   20.7865

 eigenvalue-minimisations  : 20227
 total energy-change (2. order) :-0.3056129E+01  (-0.1027669E+01)
 number of electron     672.0000000 magnetization      48.0000000
 augmentation part      672.0000000 magnetization      48.0000000

 Free energy of the ion-electron system (eV)
  ---------------------------------------------------
  alpha Z        PSCENC =      2652.81237852
  Ewald energy   TEWEN  =    -41781.94601588
  -Hartree energ DENC   =    -25827.46448376
  -exchange      EXHF   =         0.00000000
  -V(xc)+E(xc)   XCENC  =      3606.64416382
  PAW double counting   =     55594.23204139   -59034.67079123
  entropy T*S    EENTRO =        -0.00000002
  eigenvalues    EBANDS =    -10284.63298168
  atomic energy  EATOM  =     73862.19814772
  Solvation  Ediel_sol  =         0.00000000
  ---------------------------------------------------
  free energy    TOTEN  =     -1212.82754111 eV

  energy without entropy =    -1212.82754109  energy(sigma->0) =    -1212.82754110


--------------------------------------------------------------------------------------------------------




--------------------------------------- Iteration      1(  11)  ---------------------------------------


    EDDIAG:  cpu time    3.7198: real time    3.7243
  RMM-DIIS:  cpu time   15.1416: real time   15.1666
    ORTHCH:  cpu time    1.1497: real time    1.1520
       DOS:  cpu time    0.0012: real time    0.0012
    --------------------------------------------
      LOOP:  cpu time   20.0123: real time   20.0440

 eigenvalue-minimisations  : 21710
 total energy-change (2. order) : 0.1029434E+00  (-0.9700780E-01)
 number of electron     672.0000000 magnetization      48.0000000
 augmentation part      672.0000000 magnetization      48.0000000

 Free energy of the ion-electron system (eV)
  ---------------------------------------------------
  alpha Z        PSCENC =      2652.81237852
  Ewald energy   TEWEN  =    -41781.94601588
  -Hartree energ DENC   =    -25827.46448376
  -exchange      EXHF   =         0.00000000
  -V(xc)+E(xc)   XCENC  =      3606.64416382
  PAW double counting   =     55594.23204139   -59034.67079123
  entropy T*S    EENTRO =        -0.00000005
  eigenvalues    EBANDS =    -10284.53003821
  atomic energy  EATOM  =     73862.19814772
  Solvation  Ediel_sol  =         0.00000000
  ---------------------------------------------------
  free energy    TOTEN  =     -1212.72459767 eV

  energy without entropy =    -1212.72459762  energy(sigma->0) =    -1212.72459765


--------------------------------------------------------------------------------------------------------




--------------------------------------- Iteration      1(  12)  ---------------------------------------


    EDDIAG:  cpu time    3.7151: real time    3.7183
  RMM-DIIS:  cpu time   16.1129: real time   16.1489
    ORTHCH:  cpu time    1.1699: real time    1.1721
       DOS:  cpu time    0.0013: real time    0.0013
    CHARGE:  cpu time    1.3466: real time    1.3483
    MIXING:  cpu time    0.0012: real time    0.0015
    --------------------------------------------
      LOOP:  cpu time   22.3468: real time   22.3905

 eigenvalue-minimisations  : 22806
 total energy-change (2. order) : 0.7197017E-02  (-0.6636764E-02)
 number of electron     671.9999234 magnetization      47.9999956
 augmentation part      239.1823855 magnetization      29.0681754

 Broyden mixing:
  rms(total) = 0.12745E+02    rms(broyden)= 0.12736E+02
  rms(prec ) = 0.14554E+02
  weight for this iteration     100.00

 Free energy of the ion-electron system (eV)
  ---------------------------------------------------
  alpha Z        PSCENC =      2652.81237852
  Ewald energy   TEWEN  =    -41781.94601588
  -Hartree energ DENC   =    -25827.46448376
  -exchange      EXHF   =         0.00000000
  -V(xc)+E(xc)   XCENC  =      3606.64416382
  PAW double counting   =     55594.23204139   -59034.67079123
  entropy T*S    EENTRO =        -0.00000004
  eigenvalues    EBANDS =    -10284.52284120
  atomic energy  EATOM  =     73862.19814772
  Solvation  Ediel_sol  =         0.00000000
  ---------------------------------------------------
  free energy    TOTEN  =     -1212.71740065 eV

  energy without entropy =    -1212.71740061  energy(sigma->0) =    -1212.71740063


--------------------------------------------------------------------------------------------------------




--------------------------------------- Iteration      1(  13)  ---------------------------------------


    POTLOK:  cpu time    0.1987: real time    0.1995
    SETDIJ:  cpu time    3.3002: real time    3.3010
    EDDIAG:  cpu time    3.7996: real time    3.8038
  RMM-DIIS:  cpu time   13.1617: real time   13.1692
    ORTHCH:  cpu time    1.1866: real time    1.1989
       DOS:  cpu time    0.0013: real time    0.0013
    CHARGE:  cpu time    1.3489: real time    1.3494
    MIXING:  cpu time    0.0010: real time    0.0011
    --------------------------------------------
      LOOP:  cpu time   22.9980: real time   23.0241

 eigenvalue-minimisations  : 17314
 total energy-change (2. order) : 0.2264549E+03  (-0.1367454E+03)
 number of electron     671.9999234 magnetization      47.9999947
 augmentation part      268.3915009 magnetization      26.8898340

 Broyden mixing:
  rms(total) = 0.13759E+02    rms(broyden)= 0.13756E+02
  rms(prec ) = 0.15398E+02
  weight for this iteration     100.00

 eigenvalues of (default mixing * dielectric matrix)
  average eigenvalue GAMMA=   0.3230
  0.3230

 Free energy of the ion-electron system (eV)
  ---------------------------------------------------
  alpha Z        PSCENC =      2652.81237852
  Ewald energy   TEWEN  =    -41781.94601588
  -Hartree energ DENC   =    -25167.13941646
  -exchange      EXHF   =         0.00000000
  -V(xc)+E(xc)   XCENC  =      3697.36790763
  PAW double counting   =     60038.06991958   -63463.75032892
  entropy T*S    EENTRO =        -0.08746667
  eigenvalues    EBANDS =    -10823.78766871
  atomic energy  EATOM  =     73862.19814772
  Solvation  Ediel_sol  =         0.00000000
  ---------------------------------------------------
  free energy    TOTEN  =      -986.26254318 eV

  energy without entropy =     -986.17507651  energy(sigma->0) =     -986.21880985


--------------------------------------------------------------------------------------------------------




--------------------------------------- Iteration      1(  14)  ---------------------------------------


    POTLOK:  cpu time    0.2067: real time    0.2076
    SETDIJ:  cpu time    3.2945: real time    3.2952
    EDDIAG:  cpu time    3.7187: real time    3.7220
  RMM-DIIS:  cpu time   13.7801: real time   13.7897
    ORTHCH:  cpu time    1.1626: real time    1.1650
       DOS:  cpu time    0.0010: real time    0.0010
    CHARGE:  cpu time    1.3493: real time    1.3497
    MIXING:  cpu time    0.0007: real time    0.0007
    --------------------------------------------
      LOOP:  cpu time   23.5135: real time   23.5308

 eigenvalue-minimisations  : 17755
 total energy-change (2. order) : 0.7177870E+02  (-0.1815851E+02)
 number of electron     671.9999224 magnetization      47.9999916
 augmentation part      246.7838851 magnetization      32.2420337

 Broyden mixing:
  rms(total) = 0.53485E+01    rms(broyden)= 0.53445E+01
  rms(prec ) = 0.57464E+01
  weight for this iteration     100.00

 eigenvalues of (default mixing * dielectric matrix)
  average eigenvalue GAMMA=   0.7381
  1.1135  0.3627

 Free energy of the ion-electron system (eV)
  ---------------------------------------------------
  alpha Z        PSCENC =      2652.81237852
  Ewald energy   TEWEN  =    -41781.94601588
  -Hartree energ DENC   =    -25773.59580613
  -exchange      EXHF   =         0.00000000
  -V(xc)+E(xc)   XCENC  =      3675.84079385
  PAW double counting   =     63510.00072145   -66993.03083789
  entropy T*S    EENTRO =        -0.00000000
  eigenvalues    EBANDS =    -10066.76322106
  atomic energy  EATOM  =     73862.19814772
  Solvation  Ediel_sol  =         0.00000000
  ---------------------------------------------------
  free energy    TOTEN  =      -914.48383942 eV

  energy without entropy =     -914.48383942  energy(sigma->0) =     -914.48383942


--------------------------------------------------------------------------------------------------------




--------------------------------------- Iteration      1(  15)  ---------------------------------------


    POTLOK:  cpu time    0.1982: real time    0.1990
    SETDIJ:  cpu time    3.2983: real time    3.2997
    EDDIAG:  cpu time    3.7588: real time    3.8383
  RMM-DIIS:  cpu time   13.7730: real time   13.7820
    ORTHCH:  cpu time    1.1644: real time    1.1667
       DOS:  cpu time    0.0010: real time    0.0010
    CHARGE:  cpu time    1.3467: real time    1.3483
    MIXING:  cpu time    0.0006: real time    0.0006
    --------------------------------------------
      LOOP:  cpu time   23.5411: real time   23.6357

 eigenvalue-minimisations  : 18505
 total energy-change (2. order) : 0.1329183E+02  (-0.2023760E+01)
 number of electron     671.9999234 magnetization      47.9999893
 augmentation part      249.5987649 magnetization      33.7652720

 Broyden mixing:
  rms(total) = 0.22042E+01    rms(broyden)= 0.22039E+01
  rms(prec ) = 0.22958E+01
  weight for this iteration     100.00

 eigenvalues of (default mixing * dielectric matrix)
  average eigenvalue GAMMA=   0.9512
  1.7198  0.3925  0.7412

 Free energy of the ion-electron system (eV)
  ---------------------------------------------------
  alpha Z        PSCENC =      2652.81237852
  Ewald energy   TEWEN  =    -41781.94601588
  -Hartree energ DENC   =    -25702.63593773
  -exchange      EXHF   =         0.00000000
  -V(xc)+E(xc)   XCENC  =      3707.70620940
  PAW double counting   =     67693.42308270   -71217.30437756
  entropy T*S    EENTRO =        -0.00000000
  eigenvalues    EBANDS =    -10115.44549920
  atomic energy  EATOM  =     73862.19814772
  Solvation  Ediel_sol  =         0.00000000
  ---------------------------------------------------
  free energy    TOTEN  =      -901.19201203 eV

  energy without entropy =     -901.19201203  energy(sigma->0) =     -901.19201203


--------------------------------------------------------------------------------------------------------




--------------------------------------- Iteration      1(  16)  ---------------------------------------


    POTLOK:  cpu time    0.2089: real time    0.2090
    SETDIJ:  cpu time    3.3358: real time    3.3366
    EDDIAG:  cpu time    3.7147: real time    3.7178
  RMM-DIIS:  cpu time   13.1167: real time   13.1401
    ORTHCH:  cpu time    1.1573: real time    1.1598
       DOS:  cpu time    0.0012: real time    0.0012
    CHARGE:  cpu time    1.3464: real time    1.3469
    MIXING:  cpu time    0.0011: real time    0.0011
    --------------------------------------------
      LOOP:  cpu time   22.8821: real time   22.9124

 eigenvalue-minimisations  : 17398
 total energy-change (2. order) :-0.1334921E+01  (-0.7358915E+00)
 number of electron     671.9999234 magnetization      47.9999887
 augmentation part      251.1288788 magnetization      33.8448559

 Broyden mixing:
  rms(total) = 0.14176E+01    rms(broyden)= 0.14171E+01
  rms(prec ) = 0.14987E+01
  weight for this iteration     100.00

 eigenvalues of (default mixing * dielectric matrix)
  average eigenvalue GAMMA=   0.9758
  2.0929  0.8929  0.4001  0.5172

 Free energy of the ion-electron system (eV)
  ---------------------------------------------------
  alpha Z        PSCENC =      2652.81237852
  Ewald energy   TEWEN  =    -41781.94601588
  -Hartree energ DENC   =    -25650.41330434
  -exchange      EXHF   =         0.00000000
  -V(xc)+E(xc)   XCENC  =      3709.15540961
  PAW double counting   =     70715.04528197   -74268.87357966
  entropy T*S    EENTRO =        -0.00000000
  eigenvalues    EBANDS =    -10140.50525074
  atomic energy  EATOM  =     73862.19814772
  Solvation  Ediel_sol  =         0.00000000
  ---------------------------------------------------
  free energy    TOTEN  =      -902.52693279 eV

  energy without entropy =     -902.52693279  energy(sigma->0) =     -902.52693279


--------------------------------------------------------------------------------------------------------




--------------------------------------- Iteration      1(  17)  ---------------------------------------


    POTLOK:  cpu time    0.2117: real time    0.2124
    SETDIJ:  cpu time    3.3418: real time    3.3439
    EDDIAG:  cpu time    3.7235: real time    3.7271
  RMM-DIIS:  cpu time   13.7234: real time   13.7560
    ORTHCH:  cpu time    1.1550: real time    1.1575
       DOS:  cpu time    0.0010: real time    0.0010
    CHARGE:  cpu time    1.3509: real time    1.3514
    MIXING:  cpu time    0.0017: real time    0.0017
    --------------------------------------------
      LOOP:  cpu time   23.5088: real time   23.5510

 eigenvalue-minimisations  : 18704
 total energy-change (2. order) : 0.1251332E+00  (-0.7030711E-01)
 number of electron     671.9999235 magnetization      47.9999883
 augmentation part      251.0881432 magnetization      33.8307421

 Broyden mixing:
  rms(total) = 0.75575E+00    rms(broyden)= 0.75563E+00
  rms(prec ) = 0.84936E+00
  weight for this iteration     100.00

 eigenvalues of (default mixing * dielectric matrix)
  average eigenvalue GAMMA=   1.0029
  2.2451  1.1271  0.3882  0.6921  0.5619

 Free energy of the ion-electron system (eV)
  ---------------------------------------------------
  alpha Z        PSCENC =      2652.81237852
  Ewald energy   TEWEN  =    -41781.94601588
  -Hartree energ DENC   =    -25640.18813451
  -exchange      EXHF   =         0.00000000
  -V(xc)+E(xc)   XCENC  =      3706.13488163
  PAW double counting   =     71561.04630101   -75123.07322650
  entropy T*S    EENTRO =        -0.00000000
  eigenvalues    EBANDS =    -10139.38613157
  atomic energy  EATOM  =     73862.19814772
  Solvation  Ediel_sol  =         0.00000000
  ---------------------------------------------------
  free energy    TOTEN  =      -902.40179958 eV

  energy without entropy =     -902.40179958  energy(sigma->0) =     -902.40179958


--------------------------------------------------------------------------------------------------------




--------------------------------------- Iteration      1(  18)  ---------------------------------------


    POTLOK:  cpu time    0.1987: real time    0.1988
    SETDIJ:  cpu time    3.3128: real time    3.3143
    EDDIAG:  cpu time    3.7559: real time    3.7584
  RMM-DIIS:  cpu time   13.2290: real time   13.2385
    ORTHCH:  cpu time    1.1726: real time    1.1748
       DOS:  cpu time    0.0013: real time    0.0013
    CHARGE:  cpu time    1.3487: real time    1.3505
    MIXING:  cpu time    0.0009: real time    0.0009
    --------------------------------------------
      LOOP:  cpu time   23.0200: real time   23.0375

 eigenvalue-minimisations  : 17613
 total energy-change (2. order) : 0.3857488E+00  (-0.7227550E-01)
 number of electron     671.9999233 magnetization      47.9999881
 augmentation part      250.6120424 magnetization      33.8011737

 Broyden mixing:
  rms(total) = 0.26859E+00    rms(broyden)= 0.26832E+00
  rms(prec ) = 0.28090E+00
  weight for this iteration     100.00

[...]
   4      -0.919    -0.871     1.789     0.110     0.470    -0.194
   5      -0.787    -0.595     1.381    -0.057     0.323     0.230
   6      -0.960    -0.872     1.832    -0.029     0.070    -0.036
   7      -0.678    -0.841     1.519    -0.026    -0.004     0.471
   8      -0.785    -0.764     1.550    -0.097    -0.406    -0.141
   9      -0.699    -0.669     1.368    -0.026    -0.044     0.146
  10      -0.680    -0.852     1.532     0.047     0.033    -0.483
  11      -0.737    -0.543     1.280     0.056    -0.103     0.233
  12      -0.521    -0.751     1.272     0.031     0.075     0.176
  13      -0.723    -0.752     1.475    -0.163    -0.349    -0.223
  14      -0.923    -0.706     1.629     0.115     0.291    -0.212
  15      -0.893    -0.565     1.458     0.130    -0.359     0.313
  16      -1.048    -0.935     1.983     0.069    -0.029    -0.109
  17       1.506     1.475    -2.981    -0.016     0.025     0.036
  18       1.432     1.404    -2.836     0.179    -0.183    -0.010
  19       1.553     1.350    -2.904    -0.046    -0.047     0.104
  20       1.480     1.522    -3.002     0.046     0.164    -0.079
  21       1.647     1.442    -3.089    -0.049     0.010    -0.046
  22       1.405     1.438    -2.843     0.189    -0.155     0.107
  23       1.620     1.215    -2.835     0.006    -0.082     0.056
  24       1.385     1.471    -2.856    -0.071     0.040    -0.013
  25       0.149     0.285    -0.434     1.172     1.126    -0.061
  26      -0.537     1.337    -0.799     1.937     0.159     0.062
  27      -1.915     0.739     1.176     0.002     0.503     0.411
  28      -1.967    -0.180     2.147    -0.472     0.434     0.354
  29      -0.392     0.119     0.274    -0.518    -0.029     1.508
  30      -1.320     0.403     0.917     0.940    -0.668     0.057
  31       0.918    -1.186     0.268    -1.196    -1.643    -1.063
  32       0.455     0.562    -1.017    -0.866    -0.283    -0.313
  33       0.240    -0.503     0.263    -0.276     1.265    -0.171
  34      -0.194    -1.648     1.843    -1.116     0.799     1.726
  35      -1.041     0.788     0.254    -1.578    -0.502    -0.483
  36      -2.025     0.912     1.113    -0.674    -1.089    -0.197
  37      -1.046    -1.364     2.409     0.243    -0.785    -0.300
  38      -0.247    -1.560     1.807    -0.247    -0.671     1.000
  39       1.284     0.002    -1.287    -0.388     0.391     1.014
  40      -0.325    -0.563     0.888     0.541    -0.124     0.339
  41      -3.952     3.838     0.114    -4.875     1.923    -4.581
  42      -3.706     3.466     0.240     6.839     0.890     5.055
  43       7.418    -5.967    -1.451     0.554    -3.677     1.185
  44      -4.391     1.895     2.496     4.128    -3.229    -4.150
  45      -4.168     3.129     1.039    -5.841    -3.185     3.876
  46       5.853    -4.688    -1.165     0.184     4.542    -0.223
  47      -3.543     4.191    -0.648    -5.400     2.567    -2.388
  48       4.696    -5.465     0.769    -1.443    -3.868    -1.270
  49      -3.216     1.984     1.232     4.856     3.678     4.672
  50       6.414    -6.009    -0.406    -0.542     3.902    -0.125
  51      -2.005     3.560    -1.555    -5.042    -3.109     2.582
  52      -5.394     3.692     1.702     2.505    -1.877    -4.639
  53      -3.183     2.910     0.273    -4.325     1.367    -2.949
  54      -3.132     1.965     1.167     7.063     2.061     4.398
  55       4.591    -5.880     1.288     0.025    -5.504    -1.078
  56      -2.646    -0.107     2.753     5.755    -2.354    -3.800
  57      -3.900     4.636    -0.737    -4.317    -1.174     4.550
  58       4.645    -7.189     2.544    -1.402     5.462     0.258
  59      -2.130     3.165    -1.035    -5.629     2.097    -1.675
  60       4.526    -6.322     1.796    -0.337    -4.548    -0.558
  61      -2.016     2.231    -0.215     5.190     3.919     3.501
  62       4.870    -7.511     2.641     0.183     4.455    -0.312
  63      -4.541     5.129    -0.588    -4.700    -1.170     4.663
  64      -0.902     1.502    -0.600     5.923    -0.546    -4.057
  65      -2.348     1.966     0.383    -4.226     4.229    -3.345
  66      -3.030     0.701     2.329     4.008     3.326     3.927
  67       4.112    -5.340     1.229    -0.239    -4.521     1.453
  68      -5.862     5.761     0.101     3.662    -1.452    -3.692
  69      -5.224     4.626     0.598    -3.644    -1.455     4.134
  70       3.650    -4.880     1.230    -1.769     4.095     1.102
  71      -3.332     0.880     2.452    -5.786     3.236    -4.116
  72       4.511    -4.878     0.367    -0.805    -3.630     1.113
  73      -2.627     0.109     2.517     4.405     1.298     4.756
  74       4.119    -4.424     0.305    -0.941     4.056     0.446
  75      -4.625     1.586     3.039    -4.897    -2.169     5.688
  76      -1.739     1.545     0.194     5.789    -1.160    -4.189
  77      -3.071     1.932     1.140    -3.846     1.825    -3.056
  78      -1.658     3.108    -1.449     6.055     2.631     2.396
  79       4.350    -4.797     0.446    -0.535    -5.978     0.720
  80      -2.765     2.445     0.320     4.778    -2.360    -3.808
  81      -5.337     3.359     1.978    -6.025    -2.850     4.748
  82       5.303    -6.752     1.450     0.437     3.721    -1.072
  83      -2.474     0.019     2.456    -3.758     2.900    -4.067
  84       5.724    -8.198     2.474    -0.006    -4.605     1.806
  85      -2.864     1.802     1.062     5.043     3.640     3.450
  86       5.903    -5.874    -0.028     0.083     3.167     0.159
  87      -1.380     3.707    -2.328    -5.119    -1.364     3.416
  88      -2.014     0.894     1.120     4.305    -3.892    -3.633
 ---------------------------------------------------------------------


 Total hyperfine coupling parameters after diagonalization (MHz)
 (convention: |A_zz| > |A_xx| > |A_yy|)
 ----------------------------------------------------------------------
  ion      A_xx      A_yy      A_zz     asymmetry (A_yy - A_xx)/ A_zz 
 ----------------------------------------------------------------------
   1       2.321     1.907     4.316      -0.096
   2       0.238     0.009     3.001      -0.076
   3       1.110     0.971     3.000      -0.046
   4       2.295     1.990     4.961      -0.061
   5       1.517     1.237     3.555      -0.079
   6      -0.449    -0.343     2.356       0.045
   7       1.666     1.407     3.951      -0.065
   8       2.598     2.345     4.908      -0.052
   9       0.888     0.838     2.932      -0.017
  10       2.806     2.521     5.103      -0.056
  11       1.313     1.095     3.176      -0.069
  12       1.655     1.407     3.466      -0.071
  13       2.070     1.682     4.195      -0.093
  14       2.364     2.004     4.702      -0.077
  15       1.683     1.196     3.767      -0.129
  16       0.209     0.035     3.103      -0.056
  17      15.925    11.475    15.970      -0.279
  18      13.664     9.578    14.024      -0.291
  19      14.258    10.009    14.480      -0.293
  20      15.702    11.234    15.795      -0.283
  21      16.547    12.027    16.774      -0.269
  22      13.469     9.377    13.839      -0.296
  23      13.466     9.413    13.872      -0.292
  24      13.630     9.428    13.795      -0.305
  25      98.669    97.028   100.370      -0.016
  26      97.736    96.767   101.086      -0.010
  27      97.707    95.193    98.669      -0.025
  28      99.708    97.652   102.026      -0.020
  29      95.587    94.481    97.694      -0.011
  30      97.488    94.914    97.976      -0.026
  31      96.262    93.109    98.122      -0.032
  32      98.893    97.825   100.425      -0.011
  33      96.655    96.169    98.759      -0.005
  34      97.697    94.294    99.885      -0.034
  35      95.214    92.648    96.508      -0.027
  36      93.936    90.371    94.335      -0.038
  37      94.087    93.697    97.807      -0.004
  38      97.068    95.677    99.796      -0.014
  39      95.883    93.419    96.749      -0.025
  40      95.065    93.911    95.934      -0.012
  41       4.185     0.528    15.805      -0.231
  42       8.087     1.435    19.756      -0.337
  43       3.930    -0.189    14.989      -0.275
  44       5.471     0.715    15.771      -0.302
  45       6.828     1.099    17.948      -0.319
  46       2.029     0.619    13.449      -0.105
  47       8.507     3.527    18.327      -0.272
  48       6.143     0.798    14.115      -0.379
  49       4.991     1.732    17.238      -0.189
  50       3.837    -0.021    14.219      -0.271
  51       5.577     2.385    16.076      -0.199
  52       4.160     0.087    14.369      -0.283
  53       4.737     0.650    12.857      -0.318
  54       8.141     1.416    19.237      -0.350
  55       4.987     1.450    16.294      -0.217
  56       6.645     0.201    15.673      -0.411
  57       7.045     4.103    18.671      -0.158
  58       6.463     0.758    17.423      -0.327
  59       5.618     1.358    14.735      -0.289
  60       7.829     2.919    17.238      -0.285
  61       3.498     0.213    14.863      -0.221
  62       7.258     0.545    16.423      -0.409
  63       4.653     0.875    16.756      -0.225
  64       7.686     2.241    16.729      -0.326
  65       3.994     0.316    14.194      -0.259
  66       3.624     0.193    13.802      -0.249
  67       5.405     1.474    14.693      -0.268
  68       6.679     1.440    17.029      -0.308
  69       5.918     1.380    16.122      -0.281
  70       2.651    -2.310    10.313      -0.481
  71       7.320     1.597    18.058      -0.317
  72       7.335     3.881    15.740      -0.219
  73       5.816     0.791    14.796      -0.340
  74       1.602    -1.201    10.283      -0.273
  75       6.512     1.422    18.574      -0.274
  76       6.112     0.995    15.627      -0.327
  77       5.961     2.053    13.632      -0.287
  78       6.465     2.971    17.390      -0.201
  79       2.887     1.787    15.449      -0.071
  80       6.658     3.372    16.899      -0.194
  81       8.873     2.171    20.777      -0.323
  82       6.863     0.499    15.035      -0.423
  83       2.056    -0.729    12.048      -0.231
  84       9.899     1.867    19.453      -0.413
  85       2.621    -1.770    12.921      -0.340
  86       6.104     1.624    14.779      -0.303
  87       6.042     4.489    17.471      -0.089
  88       1.968    -0.845    12.556      -0.224
 ---------------------------------------------------------------------



--------------------------------------------------------------------------------------------------------


 stress matrix after NEB project (eV)
    -40.01740     -1.51213      2.85634
     -1.51014    -46.89037    -11.38290
      2.85491    -11.35025    -50.01492
  FORCES: max atom, RMS     2.688510    1.094878
  FORCE total and by dimension   10.270863    1.721685
  Stress total and by dimension   81.122536   50.014917
     LOOP+:  cpu time  605.7514: real time  606.7301
    4ORBIT:  cpu time    0.0000: real time    0.0000
 


 total charge     
 
# of ion       s       p       d       tot
------------------------------------------
    1        0.044   5.986   0.000   6.030
    2        0.051   5.995   0.000   6.046
    3        0.047   5.989   0.000   6.035
    4        0.053   5.996   0.000   6.049
    5        0.052   5.995   0.000   6.047
    6        0.053   5.997   0.000   6.050
    7        0.050   5.993   0.000   6.043
    8        0.048   5.991   0.000   6.039
    9        0.047   5.989   0.000   6.036
   10        0.046   5.988   0.000   6.034
   11        0.047   5.988   0.000   6.036
   12        0.053   5.996   0.000   6.049
   13        0.053   5.997   0.000   6.051
   14        0.051   5.993   0.000   6.043
   15        0.049   5.992   0.000   6.041
   16        0.054   5.998   0.000   6.052
   17        0.152   6.133   0.088   6.373
   18        0.147   6.124   0.080   6.352
   19        0.152   6.130   0.084   6.366
   20        0.149   6.129   0.085   6.364
   21        0.152   6.134   0.089   6.375
   22        0.146   6.123   0.079   6.349
   23        0.143   6.118   0.076   6.337
   24        0.145   6.120   0.077   6.342
   25        0.384   6.473   4.854  11.711
   26        0.382   6.472   4.854  11.707
   27        0.376   6.456   4.825  11.657
   28        0.370   6.441   4.819  11.631
   29        0.393   6.493   4.864  11.750
   30        0.382   6.470   4.844  11.696
   31        0.380   6.465   4.831  11.676
   32        0.369   6.441   4.829  11.638
   33        0.367   6.432   4.815  11.614
   34        0.387   6.481   4.852  11.720
   35        0.385   6.477   4.852  11.714
   36        0.391   6.487   4.867  11.746
   37        0.395   6.496   4.875  11.766
   38        0.373   6.448   4.823  11.644
   39        0.381   6.461   4.856  11.698
   40        0.372   6.446   4.812  11.630
   41        1.602   3.511   0.000   5.113
   42        1.601   3.514   0.000   5.115
   43        1.601   3.478   0.000   5.079
   44        1.599   3.523   0.000   5.122
   45        1.600   3.520   0.000   5.120
   46        1.599   3.495   0.000   5.094
   47        1.600   3.496   0.000   5.095
   48        1.598   3.540   0.000   5.138
   49        1.598   3.528   0.000   5.126
   50        1.598   3.502   0.000   5.100
   51        1.597   3.475   0.000   5.071
   52        1.600   3.527   0.000   5.127
   53        1.597   3.530   0.000   5.127
   54        1.602   3.527   0.000   5.129
   55        1.599   3.500   0.000   5.099
   56        1.597   3.505   0.000   5.102
   57        1.599   3.510   0.000   5.109
   58        1.601   3.514   0.000   5.115
   59        1.596   3.489   0.000   5.085
   60        1.601   3.558   0.000   5.159
   61        1.597   3.506   0.000   5.103
   62        1.599   3.506   0.000   5.105
   63        1.601   3.489   0.000   5.091
   64        1.602   3.508   0.000   5.110
   65        1.597   3.501   0.000   5.098
   66        1.599   3.501   0.000   5.100
   67        1.600   3.548   0.000   5.149
   68        1.602   3.509   0.000   5.111
   69        1.596   3.484   0.000   5.080
   70        1.597   3.495   0.000   5.092
   71        1.603   3.522   0.000   5.126
   72        1.597   3.507   0.000   5.104
   73        1.599   3.532   0.000   5.132
   74        1.597   3.512   0.000   5.109
   75        1.601   3.496   0.000   5.097
   76        1.598   3.517   0.000   5.115
   77        1.597   3.516   0.000   5.113
   78        1.596   3.470   0.000   5.067
   79        1.599   3.491   0.000   5.090
   80        1.600   3.503   0.000   5.103
   81        1.604   3.523   0.000   5.127
   82        1.597   3.496   0.000   5.093
   83        1.596   3.521   0.000   5.117
   84        1.605   3.537   0.000   5.142
   85        1.595   3.472   0.000   5.067
   86        1.598   3.530   0.000   5.128
   87        1.598   3.505   0.000   5.103
   88        1.597   3.476   0.000   5.073
--------------------------------------------------
tot         84.825 416.748  78.130 579.703
 


 magnetization (x)
 
# of ion       s       p       d       tot
------------------------------------------
    1        0.002   0.000   0.000   0.002
    2        0.001   0.000   0.000   0.001
    3        0.001   0.001   0.000   0.002
    4        0.002   0.000   0.000   0.003
    5        0.001   0.000   0.000   0.002
    6        0.000  -0.000   0.000   0.000
    7        0.002   0.000   0.000   0.002
    8        0.002   0.001   0.000   0.003
    9        0.001   0.001   0.000   0.002
   10        0.003   0.001   0.000   0.003
   11        0.001   0.001   0.000   0.002
   12        0.001   0.001   0.000   0.002
   13        0.002   0.000   0.000   0.002
   14        0.002   0.001   0.000   0.003
   15        0.002   0.000   0.000   0.002
   16        0.001   0.000   0.000   0.001
   17        0.008   0.003   0.001   0.012
   18        0.007   0.002   0.001   0.010
   19        0.007   0.002   0.001   0.010
   20        0.008   0.003   0.002   0.013
   21        0.008   0.003   0.001   0.013
   22        0.007   0.002   0.001   0.010
   23        0.007   0.002   0.001   0.010
   24        0.007   0.002   0.001   0.010
   25        0.016   0.032   2.738   2.786
   26        0.016   0.031   2.735   2.782
   27        0.016   0.031   2.763   2.809
   28        0.017   0.031   2.767   2.815
   29        0.015   0.032   2.726   2.773
   30        0.015   0.031   2.746   2.792
   31        0.015   0.031   2.754   2.800
   32        0.016   0.030   2.755   2.801
   33        0.015   0.030   2.765   2.809
   34        0.016   0.031   2.736   2.783
   35        0.015   0.030   2.733   2.778
   36        0.015   0.030   2.709   2.753
   37        0.015   0.030   2.718   2.763
   38        0.015   0.029   2.763   2.808
   39        0.015   0.030   2.725   2.770
   40        0.015   0.030   2.767   2.812
   41        0.002   0.032   0.000   0.034
   42        0.002   0.060   0.000   0.062
   43        0.002   0.012   0.000   0.014
   44        0.002   0.036   0.000   0.038
   45        0.002   0.049   0.000   0.051
   46        0.002   0.008   0.000   0.010
   47        0.003   0.046   0.000   0.049
   48        0.002   0.038   0.000   0.040
   49        0.002   0.047   0.000   0.049
   50        0.002   0.019   0.000   0.021
   51        0.002   0.032   0.000   0.034
   52        0.002   0.029   0.000   0.031
   53        0.002   0.025   0.000   0.027
   54        0.002   0.065   0.000   0.068
   55        0.002   0.032   0.000   0.034
   56        0.002   0.041   0.000   0.043
   57        0.003   0.051   0.000   0.054
   58        0.002   0.042   0.000   0.044
   59        0.002   0.029   0.000   0.031
   60        0.002   0.061   0.000   0.063
   61        0.002   0.018   0.000   0.019
   62        0.002   0.043   0.000   0.045
   63        0.002   0.031   0.000   0.033
   64        0.002   0.037   0.000   0.039
   65        0.002   0.025   0.000   0.026
   66        0.002   0.023   0.000   0.025
   67        0.002   0.038   0.000   0.040
   68        0.002   0.040   0.000   0.043
   69        0.002   0.033   0.000   0.035
   70        0.001   0.011   0.000   0.012
   71        0.002   0.046   0.000   0.048
   72        0.002   0.039   0.000   0.041
   73        0.002   0.040   0.000   0.042
   74        0.001   0.005   0.000   0.006
   75        0.002   0.044   0.000   0.047
   76        0.002   0.038   0.000   0.040
   77        0.002   0.031   0.000   0.033
   78        0.002   0.035   0.000   0.037
   79        0.002   0.025   0.000   0.027
   80        0.002   0.042   0.000   0.045
   81        0.002   0.075   0.000   0.078
   82        0.002   0.035   0.000   0.037
   83        0.001   0.019   0.000   0.020
   84        0.002   0.069   0.000   0.071
   85        0.001   0.009   0.000   0.011
   86        0.002   0.038   0.000   0.040
   87        0.002   0.041   0.000   0.044
   88        0.001   0.010   0.000   0.011
--------------------------------------------------
tot          0.425   2.207  43.911  46.543
 

 total amount of memory used by VASP MPI-rank0    88209. kBytes
=======================================================================

   base      :      30000. kBytes
   nonlr-proj:      13700. kBytes
   fftplans  :        992. kBytes
   grid      :      21513. kBytes
   one-center:       2737. kBytes
   wavefun   :      19267. kBytes
 
  
  
 General timing and accounting informations for this job:
 ========================================================
  
                  Total CPU time used (sec):      624.764
                            User time (sec):      619.074
                          System time (sec):        5.689
                         Elapsed time (sec):      628.107
  
                   Maximum memory used (kb):      182400.
                   Average memory used (kb):           0.
  
                          Minor page faults:       328367
                          Major page faults:            0
                 Voluntary context switches:         3677
