 vasp.5.4.4.18Apr17-6-g9f103f2a35 (build Dec 02 2020 12:53:39) complex          
  
 executed on             LinuxIFC date 2021.07.31  07:12:28
 running on  112 total cores
 distrk:  each k-point on  112 cores,    1 groups
 distr:  one band on NCORES_PER_BAND=   1 cores,  112 groups


--------------------------------------------------------------------------------------------------------


 INCAR:
 POTCAR:    PAW_PBE Na_pv 19Sep2006               
 POTCAR:    PAW_PBE Mg_pv 13Apr2007               
 POTCAR:    PAW_PBE Mn_pv 02Aug2007               
 POTCAR:    PAW_PBE O 08Apr2002                   

 ----------------------------------------------------------------------------- 
|                                                                             |
|           W    W    AA    RRRRR   N    N  II  N    N   GGGG   !!!           |
|           W    W   A  A   R    R  NN   N  II  NN   N  G    G  !!!           |
|           W    W  A    A  R    R  N N  N  II  N N  N  G       !!!           |
|           W WW W  AAAAAA  RRRRR   N  N N  II  N  N N  G  GGG   !            |
|           WW  WW  A    A  R   R   N   NN  II  N   NN  G    G                |
|           W    W  A    A  R    R  N    N  II  N    N   GGGG   !!!           |
|                                                                             |
|      For optimal performance we recommend to set                            |
|        NCORE= 4 - approx SQRT( number of cores)                             |
|      NCORE specifies how many cores store one orbital (NPAR=cpu/NCORE).     |
|      This setting can  greatly improve the performance of VASP for DFT.     |
|      The default,   NCORE=1            might be grossly inefficient         |
|      on modern multi-core architectures or massively parallel machines.     |
|      Do your own testing !!!!                                               |
|      Unfortunately you need to use the default for GW and RPA calculations. |
|      (for HF NCORE is supported but not extensively tested yet)             |
|                                                                             |
 ----------------------------------------------------------------------------- 

 POTCAR:    PAW_PBE Na_pv 19Sep2006               
   VRHFIN =Na: p6s1                                                             
   LEXCH  = PE                                                                  
   EATOM  =   766.0439 eV,   56.3026 Ry                                         
                                                                                
   TITEL  = PAW_PBE Na_pv 19Sep2006                                             
   LULTRA =        F    use ultrasoft PP ?                                      
   IUNSCR =        1    unscreen: 0-lin 1-nonlin 2-no                           
   RPACOR =    1.800    partial core radius                                     
   POMASS =   22.990; ZVAL   =    7.000    mass and valenz                      
   RCORE  =    2.200    outmost cutoff radius                                   
   RWIGS  =    2.200; RWIGS  =    1.164    wigner-seitz radius (au A)           
   ENMAX  =  259.561; ENMIN  =  194.671 eV                                      
   ICORE  =        2    local potential                                         
   LCOR   =        T    correct aug charges                                     
   LPAW   =        T    paw PP                                                  
   EAUG   =  368.056                                                            
   DEXC   =    0.000                                                            
   RMAX   =    2.245    core radius for proj-oper                               
   RAUG   =    1.300    factor for augmentation sphere                          
   RDEP   =    2.259    radius for radial grids                                 
   RDEPT  =    1.738    core radius for aug-charge                              
                                                                                
   Atomic configuration                                                         
    5 entries                                                                   
     n  l   j            E        occ.                                          
     1  0  0.50     -1033.6933   2.0000                                         
     2  0  0.50       -56.7526   2.0000                                         
     2  1  1.50       -28.6721   6.0000                                         
     3  0  0.50        -2.7440   1.0000                                         
     3  2  1.50        -1.3606   0.0000                                         
   Description                                                                  
     l       E           TYP  RCUT    TYP  RCUT                                 
     1    -28.6720912     23  2.000                                             
     1      6.8029130     23  2.000                                             
     0     -2.7439560     23  2.200                                             
     0     34.0145650     23  2.200                                             
     2     -1.3605826     23  2.200                                             
  local pseudopotential read in
  partial core-charges read in
  partial kinetic energy density read in
  atomic valenz-charges read in
  non local Contribution for L=           1  read in
    real space projection operators read in
  non local Contribution for L=           1  read in
    real space projection operators read in
  non local Contribution for L=           0  read in
    real space projection operators read in
  non local Contribution for L=           0  read in
    real space projection operators read in
    PAW grid and wavefunctions read in
 
   number of l-projection  operators is LMAX  =           4
   number of lm-projection operators is LMMAX =           8
 
 POTCAR:    PAW_PBE Mg_pv 13Apr2007               
   VRHFIN =Mg: p6s2                                                             
   LEXCH  = PE                                                                  
   EATOM  =  1056.7344 eV,   77.6678 Ry                                         
                                                                                
   TITEL  = PAW_PBE Mg_pv 13Apr2007                                             
   LULTRA =        F    use ultrasoft PP ?                                      
   IUNSCR =        1    unscreen: 0-lin 1-nonlin 2-no                           
   RPACOR =    1.500    partial core radius                                     
   POMASS =   24.305; ZVAL   =    8.000    mass and valenz                      
   RCORE  =    2.000    outmost cutoff radius                                   
   RWIGS  =    2.000; RWIGS  =    1.058    wigner-seitz radius (au A)           
   ENMAX  =  403.929; ENMIN  =  302.947 eV                                      
   RCLOC  =    1.506    cutoff for local pot                                    
   LCOR   =        T    correct aug charges                                     
   LPAW   =        T    paw PP                                                  
   EAUG   =  758.780                                                            
   DEXC   =    0.000                                                            
   RMAX   =    2.045    core radius for proj-oper                               
   RAUG   =    1.300    factor for augmentation sphere                          
   RDEP   =    2.025    radius for radial grids                                 
   RDEPT  =    1.557    core radius for aug-charge                              
                                                                                
   Atomic configuration                                                         
    5 entries                                                                   
     n  l   j            E        occ.                                          
     1  0  0.50     -1259.6230   2.0000                                         
     2  0  0.50       -79.8442   2.0000                                         
     2  1  1.50       -46.6121   6.0000                                         
     3  0  0.50        -4.7055   2.0000                                         
     3  2  1.50        -1.3606   0.0000                                         
   Description                                                                  
     l       E           TYP  RCUT    TYP  RCUT                                 
     1    -46.6121073     23  1.600                                             
     1      2.7211652     23  1.600                                             
     0     -4.7054661     23  2.000                                             
     0     61.2262170     23  2.000                                             
     2     -1.3605826     23  2.000                                             
  local pseudopotential read in
  partial core-charges read in
  partial kinetic energy density read in
  atomic valenz-charges read in
  non local Contribution for L=           1  read in
    real space projection operators read in
  non local Contribution for L=           1  read in
    real space projection operators read in
  non local Contribution for L=           0  read in
    real space projection operators read in
  non local Contribution for L=           0  read in
    real space projection operators read in
  non local Contribution for L=           2  read in
    real space projection operators read in
    PAW grid and wavefunctions read in
 
   number of l-projection  operators is LMAX  =           5
   number of lm-projection operators is LMMAX =          13
 
 POTCAR:    PAW_PBE Mn_pv 02Aug2007               
   VRHFIN =Mn: 3p4s3d                                                           
   LEXCH  = PE                                                                  
   EATOM  =  2025.2664 eV,  148.8529 Ry                                         
                                                                                
   TITEL  = PAW_PBE Mn_pv 02Aug2007                                             
   LULTRA =        F    use ultrasoft PP ?                                      
   IUNSCR =        1    unscreen: 0-lin 1-nonlin 2-no                           
   RPACOR =    2.080    partial core radius                                     
   POMASS =   54.938; ZVAL   =   13.000    mass and valenz                      
   RCORE  =    2.300    outmost cutoff radius                                   
   RWIGS  =    2.500; RWIGS  =    1.323    wigner-seitz radius (au A)           
   ENMAX  =  269.864; ENMIN  =  202.398 eV                                      
   ICORE  =        3    local potential                                         
   LCOR   =        T    correct aug charges                                     
   LPAW   =        T    paw PP                                                  
   EAUG   =  569.085                                                            
   DEXC   =    0.000                                                            
   RMAX   =    2.343    core radius for proj-oper                               
   RAUG   =    1.300    factor for augmentation sphere                          
   RDEP   =    2.338    radius for radial grids                                 
   RDEPT  =    1.798    core radius for aug-charge                              
                                                                                
   Atomic configuration                                                         
    8 entries                                                                   
     n  l   j            E        occ.                                          
     1  0  0.50     -6424.8287   2.0000                                         
     2  0  0.50      -739.1154   2.0000                                         
     2  1  1.50      -625.3949   6.0000                                         
     3  0  0.50       -81.6100   2.0000                                         
     3  1  1.50       -50.4667   6.0000                                         
     3  2  2.50        -3.3745   6.0000                                         
     4  0  0.50        -4.1331   1.0000                                         
     4  3  2.50        -1.3606   0.0000                                         
   Description                                                                  
     l       E           TYP  RCUT    TYP  RCUT                                 
     1    -50.4666628     23  2.000                                             
     1     -1.3605826     23  2.000                                             
     2     -3.3744729     23  2.300                                             
     2     -4.7350555     23  2.300                                             
     0     -4.1331431     23  2.300                                             
     0      7.6656591     23  2.300                                             
     3      9.5240782     23  2.300                                             
  local pseudopotential read in
  partial core-charges read in
  partial kinetic energy density read in
  atomic valenz-charges read in
  non local Contribution for L=           1  read in
    real space projection operators read in
  non local Contribution for L=           1  read in
    real space projection operators read in
  non local Contribution for L=           2  read in
    real space projection operators read in
  non local Contribution for L=           2  read in
    real space projection operators read in
  non local Contribution for L=           0  read in
    real space projection operators read in
  non local Contribution for L=           0  read in
    real space projection operators read in
    PAW grid and wavefunctions read in
 
   number of l-projection  operators is LMAX  =           6
   number of lm-projection operators is LMMAX =          18
 
 POTCAR:    PAW_PBE O 08Apr2002                   
   VRHFIN =O: s2p4                                                              
   LEXCH  = PE                                                                  
   EATOM  =   432.3788 eV,   31.7789 Ry                                         
                                                                                
   TITEL  = PAW_PBE O 08Apr2002                                                 
   LULTRA =        F    use ultrasoft PP ?                                      
   IUNSCR =        1    unscreen: 0-lin 1-nonlin 2-no                           
   RPACOR =    1.200    partial core radius                                     
   POMASS =   16.000; ZVAL   =    6.000    mass and valenz                      
   RCORE  =    1.520    outmost cutoff radius                                   
   RWIGS  =    1.550; RWIGS  =    0.820    wigner-seitz radius (au A)           
   ENMAX  =  400.000; ENMIN  =  300.000 eV                                      
   ICORE  =        2    local potential                                         
   LCOR   =        T    correct aug charges                                     
   LPAW   =        T    paw PP                                                  
   EAUG   =  605.392                                                            
   DEXC   =    0.000                                                            
   RMAX   =    1.553    core radius for proj-oper                               
   RAUG   =    1.300    factor for augmentation sphere                          
   RDEP   =    1.550    radius for radial grids                                 
   RDEPT  =    1.329    core radius for aug-charge                              
                                                                                
   Atomic configuration                                                         
    4 entries                                                                   
     n  l   j            E        occ.                                          
     1  0  0.50      -514.6923   2.0000                                         
     2  0  0.50       -23.9615   2.0000                                         
     2  1  0.50        -9.0305   4.0000                                         
     3  2  1.50        -9.5241   0.0000                                         
   Description                                                                  
     l       E           TYP  RCUT    TYP  RCUT                                 
     0    -23.9615318     23  1.200                                             
     0     -9.5240782     23  1.200                                             
     1     -9.0304911     23  1.520                                             
     1      8.1634956     23  1.520                                             
     2     -9.5240782      7  1.500                                             
  local pseudopotential read in
  partial core-charges read in
  partial kinetic energy density read in
  kinetic energy density of atom read in
  atomic valenz-charges read in
  non local Contribution for L=           0  read in
    real space projection operators read in
  non local Contribution for L=           0  read in
    real space projection operators read in
  non local Contribution for L=           1  read in
    real space projection operators read in
  non local Contribution for L=           1  read in
    real space projection operators read in
    PAW grid and wavefunctions read in
 
   number of l-projection  operators is LMAX  =           4
   number of lm-projection operators is LMMAX =           8
 
 Optimization of the real space projectors (new method)

 maximal supplied QI-value         = 17.01
 optimisation between [QCUT,QGAM] = [ 10.20, 20.41] = [ 29.16,116.64] Ry 
 Optimized for a Real-space Cutoff    1.30 Angstroem

   l    n(q)    QCUT    max X(q) W(low)/X(q) W(high)/X(q)  e(spline) 
   1      7    10.205     4.940    0.23E-03    0.84E-03    0.11E-06
   1      7    10.205     6.253    0.40E-03    0.13E-02    0.18E-06
   0      8    10.205    37.438    0.23E-03    0.37E-03    0.42E-07
   0      8    10.205     9.606    0.16E-03    0.26E-03    0.31E-07
 Optimization of the real space projectors (new method)

 maximal supplied QI-value         = 18.90
 optimisation between [QCUT,QGAM] = [ 10.20, 20.41] = [ 29.16,116.64] Ry 
 Optimized for a Real-space Cutoff    1.26 Angstroem

   l    n(q)    QCUT    max X(q) W(low)/X(q) W(high)/X(q)  e(spline) 
   1      7    10.205     2.974    0.63E-04    0.14E-03    0.13E-06
   1      7    10.205     4.279    0.11E-03    0.45E-03    0.24E-06
   0      8    10.205    16.381    0.44E-03    0.15E-03    0.55E-07
   0      8    10.205     5.611    0.31E-03    0.11E-03    0.40E-07
   2      7    10.205     4.652    0.50E-03    0.47E-03    0.57E-07
 Optimization of the real space projectors (new method)

 maximal supplied QI-value         = 16.25
 optimisation between [QCUT,QGAM] = [ 10.24, 20.48] = [ 29.35,117.42] Ry 
 Optimized for a Real-space Cutoff    1.34 Angstroem

   l    n(q)    QCUT    max X(q) W(low)/X(q) W(high)/X(q)  e(spline) 
   1      8    10.239     3.658    0.23E-03    0.30E-03    0.98E-07
   1      8    10.239     5.612    0.32E-03    0.65E-03    0.21E-06
   2      7    10.239    55.373    0.42E-03    0.45E-03    0.65E-07
   2      7    10.239    50.863    0.43E-03    0.48E-03    0.67E-07
   0      8    10.239    79.536    0.11E-03    0.21E-03    0.56E-07
   0      8    10.239    38.668    0.96E-04    0.19E-03    0.52E-07
 Optimization of the real space projectors (new method)

 maximal supplied QI-value         = 24.76
 optimisation between [QCUT,QGAM] = [ 10.15, 20.30] = [ 28.85,115.39] Ry 
 Optimized for a Real-space Cutoff    1.38 Angstroem

   l    n(q)    QCUT    max X(q) W(low)/X(q) W(high)/X(q)  e(spline) 
   0      8    10.150    20.381    0.22E-03    0.32E-03    0.29E-06
   0      8    10.150    15.268    0.23E-03    0.35E-03    0.30E-06
   1      8    10.150     5.964    0.46E-03    0.53E-03    0.21E-06
   1      8    10.150     5.382    0.38E-03    0.45E-03    0.19E-06
  PAW_PBE Na_pv 19Sep2006               :
 energy of atom  1       EATOM= -766.0439
 kinetic energy error for atom=    0.0103 (will be added to EATOM!!)
  PAW_PBE Mg_pv 13Apr2007               :
 energy of atom  2       EATOM=-1056.7344
 kinetic energy error for atom=    0.0820 (will be added to EATOM!!)
  PAW_PBE Mn_pv 02Aug2007               :
 energy of atom  3       EATOM=-2025.2664
 kinetic energy error for atom=    0.0284 (will be added to EATOM!!)
  PAW_PBE O 08Apr2002                   :
 energy of atom  4       EATOM= -432.3788
 kinetic energy error for atom=    0.1156 (will be added to EATOM!!)
 
 
 POSCAR: Na Mg Mn  O                             
  positions in cartesian coordinates
  No initial velocities read in

 METAGGA = SCAN     LMAXTAU =  6    LMIXTAU =  F

 exchange correlation table for  LEXCH =        8
   RHO(1)=    0.500       N(1)  =     2000
   RHO(2)=  100.500       N(2)  =     4000

 VTST: version 3.2, (02/03/18)

 CHAIN: initializing optimizer
 
 OPT: Using VASP Dynamics algorithm
 CHAIN: Read ICHAIN            0
 
 POSCAR: Na Mg Mn  O                             
  positions in cartesian coordinates
  No initial velocities read in
 


--------------------------------------------------------------------------------------------------------


 ion  position               nearest neighbor table
   1  0.662  0.823  0.244-  65 2.20  74 2.23  88 2.34
   2  0.774  0.330  0.753-  46 2.26  60 2.37
   3  0.287  0.361  0.747-  58 2.22  45 2.23  61 2.35  32 2.88
   4  0.625  0.609  0.744-  82 2.24  68 2.28  71 2.35  35 2.79  33 2.98
   5  0.422  0.424  0.247-  41 2.30  43 2.36
   6  0.244  0.607  0.255-  86 2.31  77 2.33  64 2.34
   7  0.145  0.619  0.759-  83 2.19  80 2.26  73 2.37  37 2.81  39 2.91
   8  0.437  0.110  0.756-  84 2.27  49 2.36
   9  0.791  0.614  0.261-  74 2.27  66 2.35  75 2.37
  10  0.198  0.879  0.236-  67 2.22  76 2.34  77 2.36
  11  0.089  0.141  0.243-  54 2.25  41 2.31  50 2.36  63 2.37  25 2.81  27 2.95
  12  0.053  0.866  0.743-  70 2.22  72 2.25  73 2.31  69 2.36
  13  0.940  0.102  0.753-  72 2.36
  14  0.611  0.925  0.748-  56 2.29  84 2.33  82 2.37
  15  0.591  0.126  0.245-  51 2.27  42 2.36  62 2.37  29 2.88  31 2.92
  16  0.908  0.394  0.257-  62 2.19  53 2.32
  17  0.767  0.438  0.015-  60 1.92  43 1.97  53 2.01  49 2.07  66 2.12  71 2.14
  18  0.437  0.272  0.499-  52 1.95  44 2.04  45 2.06  50 2.07  46 2.12  51 2.14  28 2.84  35 2.84
                            32 2.85
  19  0.274  0.442  0.006-  83 2.00  48 2.02  41 2.04  61 2.04  55 2.06  78 2.16  38 2.85
  20  0.932  0.261  0.495-  64 2.01  62 2.04  63 2.06  57 2.07  56 2.09  58 2.17
  21  0.267  0.926  0.979-  73 1.99  84 2.04  42 2.09  77 2.10  67 2.19  37 2.85
  22  0.933  0.762  0.502-  68 1.96  69 2.02  75 2.08  76 2.09  74 2.09  70 2.11
  23  0.775  0.940  0.990-  85 1.95  54 1.97  79 2.02  72 2.10  65 2.11  59 2.18  34 2.79  25 2.83
                            30 2.85
  24  0.428  0.759  0.506-  86 1.99  87 2.02  80 2.04  81 2.04  88 2.12  82 2.15  39 2.82  36 2.82
                            31 2.83  32 2.85
  25  0.100  0.104  0.996-  54 1.86  47 1.86  67 1.90  72 1.94  61 2.00  41 2.01  11 2.81  23 2.83
                            34 2.85  30 2.85  26 2.90
  26  0.434  0.272  0.010-  42 1.86  43 1.86  41 1.87  48 1.93  49 1.94  47 1.99  25 2.90  29 2.91
                            33 2.91
  27  0.106  0.099  0.502-  76 1.90  63 1.93  58 1.95  50 1.95  44 1.96  69 1.97  32 2.89  36 2.92
                            40 2.93  11 2.95
  28  0.764  0.429  0.501-  52 1.92  68 1.92  62 1.94  75 1.97  46 1.98  57 1.98  18 2.84  35 2.90
                            39 2.95  31 2.97
  29  0.600  0.105  0.990-  59 1.85  49 1.86  84 1.87  79 1.90  42 1.91  53 1.99  15 2.88  38 2.90
                            26 2.91  30 2.91
  30  0.936  0.268  0.992-  53 1.91  54 1.93  59 1.95  61 1.95  55 1.95  60 2.02  25 2.85  23 2.85
                            37 2.87  29 2.91
  31  0.597  0.086  0.503-  88 1.90  51 1.90  81 1.90  46 1.96  56 1.97  62 2.02  36 2.83  24 2.83
                            40 2.84  15 2.92  28 2.97
  32  0.268  0.431  0.501-  64 1.88  80 1.90  50 1.94  45 1.97  58 1.97  87 1.98  39 2.84  24 2.85
                            18 2.85   3 2.88  35 2.89  27 2.89
  33  0.608  0.607  0.009-  48 1.86  71 1.87  65 1.88  85 1.91  78 1.96  43 2.01  34 2.82  38 2.86
                            26 2.91   4 2.98
  34  0.933  0.776  0.001-  71 1.90  67 1.90  65 1.91  72 1.92  73 1.97  66 2.02  23 2.79  33 2.82
                            25 2.85  37 2.97
  35  0.600  0.599  0.495-  45 1.85  82 1.93  74 1.93  87 1.94  68 1.95  52 1.96   4 2.79  18 2.84
                            40 2.88  32 2.89  28 2.90
  36  0.270  0.927  0.499-  86 1.85  70 1.91  76 1.92  51 1.94  81 1.96  44 1.98  24 2.82  31 2.83
                            39 2.88  27 2.92
  37  0.098  0.599  0.006-  60 1.84  55 1.90  73 1.91  77 1.91  66 1.95  83 2.01   7 2.81  21 2.85
                            30 2.87  34 2.97  38 2.98
  38  0.441  0.771  0.996-  83 1.87  78 1.88  85 1.90  79 1.91  77 1.96  84 2.10  19 2.85  33 2.86
                            29 2.90  37 2.98
  39  0.103  0.594  0.502-  57 1.82  75 1.88  64 1.92  70 1.93  86 1.94  80 2.03  24 2.82  32 2.84
                            36 2.88   7 2.91  28 2.95
  40  0.769  0.931  0.500-  63 1.82  69 1.92  56 1.93  88 1.97  82 1.98  74 2.00  31 2.84  35 2.88
                            27 2.93
  41  0.272  0.265  0.097-  26 1.87  25 2.01  19 2.04   5 2.30  11 2.31
  42  0.439  0.107  0.079-  26 1.86  29 1.91  21 2.09  15 2.36
  43  0.591  0.427  0.100-  26 1.86  17 1.97  33 2.01   5 2.36
  44  0.269  0.092  0.594-  27 1.96  36 1.98  18 2.04
  45  0.446  0.454  0.591-  35 1.85  32 1.97  18 2.06   3 2.23
  46  0.609  0.256  0.598-  31 1.96  28 1.98  18 2.12   2 2.26
  47  0.265  0.132  0.901-  25 1.86  26 1.99
  48  0.453  0.446  0.921-  33 1.86  26 1.93  19 2.02
  49  0.592  0.266  0.914-  29 1.86  26 1.94  17 2.07   8 2.36
  50  0.258  0.267  0.404-  32 1.94  27 1.95  18 2.07  11 2.36
  51  0.440  0.086  0.407-  31 1.90  36 1.94  18 2.14  15 2.27
  52  0.606  0.433  0.407-  28 1.92  18 1.95  35 1.96
  53  0.774  0.258  0.089-  30 1.91  29 1.99  17 2.01  16 2.32
  54  0.943  0.107  0.081-  25 1.86  30 1.93  23 1.97  11 2.25
  55  0.089  0.432  0.093-  37 1.90  30 1.95  19 2.06
  56  0.761  0.085  0.598-  40 1.93  31 1.97  20 2.09  14 2.29
  57  0.944  0.446  0.587-  39 1.82  28 1.98  20 2.07
  58  0.114  0.262  0.601-  27 1.95  32 1.97  20 2.17   3 2.22
  59  0.761  0.124  0.896-  29 1.85  30 1.95  23 2.18
  60  0.934  0.452  0.920-  37 1.84  17 1.92  30 2.02   2 2.37
  61  0.106  0.276  0.902-  30 1.95  25 2.00  19 2.04   3 2.35
  62  0.757  0.264  0.405-  28 1.94  31 2.02  20 2.04  16 2.19  15 2.37
  63  0.930  0.076  0.414-  40 1.82  27 1.93  20 2.06  11 2.37
  64  0.111  0.436  0.412-  32 1.88  39 1.92  20 2.01   6 2.34
  65  0.769  0.764  0.097-  33 1.88  34 1.91  23 2.11   1 2.20
  66  0.952  0.623  0.106-  37 1.95  34 2.02  17 2.12   9 2.35
  67  0.093  0.941  0.087-  34 1.90  25 1.90  21 2.19  10 2.22
  68  0.762  0.593  0.588-  28 1.92  35 1.95  22 1.96   4 2.28
  69  0.933  0.936  0.593-  40 1.92  27 1.97  22 2.02  12 2.36
  70  0.117  0.764  0.594-  36 1.91  39 1.93  22 2.11  12 2.22
  71  0.766  0.618  0.914-  33 1.87  34 1.90  17 2.14   4 2.35
  72  0.955  0.936  0.895-  34 1.92  25 1.94  23 2.10  12 2.25  13 2.36
  73  0.083  0.746  0.908-  37 1.91  34 1.97  21 1.99  12 2.31   7 2.37
  74  0.758  0.761  0.399-  35 1.93  40 2.00  22 2.09   1 2.23   9 2.27
  75  0.941  0.585  0.410-  39 1.88  28 1.97  22 2.08   9 2.37
  76  0.115  0.943  0.410-  27 1.90  36 1.92  22 2.09  10 2.34
  77  0.271  0.759  0.090-  37 1.91  38 1.96  21 2.10   6 2.33  10 2.36
  78  0.457  0.634  0.101-  38 1.88  33 1.96  19 2.16
  79  0.601  0.943  0.078-  29 1.90  38 1.91  23 2.02
  80  0.264  0.580  0.603-  32 1.90  39 2.03  24 2.04   7 2.26
  81  0.435  0.938  0.600-  31 1.90  36 1.96  24 2.04
  82  0.615  0.759  0.599-  35 1.93  40 1.98  24 2.15   4 2.24  14 2.37
  83  0.276  0.613  0.913-  38 1.87  19 2.00  37 2.01   7 2.19
  84  0.456  0.951  0.890-  29 1.87  21 2.04  38 2.10   8 2.27  14 2.33
  85  0.603  0.763  0.913-  38 1.90  33 1.91  23 1.95
  86  0.263  0.765  0.412-  36 1.85  39 1.94  24 1.99   6 2.31
  87  0.434  0.596  0.404-  35 1.94  32 1.98  24 2.02
  88  0.607  0.937  0.404-  31 1.90  40 1.97  24 2.12   1 2.34
 
  LATTYP: Found a hexagonal cell.
 ALAT       =    10.0190000534
 C/A-ratio  =     1.1196726572
  
  Lattice vectors:
  
 A1 = (  10.0190000534,   0.0000000000,   0.0000000000)
 A2 = (  -5.0095000267,   8.6767085668,   0.0000000000)
 A3 = (   0.0000000000,   0.0000000000,  11.2180004120)


Analysis of symmetry for initial positions (statically):
=====================================================================
 Subroutine PRICEL returns:
 Original cell was already a primitive cell.
 

 Routine SETGRP: Setting up the symmetry group for a 
 hexagonal supercell.


 Subroutine GETGRP returns: Found  1 space group operations
 (whereof  1 operations were pure point group operations)
 out of a pool of 24 trial point group operations.


The static configuration has the point symmetry C_1 .


Analysis of symmetry for dynamics (positions and initial velocities):
=====================================================================
 Subroutine PRICEL returns:
 Original cell was already a primitive cell.
 

 Routine SETGRP: Setting up the symmetry group for a 
 hexagonal supercell.


 Subroutine GETGRP returns: Found  1 space group operations
 (whereof  1 operations were pure point group operations)
 out of a pool of 24 trial point group operations.


The dynamic configuration has the point symmetry C_1 .


Analysis of structural, dynamic, and magnetic symmetry:
=====================================================================
 Subroutine PRICEL returns:
 Original cell was already a primitive cell.
 

 Routine SETGRP: Setting up the symmetry group for a 
 hexagonal supercell.


 Subroutine GETGRP returns: Found  1 space group operations
 (whereof  1 operations were pure point group operations)
 out of a pool of 24 trial point group operations.


The magnetic configuration has the point symmetry C_1 .


 Subroutine INISYM returns: Found  1 space group operations
 (whereof  1 operations are pure point group operations),
 and found     1 'primitive' translations

 
 

Automatic generation of k-mesh.
 generate k-points for:    2    2    2
Space group operators:
 irot       det(A)        alpha          n_x          n_y          n_z        tau_x        tau_y        tau_z
    1     1.000000     0.000000     1.000000     0.000000     0.000000     0.000000     0.000000     0.000000
 
 Subroutine IBZKPT returns following result:
 ===========================================
 
 Found      8 irreducible k-points:
 
 Following reciprocal coordinates:
            Coordinates               Weight
  0.000000  0.000000  0.000000      1.000000
  0.500000 -0.000000 -0.000000      1.000000
  0.000000  0.500000  0.000000      1.000000
  0.500000  0.500000 -0.000000      1.000000
  0.000000  0.000000  0.500000      1.000000
  0.500000 -0.000000  0.500000      1.000000
  0.000000  0.500000  0.500000      1.000000
  0.500000  0.500000  0.500000      1.000000
 
 Following cartesian coordinates:
            Coordinates               Weight
  0.000000  0.000000  0.000000      1.000000
  0.049905  0.028813 -0.000000      1.000000
  0.000000  0.057626  0.000000      1.000000
  0.049905  0.086438 -0.000000      1.000000
  0.000000  0.000000  0.044571      1.000000
  0.049905  0.028813  0.044571      1.000000
  0.000000  0.057626  0.044571      1.000000
  0.049905  0.086438  0.044571      1.000000
 


--------------------------------------------------------------------------------------------------------




 Dimension of arrays:
   k-points           NKPTS =      8   k-points in BZ     NKDIM =      8   number of bands    NBANDS=    448
   number of dos      NEDOS =    301   number of ions     NIONS =     88
   non local maximal  LDIM  =      6   non local SUM 2l+1 LMDIM =     18
   total plane-waves  NPLWV = 140000
   max r-space proj   IRMAX =   1632   max aug-charges    IRDMAX=   4555
   dimension x,y,z NGX =    50 NGY =   50 NGZ =   56
   dimension x,y,z NGXF=   100 NGYF=  100 NGZF=  112
   support grid    NGXF=   100 NGYF=  100 NGZF=  112
   ions per type =              16   8  16  48
   NGX,Y,Z   is equivalent  to a cutoff of   8.30,  8.30,  8.30 a.u.
   NGXF,Y,Z  is equivalent  to a cutoff of  16.59, 16.59, 16.60 a.u.

 SYSTEM =  unknown system                          
 POSCAR =  Na Mg Mn  O                             

 Startparameter for this run:
   NWRITE =      2    write-flag & timer
   PREC   = normal    normal or accurate (medium, high low for compatibility)
   ISTART =      0    job   : 0-new  1-cont  2-samecut
   ICHARG =      1    charge: 1-file 2-atom 10-const
   ISPIN  =      2    spin polarized calculation?
   LNONCOLLINEAR =      F non collinear calculations
   LSORBIT =      F    spin-orbit coupling
   INIWAV =      1    electr: 0-lowe 1-rand  2-diag
   LASPH  =      T    aspherical Exc in radial PAW
   METAGGA=      F    non-selfconsistent MetaGGA calc.

 Electronic Relaxation 1
   ENCUT  =  400.0 eV  29.40 Ry    5.42 a.u.  16.34 16.34 18.29*2*pi/ulx,y,z
   ENINI  =  400.0     initial cutoff
   ENAUG  =  758.8 eV  augmentation charge cutoff
   NELM   =    200;   NELMIN=  6; NELMDL=-12     # of ELM steps 
   EDIFF  = 0.1E-04   stopping-criterion for ELM
   LREAL  =      T    real-space projection
   NLSPLINE    = F    spline interpolate recip. space projectors
   LCOMPAT=      F    compatible to vasp.4.4
   GGA_COMPAT  = T    GGA compatible to vasp.4.4-vasp.4.6
   LMAXPAW     = -100 max onsite density
   LMAXMIX     =    4 max onsite mixed and CHGCAR
   VOSKOWN=      0    Vosko Wilk Nusair interpolation
   ROPT   =   -0.00050  -0.00050  -0.00050  -0.00050
 Ionic relaxation
   EDIFFG = 0.1E-03   stopping-criterion for IOM
   NSW    =      1    number of steps for IOM
   NBLOCK =      1;   KBLOCK =      1    inner block; outer block 
   IBRION =     -1    ionic relax: 0-MD 1-quasi-New 2-CG
   NFREE  =      0    steps in history (QN), initial steepest desc. (CG)
   ISIF   =      2    stress and relaxation
   IWAVPR =     10    prediction:  0-non 1-charg 2-wave 3-comb
   ISYM   =      2    0-nonsym 1-usesym 2-fastsym
   LCORR  =      T    Harris-Foulkes like correction to forces

   POTIM  = 0.5000    time-step for ionic-motion
   TEIN   =    0.0    initial temperature
   TEBEG  =    0.0;   TEEND  =   0.0 temperature during run
   SMASS  =  -3.00    Nose mass-parameter (am)
   estimated Nose-frequenzy (Omega)   =  0.10E-29 period in steps =****** mass=  -0.229E-26a.u.
   SCALEE = 1.0000    scale energy and forces
   NPACO  =    256;   APACO  = 16.0  distance and # of slots for P.C.
   PSTRESS=    0.0 pullay stress

  Mass of Ions in am
   POMASS =  22.99 24.30 54.94 16.00
  Ionic Valenz
   ZVAL   =   7.00  8.00 13.00  6.00
  Atomic Wigner-Seitz radii
   RWIGS  =  -1.00 -1.00 -1.00 -1.00
  virtual crystal weights 
   VCA    =   1.00  1.00  1.00  1.00
   NELECT =     672.0000    total number of electrons
   NUPDOWN=      48.0000    fix difference up-down

 DOS related values:
   EMIN   =  10.00;   EMAX   =-10.00  energy-range for DOS
   EFERMI =   0.00
   ISMEAR =     0;   SIGMA  =   0.05  broadening in eV -4-tet -1-fermi 0-gaus

 Electronic relaxation 2 (details)
   IALGO  =     48    algorithm
   LDIAG  =      T    sub-space diagonalisation (order eigenvalues)
   LSUBROT=      F    optimize rotation matrix (better conditioning)
   TURBO    =      0    0=normal 1=particle mesh
   IRESTART =      0    0=no restart 2=restart with 2 vectors
   NREBOOT  =      0    no. of reboots
   NMIN     =      0    reboot dimension
   EREF     =   0.00    reference energy to select bands
   IMIX   =      4    mixing-type and parameters
     AMIX     =   0.40;   BMIX     =  1.00
     AMIX_MAG =   1.60;   BMIX_MAG =  1.00
     AMIN     =   0.10
     WC   =   100.;   INIMIX=   1;  MIXPRE=   1;  MAXMIX= -45

 Intra band minimization:
   WEIMIN = 0.0000     energy-eigenvalue tresh-hold
   EBREAK =  0.56E-08  absolut break condition
   DEPER  =   0.30     relativ break condition  

   TIME   =   0.40     timestep for ELM

  volume/ion in A,a.u.               =      11.08        74.78
  Fermi-wavevector in a.u.,A,eV,Ry     =   1.445993  2.732531 28.448379  2.090897
  Thomas-Fermi vector in A             =   2.564112
 
 Write flags
   LWAVE        =      F    write WAVECAR
   LDOWNSAMPLE  =      F    k-point downsampling of WAVECAR
   LCHARG       =      F    write CHGCAR
   LVTOT        =      F    write LOCPOT, total local potential
   LVHAR        =      F    write LOCPOT, Hartree potential only
   LELF         =      F    write electronic localiz. function (ELF)
   LORBIT       =     11    0 simple, 1 ext, 2 COOP (PROOUT), +10 PAW based schemes


 Dipole corrections
   LMONO  =      F    monopole corrections only (constant potential shift)
   LDIPOL =      F    correct potential (dipole corrections)
   IDIPOL =      0    1-x, 2-y, 3-z, 4-all directions 
   EPSILON=  1.0000000 bulk dielectric constant

 Exchange correlation treatment:
   GGA     =    --    GGA type
   LEXCH   =     8    internal setting for exchange type
   VOSKOWN=      0    Vosko Wilk Nusair interpolation
   LHFCALC =     F    Hartree Fock is set to
   LHFONE  =     F    Hartree Fock one center treatment
   AEXX    =    0.0000 exact exchange contribution

 Linear response parameters
   LEPSILON=     F    determine dielectric tensor
   LRPA    =     F    only Hartree local field effects (RPA)
   LNABLA  =     F    use nabla operator in PAW spheres
   LVEL    =     F    velocity operator in full k-point grid
   LINTERFAST=   F  fast interpolation
   KINTER  =     0    interpolate to denser k-point grid
   CSHIFT  =0.1000    complex shift for real part using Kramers Kronig
   OMEGAMAX=  -1.0    maximum frequency
   DEG_THRESHOLD= 0.2000000E-02 threshold for treating states as degnerate
   RTIME   =   -0.100 relaxation time in fs
  (WPLASMAI=    0.000 imaginary part of plasma frequency in eV, 0.658/RTIME)
   DFIELD  = 0.0000000 0.0000000 0.0000000 field for delta impulse in time
 
 Orbital magnetization related:
   ORBITALMAG=     F  switch on orbital magnetization
   LCHIMAG   =     F  perturbation theory with respect to B field
   DQ        =  0.001000  dq finite difference perturbation B field
   LLRAUG    =     F  two centre corrections for induced B field



--------------------------------------------------------------------------------------------------------


 Static calculation
 charge density and potential will be updated during run
 spin polarized calculation
 RMM-DIIS sequential band-by-band
 perform sub-space diagonalisation
    before iterative eigenvector-optimisation
 modified Broyden-mixing scheme, WC =      100.0
 initial mixing is a Kerker type mixing with AMIX =  0.4000 and BMIX =      1.0000
 Hartree-type preconditioning will be used
 using additional bands          112
 real space projection scheme for non local part
 use partial core corrections
 calculate Harris-corrections to forces 
   (improved forces if not selfconsistent)
 use gradient corrections 
 use of overlap-Matrix (Vanderbilt PP)
 Gauss-broadening in eV      SIGMA  =   0.05


--------------------------------------------------------------------------------------------------------


  energy-cutoff  :      400.00
  volume of cell :      975.20
      direct lattice vectors                 reciprocal lattice vectors
    10.019000053  0.000000000  0.000000000     0.099810360  0.057625538 -0.000000000
    -5.009500027  8.676708567  0.000000000     0.000000000  0.115251076  0.000000000
     0.000000000  0.000000000 11.218000412     0.000000000  0.000000000  0.089142446

  length of vectors
    10.019000053 10.019000053 11.218000412     0.115251076  0.115251076  0.089142446


 
 k-points in units of 2pi/SCALE and weight: read from INCAR                         
   0.00000000  0.00000000  0.00000000       0.125
   0.04990518  0.02881277 -0.00000000       0.125
   0.00000000  0.05762554  0.00000000       0.125
   0.04990518  0.08643831 -0.00000000       0.125
   0.00000000  0.00000000  0.04457122       0.125
   0.04990518  0.02881277  0.04457122       0.125
   0.00000000  0.05762554  0.04457122       0.125
   0.04990518  0.08643831  0.04457122       0.125
 
 k-points in reciprocal lattice and weights: read from INCAR                         
   0.00000000  0.00000000  0.00000000       0.125
   0.50000000 -0.00000000 -0.00000000       0.125
   0.00000000  0.50000000  0.00000000       0.125
   0.50000000  0.50000000 -0.00000000       0.125
   0.00000000  0.00000000  0.50000000       0.125
   0.50000000 -0.00000000  0.50000000       0.125
   0.00000000  0.50000000  0.50000000       0.125
   0.50000000  0.50000000  0.50000000       0.125
 
 position of ions in fractional coordinates (direct lattice) 
   0.66199864  0.82320880  0.24382509
   0.77392758  0.33028851  0.75335440
   0.28655882  0.36061140  0.74663039
   0.62497327  0.60916401  0.74369849
   0.42153778  0.42438706  0.24728115
   0.24352478  0.60672019  0.25547245
   0.14537237  0.61938036  0.75863342
   0.43713850  0.10976957  0.75624529
   0.79064294  0.61416541  0.26104831
   0.19793563  0.87860407  0.23621589
   0.08911927  0.14075976  0.24306917
   0.05266421  0.86636243  0.74265285
   0.93965607  0.10168965  0.75282490
   0.61149671  0.92521917  0.74831875
   0.59139232  0.12581285  0.24513192
   0.90790515  0.39384405  0.25708771
   0.76746299  0.43752305  0.01483125
   0.43702735  0.27188881  0.49888214
   0.27425976  0.44232211  0.00606165
   0.93208870  0.26092959  0.49522730
   0.26719437  0.92570125  0.97887288
   0.93322248  0.76224296  0.50150738
   0.77482190  0.93966277  0.98972143
   0.42827833  0.75949768  0.50569262
   0.10037079  0.10414910  0.99586568
   0.43405231  0.27231063  0.00954903
   0.10621501  0.09850348  0.50188534
   0.76400928  0.42879509  0.50123460
   0.60041250  0.10480604  0.98952505
   0.93601386  0.26838864  0.99233371
   0.59673019  0.08613232  0.50279281
   0.26759149  0.43121651  0.50056069
   0.60770705  0.60714382  0.00852181
   0.93251179  0.77583106  0.00093237
   0.60011038  0.59897713  0.49539310
   0.27021593  0.92651032  0.49869226
   0.09836917  0.59912580  0.00621141
   0.44147773  0.77058137  0.99587392
   0.10349568  0.59430946  0.50159563
   0.76872449  0.93073773  0.50037171
   0.27172313  0.26454617  0.09661704
   0.43871528  0.10655123  0.07898101
   0.59101865  0.42723343  0.09984756
   0.26936075  0.09242346  0.59362540
   0.44575763  0.45406043  0.59114992
   0.60872508  0.25581129  0.59790424
   0.26471793  0.13201896  0.90055265
   0.45338460  0.44647575  0.92068993
   0.59223037  0.26603175  0.91437864
   0.25762550  0.26655154  0.40372971
   0.43998275  0.08556487  0.40722320
   0.60623800  0.43262373  0.40729451
   0.77385792  0.25812207  0.08857746
   0.94263935  0.10745457  0.08127331
   0.08878782  0.43244739  0.09345872
   0.76064153  0.08459676  0.59811818
   0.94384757  0.44566900  0.58749686
   0.11392418  0.26191383  0.60074877
   0.76138167  0.12367362  0.89595290
   0.93388667  0.45215302  0.92031553
   0.10585379  0.27598945  0.90199676
   0.75654086  0.26394110  0.40541361
   0.92988679  0.07583307  0.41413263
   0.11102500  0.43567212  0.41151184
   0.76946824  0.76380922  0.09735692
   0.95244797  0.62314528  0.10599037
   0.09306078  0.94090748  0.08744143
   0.76196521  0.59298523  0.58806291
   0.93291330  0.93572579  0.59273309
   0.11716689  0.76361214  0.59396414
   0.76608649  0.61827938  0.91395076
   0.95461737  0.93634123  0.89524867
   0.08290280  0.74642244  0.90777319
   0.75815868  0.76057527  0.39948207
   0.94138987  0.58528300  0.41045729
   0.11528875  0.94319752  0.41038151
   0.27117944  0.75869783  0.08987698
   0.45700777  0.63360432  0.10125066
   0.60092811  0.94310186  0.07817088
   0.26447438  0.58026266  0.60279638
   0.43518201  0.93759747  0.59979852
   0.61470478  0.75881770  0.59921642
   0.27577596  0.61348724  0.91272059
   0.45623801  0.95064389  0.89010516
   0.60296690  0.76267400  0.91342482
   0.26285943  0.76540545  0.41228560
   0.43407762  0.59587457  0.40376358
   0.60723956  0.93743151  0.40438312
 
 position of ions in cartesian coordinates  (Angst):
   2.50869987  7.14274283  2.73523000
   6.09940021  2.86581713  8.45113000
   1.06455005  3.12892000  8.37570000
   3.21000013  5.28553857  8.34281000
   2.09742000  3.68228287  2.77400000
  -0.59949005  5.26433427  2.86589000
  -1.64630011  5.37418287  8.51035000
   3.82979997  0.95243857  8.48356000
   4.84479000  5.32893427  2.92844000
  -2.41825003  7.62339143  2.64987000
   0.18774997  1.22133143  2.72675000
  -3.81239992  7.51717430  8.33108000
   8.90499992  0.88233143  8.44519000
   1.49170011  8.02785713  8.39464000
   5.29490019  1.09164143  2.74989000
   7.12334000  3.41727000  2.88401000
   5.49744000  3.79626000  0.16637700
   3.01655000  2.35910000  5.59646000
   0.53199600  3.83790000  0.06799959
   8.03147000  2.26401000  5.55546000
  -1.96028000  8.03204000 10.98099641
   5.53150000  6.61376000  5.62591000
   3.05570000  8.15318000 11.10269541
   0.48621700  6.58994000  5.67286000
   0.48387997  0.90367143 11.17162161
   2.98463000  2.36276000  0.10712100
   0.57071500  0.85468600  5.63015000
   5.50656000  3.72053000  5.62285000
   5.49050703  0.90937143 11.10049241
   8.03343000  2.32873000 11.13200000
   5.54716000  0.74734500  5.64033000
   0.52082000  3.74154000  5.61529000
   3.04713000  5.26801000  0.09559770
   5.45631000  6.73166000  0.01045930
   3.01193000  5.19715000  5.55732000
  -1.93406000  8.03906000  5.59433000
  -2.01576000  5.19844000  0.06967960
   0.56293800  6.68611000 11.17171401
  -1.94027000  5.15665000  5.62690000
   3.03932000  8.07574000  5.61317000
   1.39715000  2.29539000  1.08385000
   3.86172000  0.92451400  0.88600900
   3.78119000  3.70698000  1.12009000
   2.23573003  0.80193143  6.65929000
   2.19143000  3.93975000  6.63152000
   4.81733000  2.21960000  6.70729000
   1.99086000  1.14549000 10.10240000
   2.30584000  3.87394000 10.32830000
   4.60087000  2.30828000 10.25750000
   1.24586000  2.31279000  4.52904000
   3.97955003  0.74242143  4.56823000
   3.90667000  3.75375000  4.56903000
   6.46022000  2.23965000  0.99366200
   8.90601000  0.93235200  0.91172400
  -1.27678005  3.75222000  1.04842000
   7.19708003  0.73402143  6.70969000
   7.22383000  3.86694000  6.59054000
  -0.17065100  2.27255000  6.73920000
   7.00874000  1.07308000 10.05080000
   7.09155000  3.92320000 10.32410000
  -0.32202005  2.39468000 10.11860000
   6.25757000  2.29014000  4.54793000
   8.93665003  0.65798143  4.64574000
  -1.07014000  3.78020000  4.61634000
   3.88300000  6.62735000  1.09215000
   6.42093000  5.40685000  1.18900000
  -3.78110005  8.16398000  0.98091800
   4.66357000  5.14516000  6.59689000
   4.65934000  8.11902000  6.64928000
  -2.65142000  6.62564000  6.66309000
   4.57815000  5.36463000 10.25270000
   4.87371000  8.12436000 10.04290000
  -2.90860005  6.47649000 10.18340000
   3.78589000  6.59929000  4.48139000
   6.49981000  5.07833000  4.60451000
  -3.56987000  8.18385000  4.60366000
  -1.08375000  6.58300000  1.00824000
   1.40472000  5.49760000  1.13583000
   1.29623000  8.18302000  0.87692100
  -0.25705700  5.03477000  6.76217000
  -0.33680600  8.13526000  6.72854000
   2.35743000  6.58404000  6.72201000
  -0.31026500  5.32305000 10.23890000
  -0.19120200  8.24846000  9.98520000
   2.22051000  6.61750000 10.24680000
  -1.20071000  6.64120000  4.62502000
   1.36399000  5.17023000  4.52942000
   1.38787000  8.13382000  4.53637000
 


--------------------------------------------------------------------------------------------------------


 k-point  1 :   0.0000 0.0000 0.0000  plane waves:   17725
 k-point  2 :   0.5000-0.0000-0.0000  plane waves:   17736
 k-point  3 :   0.0000 0.5000 0.0000  plane waves:   17736
 k-point  4 :   0.5000 0.5000-0.0000  plane waves:   17736
 k-point  5 :   0.0000 0.0000 0.5000  plane waves:   17676
 k-point  6 :   0.5000-0.0000 0.5000  plane waves:   17700
 k-point  7 :   0.0000 0.5000 0.5000  plane waves:   17700
 k-point  8 :   0.5000 0.5000 0.5000  plane waves:   17700

 maximum and minimum number of plane-waves per node :     17736    17676

 maximum number of plane-waves:     17736
 maximum index in each direction: 
   IXMAX=   16   IYMAX=   16   IZMAX=   18
   IXMIN=  -16   IYMIN=  -16   IZMIN=  -18


 serial   3D FFT for wavefunctions
 parallel 3D FFT for charge:
    minimum data exchange during FFTs selected (reduces bandwidth)


 total amount of memory used by VASP MPI-rank0    88177. kBytes
=======================================================================

   base      :      30000. kBytes
   nonlr-proj:      13668. kBytes
   fftplans  :        992. kBytes
   grid      :      21513. kBytes
   one-center:       2737. kBytes
   wavefun   :      19267. kBytes
 
     INWAV:  cpu time    0.0000: real time    0.0001
 Broyden mixing: mesh for mixing (old mesh)
   NGX = 33   NGY = 33   NGZ = 37
  (NGX  =100   NGY  =100   NGZ  =112)
  gives a total of  40293 points

 initial charge density was supplied:
 charge density of overlapping atoms calculated
 number of electron     672.0000000 magnetization      48.0000000
 keeping initial charge density in first step


--------------------------------------------------------------------------------------------------------


 Maximum index for non-local projection operator         1550
 Maximum index for augmentation-charges          202 (set IRDMAX)


--------------------------------------------------------------------------------------------------------


 First call to EWALD:  gamma=   0.179
 Maximum number of real-space cells 3x 3x 2
 Maximum number of reciprocal cells 3x 3x 3

    FEWALD:  cpu time    0.0025: real time    0.0029


--------------------------------------- Iteration      1(   1)  ---------------------------------------


    POTLOK:  cpu time    0.2043: real time    0.2058
    SETDIJ:  cpu time    3.0967: real time    3.1002
    EDDIAG:  cpu time    3.7116: real time    3.7208
  RMM-DIIS:  cpu time    6.5828: real time    6.5947
    ORTHCH:  cpu time    1.1463: real time    1.1502
       DOS:  cpu time    0.0024: real time    0.0027
    --------------------------------------------
      LOOP:  cpu time   14.7442: real time   14.7744

 eigenvalue-minimisations  :  7168
 total energy-change (2. order) : 0.1875568E+04  (-0.3593399E+05)
 number of electron     672.0000000 magnetization      48.0000000
 augmentation part      672.0000000 magnetization      48.0000000

 Free energy of the ion-electron system (eV)
  ---------------------------------------------------
  alpha Z        PSCENC =      2652.81237852
  Ewald energy   TEWEN  =    -41921.68311576
  -Hartree energ DENC   =    -25697.17834550
  -exchange      EXHF   =         0.00000000
  -V(xc)+E(xc)   XCENC  =      3605.71814325
  PAW double counting   =     55594.23204139   -59034.67079123
  entropy T*S    EENTRO =        -0.04536888
  eigenvalues    EBANDS =     -7185.81482455
  atomic energy  EATOM  =     73862.19814772
  Solvation  Ediel_sol  =         0.00000000
  ---------------------------------------------------
  free energy    TOTEN  =      1875.56826497 eV

  energy without entropy =     1875.61363385  energy(sigma->0) =     1875.59094941


--------------------------------------------------------------------------------------------------------




--------------------------------------- Iteration      1(   2)  ---------------------------------------


    EDDIAG:  cpu time    3.6988: real time    3.7102
  RMM-DIIS:  cpu time    6.6251: real time    6.6376
    ORTHCH:  cpu time    1.1504: real time    1.1787
       DOS:  cpu time    0.0015: real time    0.0015
    --------------------------------------------
      LOOP:  cpu time   11.4758: real time   11.5280

 eigenvalue-minimisations  :  7168
 total energy-change (2. order) :-0.2724307E+04  (-0.8691688E+04)
 number of electron     672.0000000 magnetization      48.0000000
 augmentation part      672.0000000 magnetization      48.0000000

 Free energy of the ion-electron system (eV)
  ---------------------------------------------------
  alpha Z        PSCENC =      2652.81237852
  Ewald energy   TEWEN  =    -41921.68311576
  -Hartree energ DENC   =    -25697.17834550
  -exchange      EXHF   =         0.00000000
  -V(xc)+E(xc)   XCENC  =      3605.71814325
  PAW double counting   =     55594.23204139   -59034.67079123
  entropy T*S    EENTRO =        -0.05237510
  eigenvalues    EBANDS =     -9910.11499489
  atomic energy  EATOM  =     73862.19814772
  Solvation  Ediel_sol  =         0.00000000
  ---------------------------------------------------
  free energy    TOTEN  =      -848.73891159 eV

  energy without entropy =     -848.68653649  energy(sigma->0) =     -848.71272404


--------------------------------------------------------------------------------------------------------




--------------------------------------- Iteration      1(   3)  ---------------------------------------


    EDDIAG:  cpu time    3.7499: real time    3.7578
  RMM-DIIS:  cpu time    6.5850: real time    6.5998
    ORTHCH:  cpu time    1.1569: real time    1.1604
       DOS:  cpu time    0.0016: real time    0.0016
    --------------------------------------------
      LOOP:  cpu time   11.4934: real time   11.5196

 eigenvalue-minimisations  :  7168
 total energy-change (2. order) : 0.3157289E+03  (-0.1563301E+04)
 number of electron     672.0000000 magnetization      48.0000000
 augmentation part      672.0000000 magnetization      48.0000000

 Free energy of the ion-electron system (eV)
  ---------------------------------------------------
  alpha Z        PSCENC =      2652.81237852
  Ewald energy   TEWEN  =    -41921.68311576
  -Hartree energ DENC   =    -25697.17834550
  -exchange      EXHF   =         0.00000000
  -V(xc)+E(xc)   XCENC  =      3605.71814325
  PAW double counting   =     55594.23204139   -59034.67079123
  entropy T*S    EENTRO =        -0.04358451
  eigenvalues    EBANDS =     -9594.39484905
  atomic energy  EATOM  =     73862.19814772
  Solvation  Ediel_sol  =         0.00000000
  ---------------------------------------------------
  free energy    TOTEN  =      -533.00997516 eV

  energy without entropy =     -532.96639065  energy(sigma->0) =     -532.98818290


--------------------------------------------------------------------------------------------------------




--------------------------------------- Iteration      1(   4)  ---------------------------------------


    EDDIAG:  cpu time    3.7763: real time    3.7856
  RMM-DIIS:  cpu time    6.5779: real time    6.5923
    ORTHCH:  cpu time    1.1482: real time    1.1525
       DOS:  cpu time    0.0012: real time    0.0012
    --------------------------------------------
      LOOP:  cpu time   11.5037: real time   11.5316

 eigenvalue-minimisations  :  7168
 total energy-change (2. order) :-0.5252613E+03  (-0.5079107E+03)
 number of electron     672.0000000 magnetization      48.0000000
 augmentation part      672.0000000 magnetization      48.0000000

 Free energy of the ion-electron system (eV)
  ---------------------------------------------------
  alpha Z        PSCENC =      2652.81237852
  Ewald energy   TEWEN  =    -41921.68311576
  -Hartree energ DENC   =    -25697.17834550
  -exchange      EXHF   =         0.00000000
  -V(xc)+E(xc)   XCENC  =      3605.71814325
  PAW double counting   =     55594.23204139   -59034.67079123
  entropy T*S    EENTRO =        -0.00094970
  eigenvalues    EBANDS =    -10119.69879725
  atomic energy  EATOM  =     73862.19814772
  Solvation  Ediel_sol  =         0.00000000
  ---------------------------------------------------
  free energy    TOTEN  =     -1058.27128854 eV

  energy without entropy =    -1058.27033884  energy(sigma->0) =    -1058.27081369


--------------------------------------------------------------------------------------------------------




--------------------------------------- Iteration      1(   5)  ---------------------------------------


    EDDIAG:  cpu time    3.7340: real time    3.7388
  RMM-DIIS:  cpu time    6.6092: real time    6.6293
    ORTHCH:  cpu time    1.1509: real time    1.1531
       DOS:  cpu time    0.0010: real time    0.0010
    --------------------------------------------
      LOOP:  cpu time   11.4951: real time   11.5222

 eigenvalue-minimisations  :  7168
 total energy-change (2. order) :-0.1477761E+03  (-0.2130223E+03)
 number of electron     672.0000000 magnetization      48.0000000
 augmentation part      672.0000000 magnetization      48.0000000

 Free energy of the ion-electron system (eV)
  ---------------------------------------------------
  alpha Z        PSCENC =      2652.81237852
  Ewald energy   TEWEN  =    -41921.68311576
  -Hartree energ DENC   =    -25697.17834550
  -exchange      EXHF   =         0.00000000
  -V(xc)+E(xc)   XCENC  =      3605.71814325
  PAW double counting   =     55594.23204139   -59034.67079123
  entropy T*S    EENTRO =        -0.00000000
  eigenvalues    EBANDS =    -10267.47586001
  atomic energy  EATOM  =     73862.19814772
  Solvation  Ediel_sol  =         0.00000000
  ---------------------------------------------------
  free energy    TOTEN  =     -1206.04740161 eV

  energy without entropy =    -1206.04740161  energy(sigma->0) =    -1206.04740161


--------------------------------------------------------------------------------------------------------




--------------------------------------- Iteration      1(   6)  ---------------------------------------


    EDDIAG:  cpu time    3.7271: real time    3.7326
  RMM-DIIS:  cpu time    6.6471: real time    6.6504
    ORTHCH:  cpu time    1.1478: real time    1.1501
       DOS:  cpu time    0.0014: real time    0.0014
    --------------------------------------------
      LOOP:  cpu time   11.5233: real time   11.5345

 eigenvalue-minimisations  :  7168
 total energy-change (2. order) :-0.2162621E+02  (-0.1155241E+03)
 number of electron     672.0000000 magnetization      48.0000000
 augmentation part      672.0000000 magnetization      48.0000000

 Free energy of the ion-electron system (eV)
  ---------------------------------------------------
  alpha Z        PSCENC =      2652.81237852
  Ewald energy   TEWEN  =    -41921.68311576
  -Hartree energ DENC   =    -25697.17834550
  -exchange      EXHF   =         0.00000000
  -V(xc)+E(xc)   XCENC  =      3605.71814325
  PAW double counting   =     55594.23204139   -59034.67079123
  entropy T*S    EENTRO =        -0.00000000
  eigenvalues    EBANDS =    -10289.10207312
  atomic energy  EATOM  =     73862.19814772
  Solvation  Ediel_sol  =         0.00000000
  ---------------------------------------------------
  free energy    TOTEN  =     -1227.67361472 eV

  energy without entropy =    -1227.67361472  energy(sigma->0) =    -1227.67361472


--------------------------------------------------------------------------------------------------------




--------------------------------------- Iteration      1(   7)  ---------------------------------------


    EDDIAG:  cpu time    3.7390: real time    3.7439
  RMM-DIIS:  cpu time    6.6233: real time    6.6264
    ORTHCH:  cpu time    1.1586: real time    1.1608
       DOS:  cpu time    0.0013: real time    0.0013
    --------------------------------------------
      LOOP:  cpu time   11.5222: real time   11.5323

 eigenvalue-minimisations  :  7168
 total energy-change (2. order) :-0.6508637E+01  (-0.7632748E+02)
 number of electron     672.0000000 magnetization      48.0000000
 augmentation part      672.0000000 magnetization      48.0000000

 Free energy of the ion-electron system (eV)
  ---------------------------------------------------
  alpha Z        PSCENC =      2652.81237852
  Ewald energy   TEWEN  =    -41921.68311576
  -Hartree energ DENC   =    -25697.17834550
  -exchange      EXHF   =         0.00000000
  -V(xc)+E(xc)   XCENC  =      3605.71814325
  PAW double counting   =     55594.23204139   -59034.67079123
  entropy T*S    EENTRO =        -0.00000000
  eigenvalues    EBANDS =    -10295.61070988
  atomic energy  EATOM  =     73862.19814772
  Solvation  Ediel_sol  =         0.00000000
  ---------------------------------------------------
  free energy    TOTEN  =     -1234.18225148 eV

  energy without entropy =    -1234.18225148  energy(sigma->0) =    -1234.18225148


--------------------------------------------------------------------------------------------------------




--------------------------------------- Iteration      1(   8)  ---------------------------------------


    EDDIAG:  cpu time    3.7527: real time    3.7678
  RMM-DIIS:  cpu time    6.6004: real time    6.6050
    ORTHCH:  cpu time    1.1493: real time    1.1517
       DOS:  cpu time    0.0010: real time    0.0010
    --------------------------------------------
      LOOP:  cpu time   11.5034: real time   11.5254

 eigenvalue-minimisations  :  7168
 total energy-change (2. order) : 0.4622962E+01  (-0.5294159E+02)
 number of electron     672.0000000 magnetization      48.0000000
 augmentation part      672.0000000 magnetization      48.0000000

 Free energy of the ion-electron system (eV)
  ---------------------------------------------------
  alpha Z        PSCENC =      2652.81237852
  Ewald energy   TEWEN  =    -41921.68311576
  -Hartree energ DENC   =    -25697.17834550
  -exchange      EXHF   =         0.00000000
  -V(xc)+E(xc)   XCENC  =      3605.71814325
  PAW double counting   =     55594.23204139   -59034.67079123
  entropy T*S    EENTRO =        -0.00000000
  eigenvalues    EBANDS =    -10290.98774808
  atomic energy  EATOM  =     73862.19814772
  Solvation  Ediel_sol  =         0.00000000
  ---------------------------------------------------
  free energy    TOTEN  =     -1229.55928968 eV

  energy without entropy =    -1229.55928968  energy(sigma->0) =    -1229.55928968


--------------------------------------------------------------------------------------------------------




--------------------------------------- Iteration      1(   9)  ---------------------------------------


    EDDIAG:  cpu time    3.7175: real time    3.7207
  RMM-DIIS:  cpu time   13.7853: real time   13.7945
    ORTHCH:  cpu time    1.1559: real time    1.1581
       DOS:  cpu time    0.0010: real time    0.0010
    --------------------------------------------
      LOOP:  cpu time   18.6597: real time   18.6743

 eigenvalue-minimisations  : 20225
 total energy-change (2. order) : 0.1819405E+02  (-0.2372446E+02)
 number of electron     672.0000000 magnetization      48.0000000
 augmentation part      672.0000000 magnetization      48.0000000

 Free energy of the ion-electron system (eV)
  ---------------------------------------------------
  alpha Z        PSCENC =      2652.81237852
  Ewald energy   TEWEN  =    -41921.68311576
  -Hartree energ DENC   =    -25697.17834550
  -exchange      EXHF   =         0.00000000
  -V(xc)+E(xc)   XCENC  =      3605.71814325
  PAW double counting   =     55594.23204139   -59034.67079123
  entropy T*S    EENTRO =        -0.00000000
  eigenvalues    EBANDS =    -10272.79369469
  atomic energy  EATOM  =     73862.19814772
  Solvation  Ediel_sol  =         0.00000000
  ---------------------------------------------------
  free energy    TOTEN  =     -1211.36523629 eV

  energy without entropy =    -1211.36523629  energy(sigma->0) =    -1211.36523629


--------------------------------------------------------------------------------------------------------




--------------------------------------- Iteration      1(  10)  ---------------------------------------


    EDDIAG:  cpu time    3.7234: real time    3.7436
  RMM-DIIS:  cpu time   15.7249: real time   15.7332
    ORTHCH:  cpu time    1.1541: real time    1.1564
       DOS:  cpu time    0.0011: real time    0.0011
    --------------------------------------------
      LOOP:  cpu time   20.6035: real time   20.6343

 eigenvalue-minimisations  : 20192
 total energy-change (2. order) :-0.3067618E+01  (-0.1030902E+01)
 number of electron     672.0000000 magnetization      48.0000000
 augmentation part      672.0000000 magnetization      48.0000000

 Free energy of the ion-electron system (eV)
  ---------------------------------------------------
  alpha Z        PSCENC =      2652.81237852
  Ewald energy   TEWEN  =    -41921.68311576
  -Hartree energ DENC   =    -25697.17834550
  -exchange      EXHF   =         0.00000000
  -V(xc)+E(xc)   XCENC  =      3605.71814325
  PAW double counting   =     55594.23204139   -59034.67079123
  entropy T*S    EENTRO =        -0.00000005
  eigenvalues    EBANDS =    -10275.86131305
  atomic energy  EATOM  =     73862.19814772
  Solvation  Ediel_sol  =         0.00000000
  ---------------------------------------------------
  free energy    TOTEN  =     -1214.43285470 eV

  energy without entropy =    -1214.43285465  energy(sigma->0) =    -1214.43285468


--------------------------------------------------------------------------------------------------------




--------------------------------------- Iteration      1(  11)  ---------------------------------------


    EDDIAG:  cpu time    3.7269: real time    3.7310
  RMM-DIIS:  cpu time   15.2210: real time   15.2391
    ORTHCH:  cpu time    1.1518: real time    1.1544
       DOS:  cpu time    0.0011: real time    0.0011
    --------------------------------------------
      LOOP:  cpu time   20.1009: real time   20.1256

 eigenvalue-minimisations  : 21687
 total energy-change (2. order) : 0.1073668E+00  (-0.9524855E-01)
 number of electron     672.0000000 magnetization      48.0000000
 augmentation part      672.0000000 magnetization      48.0000000

 Free energy of the ion-electron system (eV)
  ---------------------------------------------------
  alpha Z        PSCENC =      2652.81237852
  Ewald energy   TEWEN  =    -41921.68311576
  -Hartree energ DENC   =    -25697.17834550
  -exchange      EXHF   =         0.00000000
  -V(xc)+E(xc)   XCENC  =      3605.71814325
  PAW double counting   =     55594.23204139   -59034.67079123
  entropy T*S    EENTRO =        -0.00000004
  eigenvalues    EBANDS =    -10275.75394625
  atomic energy  EATOM  =     73862.19814772
  Solvation  Ediel_sol  =         0.00000000
  ---------------------------------------------------
  free energy    TOTEN  =     -1214.32548789 eV

  energy without entropy =    -1214.32548785  energy(sigma->0) =    -1214.32548787


--------------------------------------------------------------------------------------------------------




--------------------------------------- Iteration      1(  12)  ---------------------------------------


    EDDIAG:  cpu time    3.7172: real time    3.7212
  RMM-DIIS:  cpu time   16.0885: real time   16.0995
    ORTHCH:  cpu time    1.1526: real time    1.2250
       DOS:  cpu time    0.0013: real time    0.0013
    CHARGE:  cpu time    1.3443: real time    1.3450
    MIXING:  cpu time    0.0013: real time    0.0015
    --------------------------------------------
      LOOP:  cpu time   22.3052: real time   22.3935

 eigenvalue-minimisations  : 22809
 total energy-change (2. order) : 0.6376807E-02  (-0.6982455E-02)
 number of electron     671.9999508 magnetization      47.9999977
 augmentation part      239.0164265 magnetization      29.0251568

 Broyden mixing:
  rms(total) = 0.12498E+02    rms(broyden)= 0.12489E+02
  rms(prec ) = 0.14365E+02
  weight for this iteration     100.00

 Free energy of the ion-electron system (eV)
  ---------------------------------------------------
  alpha Z        PSCENC =      2652.81237852
  Ewald energy   TEWEN  =    -41921.68311576
  -Hartree energ DENC   =    -25697.17834550
  -exchange      EXHF   =         0.00000000
  -V(xc)+E(xc)   XCENC  =      3605.71814325
  PAW double counting   =     55594.23204139   -59034.67079123
  entropy T*S    EENTRO =        -0.00000004
  eigenvalues    EBANDS =    -10275.74756945
  atomic energy  EATOM  =     73862.19814772
  Solvation  Ediel_sol  =         0.00000000
  ---------------------------------------------------
  free energy    TOTEN  =     -1214.31911109 eV

  energy without entropy =    -1214.31911105  energy(sigma->0) =    -1214.31911107


--------------------------------------------------------------------------------------------------------




--------------------------------------- Iteration      1(  13)  ---------------------------------------


    POTLOK:  cpu time    0.2019: real time    0.2028
    SETDIJ:  cpu time    3.2674: real time    3.2681
    EDDIAG:  cpu time    3.7263: real time    3.7311
  RMM-DIIS:  cpu time   13.0746: real time   13.0806
    ORTHCH:  cpu time    1.1660: real time    1.1683
       DOS:  cpu time    0.0012: real time    0.0012
    CHARGE:  cpu time    1.3410: real time    1.3418
    MIXING:  cpu time    0.0010: real time    0.0011
    --------------------------------------------
      LOOP:  cpu time   22.7794: real time   22.7949

 eigenvalue-minimisations  : 17323
 total energy-change (2. order) : 0.2243667E+03  (-0.1383068E+03)
 number of electron     671.9999615 magnetization      47.9999970
 augmentation part      269.2515170 magnetization      26.3792570

 Broyden mixing:
  rms(total) = 0.14010E+02    rms(broyden)= 0.14007E+02
  rms(prec ) = 0.15772E+02
  weight for this iteration     100.00

 eigenvalues of (default mixing * dielectric matrix)
  average eigenvalue GAMMA=   0.3166
  0.3166

 Free energy of the ion-electron system (eV)
  ---------------------------------------------------
  alpha Z        PSCENC =      2652.81237852
  Ewald energy   TEWEN  =    -41921.68311576
  -Hartree energ DENC   =    -25023.08246447
  -exchange      EXHF   =         0.00000000
  -V(xc)+E(xc)   XCENC  =      3695.81931424
  PAW double counting   =     59842.48367792   -63267.33000226
  entropy T*S    EENTRO =        -0.08589007
  eigenvalues    EBANDS =    -10831.08446593
  atomic energy  EATOM  =     73862.19814772
  Solvation  Ediel_sol  =         0.00000000
  ---------------------------------------------------
  free energy    TOTEN  =      -989.95242009 eV

  energy without entropy =     -989.86653002  energy(sigma->0) =     -989.90947506


--------------------------------------------------------------------------------------------------------




--------------------------------------- Iteration      1(  14)  ---------------------------------------


    POTLOK:  cpu time    0.2116: real time    0.2124
    SETDIJ:  cpu time    3.2599: real time    3.2608
    EDDIAG:  cpu time    3.7236: real time    3.7484
  RMM-DIIS:  cpu time   13.6932: real time   13.7007
    ORTHCH:  cpu time    1.1883: real time    1.1907
       DOS:  cpu time    0.0010: real time    0.0010
    CHARGE:  cpu time    1.3472: real time    1.3478
    MIXING:  cpu time    0.0008: real time    0.0008
    --------------------------------------------
      LOOP:  cpu time   23.4256: real time   23.4627

 eigenvalue-minimisations  : 17747
 total energy-change (2. order) : 0.7506861E+02  (-0.1885018E+02)
 number of electron     671.9999549 magnetization      47.9999952
 augmentation part      246.5718783 magnetization      32.1930947

 Broyden mixing:
  rms(total) = 0.52204E+01    rms(broyden)= 0.52159E+01
  rms(prec ) = 0.56467E+01
  weight for this iteration     100.00

 eigenvalues of (default mixing * dielectric matrix)
  average eigenvalue GAMMA=   0.7268
  1.0956  0.3581

 Free energy of the ion-electron system (eV)
  ---------------------------------------------------
  alpha Z        PSCENC =      2652.81237852
  Ewald energy   TEWEN  =    -41921.68311576
  -Hartree energ DENC   =    -25635.97298768
  -exchange      EXHF   =         0.00000000
  -V(xc)+E(xc)   XCENC  =      3673.25287529
  PAW double counting   =     63245.20581203   -66727.17706028
  entropy T*S    EENTRO =        -0.00000000
  eigenvalues    EBANDS =    -10063.51985589
  atomic energy  EATOM  =     73862.19814772
  Solvation  Ediel_sol  =         0.00000000
  ---------------------------------------------------
  free energy    TOTEN  =      -914.88380604 eV

  energy without entropy =     -914.88380604  energy(sigma->0) =     -914.88380604


--------------------------------------------------------------------------------------------------------




--------------------------------------- Iteration      1(  15)  ---------------------------------------


    POTLOK:  cpu time    0.2007: real time    0.2021
    SETDIJ:  cpu time    3.2607: real time    3.2626
    EDDIAG:  cpu time    3.7350: real time    3.7382
  RMM-DIIS:  cpu time   13.5988: real time   13.6857
    ORTHCH:  cpu time    1.1773: real time    1.1796
       DOS:  cpu time    0.0010: real time    0.0010
    CHARGE:  cpu time    1.3705: real time    1.3713
    MIXING:  cpu time    0.0008: real time    0.0008
    --------------------------------------------
      LOOP:  cpu time   23.3448: real time   23.4412

 eigenvalue-minimisations  : 18393
 total energy-change (2. order) : 0.1375848E+02  (-0.2174695E+01)
 number of electron     671.9999564 magnetization      47.9999942
 augmentation part      249.7059971 magnetization      33.8337781

 Broyden mixing:
  rms(total) = 0.21420E+01    rms(broyden)= 0.21416E+01
  rms(prec ) = 0.22204E+01
  weight for this iteration     100.00

 eigenvalues of (default mixing * dielectric matrix)
  average eigenvalue GAMMA=   0.9421
  1.6912  0.3822  0.7529

 Free energy of the ion-electron system (eV)
  ---------------------------------------------------
  alpha Z        PSCENC =      2652.81237852
  Ewald energy   TEWEN  =    -41921.68311576
  -Hartree energ DENC   =    -25552.63954832
  -exchange      EXHF   =         0.00000000
  -V(xc)+E(xc)   XCENC  =      3706.13631821
  PAW double counting   =     67310.37857854   -70832.62852865
  entropy T*S    EENTRO =        -0.00000000
  eigenvalues    EBANDS =    -10125.69956101
  atomic energy  EATOM  =     73862.19814772
  Solvation  Ediel_sol  =         0.00000000
  ---------------------------------------------------
  free energy    TOTEN  =      -901.12533074 eV

  energy without entropy =     -901.12533074  energy(sigma->0) =     -901.12533074


--------------------------------------------------------------------------------------------------------




--------------------------------------- Iteration      1(  16)  ---------------------------------------


    POTLOK:  cpu time    0.2094: real time    0.2094
    SETDIJ:  cpu time    3.2935: real time    3.2943
    EDDIAG:  cpu time    3.8016: real time    3.8043
  RMM-DIIS:  cpu time   13.1600: real time   13.1783
    ORTHCH:  cpu time    1.1545: real time    1.1572
       DOS:  cpu time    0.0010: real time    0.0010
    CHARGE:  cpu time    1.3514: real time    1.3519
    MIXING:  cpu time    0.0011: real time    0.0011
    --------------------------------------------
      LOOP:  cpu time   22.9724: real time   22.9974

 eigenvalue-minimisations  : 17572
 total energy-change (2. order) :-0.1530310E+01  (-0.7316047E+00)
 number of electron     671.9999571 magnetization      47.9999940
 augmentation part      251.1776756 magnetization      33.9356767

 Broyden mixing:
  rms(total) = 0.14418E+01    rms(broyden)= 0.14413E+01
  rms(prec ) = 0.15306E+01
  weight for this iteration     100.00

 eigenvalues of (default mixing * dielectric matrix)
  average eigenvalue GAMMA=   0.9675
  2.0591  0.9005  0.3890  0.5216

 Free energy of the ion-electron system (eV)
  ---------------------------------------------------
  alpha Z        PSCENC =      2652.81237852
  Ewald energy   TEWEN  =    -41921.68311576
  -Hartree energ DENC   =    -25502.65142940
  -exchange      EXHF   =         0.00000000
  -V(xc)+E(xc)   XCENC  =      3707.14490281
  PAW double counting   =     70185.16810748   -73736.77992575
  entropy T*S    EENTRO =        -0.00000000
  eigenvalues    EBANDS =    -10148.86470600
  atomic energy  EATOM  =     73862.19814772
  Solvation  Ediel_sol  =         0.00000000
  ---------------------------------------------------
  free energy    TOTEN  =      -902.65564036 eV

  energy without entropy =     -902.65564036  energy(sigma->0) =     -902.65564036


--------------------------------------------------------------------------------------------------------




--------------------------------------- Iteration      1(  17)  ---------------------------------------


    POTLOK:  cpu time    0.2110: real time    0.2122
    SETDIJ:  cpu time    3.2960: real time    3.2972
    EDDIAG:  cpu time    3.7340: real time    3.7370
  RMM-DIIS:  cpu time   13.7024: real time   13.7098
    ORTHCH:  cpu time    1.1661: real time    1.1685
       DOS:  cpu time    0.0010: real time    0.0010
    CHARGE:  cpu time    1.3489: real time    1.3493
    MIXING:  cpu time    0.0015: real time    0.0015
    --------------------------------------------
      LOOP:  cpu time   23.4610: real time   23.4765

 eigenvalue-minimisations  : 18536
 total energy-change (2. order) : 0.1510231E+00  (-0.7405133E-01)
 number of electron     671.9999571 magnetization      47.9999939
 augmentation part      251.0995811 magnetization      33.9346722

 Broyden mixing:
  rms(total) = 0.77320E+00    rms(broyden)= 0.77308E+00
  rms(prec ) = 0.87207E+00
  weight for this iteration     100.00

 eigenvalues of (default mixing * dielectric matrix)
  average eigenvalue GAMMA=   0.9956
  2.2223  1.1261  0.3793  0.6933  0.5572

 Free energy of the ion-electron system (eV)
  ---------------------------------------------------
  alpha Z        PSCENC =      2652.81237852
  Ewald energy   TEWEN  =    -41921.68311576
  -Hartree energ DENC   =    -25494.66321329
  -exchange      EXHF   =         0.00000000
  -V(xc)+E(xc)   XCENC  =      3704.42191771
  PAW double counting   =     71045.83225910   -74605.90615131
  entropy T*S    EENTRO =        -0.00000000
  eigenvalues    EBANDS =    -10145.51683997
  atomic energy  EATOM  =     73862.19814772
  Solvation  Ediel_sol  =         0.00000000
  ---------------------------------------------------
  free energy    TOTEN  =      -902.50461726 eV

  energy without entropy =     -902.50461726  energy(sigma->0) =     -902.50461726


--------------------------------------------------------------------------------------------------------




--------------------------------------- Iteration      1(  18)  ---------------------------------------


    POTLOK:  cpu time    0.2048: real time    0.2058
    SETDIJ:  cpu time    3.2273: real time    3.2861
    EDDIAG:  cpu time    3.7613: real time    3.7637
  RMM-DIIS:  cpu time   13.4355: real time   13.4421
    ORTHCH:  cpu time    1.1653: real time    1.1678
       DOS:  cpu time    0.0011: real time    0.0011
    CHARGE:  cpu time    1.3490: real time    1.3504
    MIXING:  cpu time    0.0010: real time    0.0010
    --------------------------------------------
      LOOP:  cpu time   23.1452: real time   23.2179

 eigenvalue-minimisations  : 17507
 total energy-change (2. order) : 0.4002864E+00  (-0.7308838E-01)
 number of electron     671.9999567 magnetization      47.9999939
 augmentation part      250.5906897 magnetization      33.8964751

 Broyden mixing:
  rms(total) = 0.27874E+00    rms(broyden)= 0.27845E+00
  rms(prec ) = 0.29257E+00
  weight for this iteration     100.00

 eigenvalues of (default mixing * dielectric matrix)
  average eigenvalue GAMMA=   1.0208
  2.4687  1.3623  0.8536  0.3808  0.5838  0.4757

[...]
   4      -0.925    -0.922     1.847    -0.001     0.053     0.091
   5      -0.837    -0.711     1.547     0.096    -0.479     0.269
   6      -0.766    -0.882     1.648    -0.026    -0.068    -0.430
   7      -0.960    -0.893     1.853     0.080     0.045     0.027
   8      -0.623    -0.917     1.540    -0.027     0.030     0.484
   9      -0.647    -0.800     1.447     0.003     0.002    -0.491
  10      -0.678    -0.552     1.230    -0.099     0.279     0.168
  11      -0.908    -0.956     1.864    -0.004     0.077     0.066
  12      -0.774    -0.568     1.342    -0.089    -0.418    -0.128
  13      -0.687    -0.895     1.583     0.030     0.010     0.508
  14      -0.846    -0.775     1.621    -0.094    -0.407    -0.188
  15      -0.890    -0.930     1.820    -0.056     0.091    -0.050
  16      -0.749    -0.685     1.434     0.122    -0.387     0.259
  17       1.785     1.191    -2.976    -0.025    -0.236     0.049
  18       1.346     1.549    -2.895     0.077    -0.007    -0.096
  19       1.495     1.410    -2.905    -0.024     0.104    -0.027
  20       1.201     1.705    -2.906     0.031    -0.061     0.001
  21       1.347     1.386    -2.733     0.204    -0.073     0.030
  22       1.445     1.505    -2.949     0.090     0.027    -0.033
  23       1.472     1.562    -3.034     0.252     0.104    -0.029
  24       1.395     1.481    -2.876    -0.084     0.022    -0.018
  25       0.632     0.166    -0.798    -0.708     1.762     1.140
  26      -1.688    -0.823     2.511     0.606     0.231    -0.201
  27      -0.462    -0.207     0.669    -0.537     0.525    -0.376
  28      -0.658    -1.250     1.908    -0.334    -0.311    -0.255
  29      -0.874    -0.438     1.312     0.631     0.112    -0.552
  30      -2.516     0.523     1.993    -0.355    -0.104    -0.455
  31       0.312     1.209    -1.521    -0.035     0.445    -0.273
  32       0.596     0.882    -1.478    -0.606    -0.109    -0.964
  33       0.263    -1.005     0.742    -0.761     0.479    -0.656
  34       0.867     1.052    -1.919    -1.300    -0.078     0.134
  35      -0.169     0.277    -0.108    -0.691     0.455     0.093
  36       0.286    -1.211     0.924     0.516    -0.320     0.303
  37      -1.461    -0.470     1.931    -0.891    -1.566    -0.296
  38      -1.562     0.621     0.941    -2.215    -1.616     0.743
  39       0.191    -1.286     1.095    -0.675     0.583    -0.503
  40      -0.222     0.773    -0.551    -1.024     0.915    -0.120
  41      -4.304     2.699     1.605    -3.687     1.867    -4.175
  42      -3.381    -0.183     3.565     5.617     3.867     3.788
  43       3.708    -6.175     2.467    -0.894    -4.218     0.075
  44      -2.757     2.076     0.681     4.685    -3.534    -4.503
  45      -2.470     2.268     0.202    -5.121    -1.331     3.826
  46       6.510    -6.382    -0.128     0.194     3.831     1.613
  47      -1.534     3.918    -2.384    -5.545     2.167    -1.404
  48       5.123    -5.411     0.288    -2.052    -4.982    -0.002
  49      -1.717    -0.262     1.979     4.924     3.783     4.255
  50       5.334    -5.886     0.552     1.112     4.207     0.972
  51      -4.210     2.880     1.330    -4.312    -3.934     4.344
  52      -2.985     1.404     1.581     4.673    -3.684    -3.239
  53      -3.904     3.662     0.242    -3.098     3.323    -3.075
  54      -3.348     1.696     1.652     5.698     1.745     5.641
  55       4.865    -6.397     1.532     1.232    -4.062    -0.837
  56      -2.980     2.051     0.929     3.902    -0.281    -4.562
  57      -3.870     2.452     1.418    -5.090    -1.782     5.634
  58       6.509    -6.011    -0.498     0.285     4.968    -0.015
  59      -3.173     3.286    -0.113    -5.115     0.779    -3.650
  60       1.751    -5.444     3.693     0.632    -6.354    -1.437
  61      -4.884     1.814     3.070     3.089     3.880     4.569
  62       4.320    -4.533     0.213     1.112     4.222    -1.392
  63      -4.148     3.088     1.061    -6.045    -1.956     4.784
  64      -3.347     2.397     0.950     4.696    -2.424    -3.376
  65      -2.168     2.376    -0.208    -6.054     3.667    -3.764
  66      -2.386     3.101    -0.715     5.019     1.966     1.886
  67       5.032    -6.180     1.147     0.237    -5.650     1.108
  68      -2.979     0.303     2.677     4.514    -3.101    -4.953
  69      -3.183     1.993     1.190    -4.338    -2.453     4.802
  70       5.906    -5.638    -0.268    -0.247     4.420     0.105
  71      -3.183     2.852     0.330    -7.370     4.463    -4.672
  72       6.694    -5.704    -0.989    -1.224    -3.051     0.062
  73      -1.979     2.360    -0.381     4.100     0.483     2.656
  74       4.501    -5.441     0.940    -0.883     3.979     0.463
  75      -3.613     2.916     0.696    -4.584    -2.505     3.914
  76      -3.923     1.891     2.032     5.557    -2.513    -4.551
  77      -2.100     1.009     1.091    -4.557     3.644    -4.504
  78      -1.675     2.227    -0.552     5.302    -0.687     4.035
  79       4.750    -5.937     1.187    -0.170    -5.194     0.151
  80      -2.408     2.556    -0.148     5.065    -1.475    -5.400
  81      -1.489     2.427    -0.938    -5.766    -0.486     4.290
  82       7.238    -5.242    -1.996     0.391     3.632    -1.364
  83      -3.886     3.107     0.779    -5.610     1.951    -4.132
  84       4.465    -5.085     0.621    -0.549    -3.365    -2.629
  85      -4.105     2.260     1.846     3.401     1.747     4.367
  86       4.455    -6.028     1.573     1.177     5.032    -0.467
  87      -2.773     2.004     0.769    -4.369    -2.264     4.414
  88      -4.502     4.426     0.075     4.696    -1.584    -5.169
 ---------------------------------------------------------------------


 Total hyperfine coupling parameters after diagonalization (MHz)
 (convention: |A_zz| > |A_xx| > |A_yy|)
 ----------------------------------------------------------------------
  ion      A_xx      A_yy      A_zz     asymmetry (A_yy - A_xx)/ A_zz 
 ----------------------------------------------------------------------
   1       1.773     1.489     4.007      -0.071
   2       1.393     0.979     3.419      -0.121
   3       1.242     0.781     3.211      -0.144
   4       0.828     0.822     3.602      -0.002
   5       1.776     1.430     4.102      -0.085
   6       2.041     1.841     4.522      -0.044
   7      -0.362    -0.190     2.505       0.069
   8       2.323     1.932     4.577      -0.085
   9       1.574     1.318     3.770      -0.068
  10       1.228     0.941     3.008      -0.096
  11       0.424     0.376     3.202      -0.015
  12       1.573     1.214     3.535      -0.101
  13       1.730     1.417     4.098      -0.076
  14       2.268     1.993     4.678      -0.059
  15       0.660     0.546     3.338      -0.034
  16       2.390     2.046     4.507      -0.076
  17      14.940    10.762    15.548      -0.269
  18      13.351     9.134    13.608      -0.310
  19      14.551    10.240    14.651      -0.294
  20      14.717    10.610    15.225      -0.270
  21      13.976    10.079    14.386      -0.271
  22      14.394    10.063    14.582      -0.297
  23      15.238    10.937    15.748      -0.273
  24      12.831     8.611    13.020      -0.324
  25      96.926    93.489    97.938      -0.035
  26      96.622    95.116    99.667      -0.015
  27      99.260    98.550   100.577      -0.007
  28      99.033    98.114   101.513      -0.009
  29      94.013    92.709    95.572      -0.014
  30      99.420    96.418   101.102      -0.030
  31      95.226    93.176    96.065      -0.021
  32      96.839    94.654    98.053      -0.022
  33      99.231    97.777   100.643      -0.014
  34      97.556    95.974   100.167      -0.016
  35      94.491    93.511    95.240      -0.010
  36      98.228    96.419    98.915      -0.018
  37      95.244    92.777    97.827      -0.025
  38      96.945    93.649    99.948      -0.033
  39      97.882    96.314    99.471      -0.016
  40      94.404    93.026    96.104      -0.014
  41       4.076     0.009    13.604      -0.299
  42       6.553     0.350    17.234      -0.360
  43       6.433     1.286    14.945      -0.344
  44       3.292     0.686    15.315      -0.170
  45       4.939     0.730    14.303      -0.294
  46       4.866    -0.462    14.665      -0.363
  47       6.990     4.008    17.359      -0.172
  48       6.096     2.560    17.022      -0.208
  49       3.781     0.609    15.342      -0.207
  50       5.769     1.589    15.580      -0.268
  51       5.219     0.735    16.594      -0.270
  52       6.189     1.568    15.784      -0.293
  53       3.871    -0.816    12.338      -0.380
  54       8.712     3.372    20.388      -0.262
  55       5.263    -0.099    14.201      -0.378
  56       6.310     1.716    14.665      -0.313
  57       5.015     0.602    17.035      -0.259
  58       4.718     1.761    16.872      -0.175
  59       6.013     1.314    15.284      -0.307
  60       4.111     2.013    17.017      -0.123
  61       5.924     1.404    16.928      -0.267
  62       3.392    -0.728    11.780      -0.350
  63       6.802     1.125    18.364      -0.309
  64       6.214     1.777    15.397      -0.288
  65       6.771     3.076    18.999      -0.194
  66       2.808    -1.193    11.275      -0.355
  67       6.619     2.713    18.283      -0.214
  68       4.002     0.608    15.688      -0.216
  69       1.507    -1.361    12.754      -0.225
  70       4.530     1.434    15.301      -0.202
  71       7.773     2.580    22.368      -0.232
  72       5.257     1.441    15.139      -0.252
  73       3.585     0.052    10.614      -0.333
  74       5.065     0.867    13.614      -0.308
  75       3.429    -0.445    13.725      -0.282
  76       5.772     0.268    16.645      -0.331
  77       2.278     0.160    14.240      -0.149
  78       6.678     0.132    14.109      -0.464
  79       6.366     2.947    17.351      -0.197
  80       5.924     2.343    17.545      -0.204
  81       6.810     1.807    16.571      -0.302
  82       5.384     1.923    16.398      -0.211
  83       7.204     1.986    17.812      -0.293
  84       6.002    -0.351    12.553      -0.506
  85       3.851     0.268    13.438      -0.267
  86       6.734     2.329    16.950      -0.260
  87       4.146     1.360    14.740      -0.189
  88       6.085     2.409    18.512      -0.199
 ---------------------------------------------------------------------



--------------------------------------------------------------------------------------------------------


 stress matrix after NEB project (eV)
    -45.79464      1.45252     -6.12982
      1.46192    -48.00719      1.80352
     -6.10308      1.79240    -61.93900
  FORCES: max atom, RMS     2.632274    1.087094
  FORCE total and by dimension   10.197842    2.048968
  Stress total and by dimension   91.234937   61.938996
     LOOP+:  cpu time  565.8317: real time  566.9717
    4ORBIT:  cpu time    0.0000: real time    0.0000
 


 total charge     
 
# of ion       s       p       d       tot
------------------------------------------
    1        0.052   5.996   0.000   6.047
    2        0.048   5.989   0.000   6.037
    3        0.051   5.994   0.000   6.045
    4        0.050   5.995   0.000   6.045
    5        0.050   5.992   0.000   6.042
    6        0.050   5.991   0.000   6.041
    7        0.052   5.996   0.000   6.048
    8        0.052   5.994   0.000   6.046
    9        0.052   5.993   0.000   6.045
   10        0.046   5.989   0.000   6.035
   11        0.049   5.993   0.000   6.041
   12        0.053   5.996   0.000   6.050
   13        0.050   5.992   0.000   6.042
   14        0.053   5.995   0.000   6.048
   15        0.048   5.991   0.000   6.039
   16        0.053   5.994   0.000   6.046
   17        0.155   6.139   0.093   6.386
   18        0.148   6.127   0.084   6.359
   19        0.151   6.131   0.086   6.368
   20        0.146   6.123   0.081   6.350
   21        0.143   6.115   0.073   6.332
   22        0.150   6.129   0.085   6.364
   23        0.154   6.135   0.089   6.377
   24        0.149   6.130   0.085   6.365
   25        0.376   6.459   4.841  11.676
   26        0.385   6.475   4.845  11.705
   27        0.364   6.432   4.802  11.598
   28        0.361   6.424   4.795  11.580
   29        0.395   6.495   4.871  11.761
   30        0.360   6.422   4.793  11.575
   31        0.369   6.440   4.819  11.627
   32        0.370   6.444   4.821  11.634
   33        0.385   6.476   4.862  11.722
   34        0.369   6.443   4.817  11.628
   35        0.377   6.460   4.836  11.673
   36        0.374   6.453   4.824  11.652
   37        0.382   6.468   4.842  11.692
   38        0.373   6.448   4.824  11.645
   39        0.382   6.467   4.850  11.700
   40        0.371   6.446   4.822  11.639
   41        1.596   3.521   0.000   5.117
   42        1.600   3.512   0.000   5.113
   43        1.598   3.518   0.000   5.116
   44        1.598   3.477   0.000   5.075
   45        1.600   3.525   0.000   5.126
   46        1.597   3.486   0.000   5.082
   47        1.600   3.472   0.000   5.072
   48        1.600   3.523   0.000   5.123
   49        1.600   3.525   0.000   5.124
   50        1.597   3.499   0.000   5.097
   51        1.602   3.479   0.000   5.081
   52        1.599   3.507   0.000   5.106
   53        1.597   3.515   0.000   5.112
   54        1.604   3.521   0.000   5.125
   55        1.597   3.503   0.000   5.101
   56        1.597   3.500   0.000   5.097
   57        1.601   3.508   0.000   5.109
   58        1.599   3.480   0.000   5.079
   59        1.596   3.513   0.000   5.109
   60        1.603   3.522   0.000   5.125
   61        1.598   3.488   0.000   5.087
   62        1.596   3.506   0.000   5.102
   63        1.602   3.514   0.000   5.116
   64        1.599   3.527   0.000   5.126
   65        1.601   3.519   0.000   5.120
   66        1.596   3.468   0.000   5.064
   67        1.601   3.496   0.000   5.098
   68        1.601   3.502   0.000   5.104
   69        1.598   3.502   0.000   5.100
   70        1.598   3.510   0.000   5.108
   71        1.606   3.488   0.000   5.095
   72        1.599   3.500   0.000   5.099
   73        1.597   3.522   0.000   5.119
   74        1.597   3.504   0.000   5.100
   75        1.598   3.502   0.000   5.101
   76        1.599   3.496   0.000   5.095
   77        1.597   3.508   0.000   5.104
   78        1.598   3.493   0.000   5.090
   79        1.600   3.516   0.000   5.116
   80        1.602   3.477   0.000   5.079
   81        1.601   3.490   0.000   5.091
   82        1.599   3.489   0.000   5.088
   83        1.601   3.509   0.000   5.110
   84        1.597   3.504   0.000   5.100
   85        1.600   3.529   0.000   5.129
   86        1.599   3.538   0.000   5.137
   87        1.598   3.489   0.000   5.087
   88        1.601   3.477   0.000   5.078
--------------------------------------------------
tot         84.757 416.339  77.938 579.034
 


 magnetization (x)
 
# of ion       s       p       d       tot
------------------------------------------
    1        0.002   0.000   0.000   0.002
    2        0.001   0.000   0.000   0.002
    3        0.001   0.000   0.000   0.002
    4        0.001   0.001   0.000   0.002
    5        0.002  -0.000   0.000   0.002
    6        0.002   0.000   0.000   0.002
    7        0.000   0.000   0.000   0.001
    8        0.002   0.000   0.000   0.002
    9        0.002  -0.000   0.000   0.002
   10        0.001   0.001   0.000   0.002
   11        0.001   0.001   0.000   0.002
   12        0.001   0.000   0.000   0.002
   13        0.002  -0.000   0.000   0.002
   14        0.002   0.000   0.000   0.002
   15        0.001   0.001   0.000   0.002
   16        0.002   0.000   0.000   0.003
   17        0.008   0.003   0.001   0.012
   18        0.007   0.002   0.001   0.010
   19        0.007   0.002   0.001   0.010
   20        0.008   0.003   0.001   0.011
   21        0.007   0.002   0.001   0.011
   22        0.007   0.003   0.001   0.011
   23        0.008   0.002   0.001   0.012
   24        0.006   0.001   0.001   0.009
   25        0.016   0.030   2.741   2.787
   26        0.016   0.031   2.738   2.785
   27        0.016   0.030   2.789   2.835
   28        0.016   0.030   2.795   2.840
   29        0.015   0.031   2.720   2.766
   30        0.016   0.029   2.804   2.849
   31        0.015   0.028   2.760   2.803
   32        0.015   0.029   2.764   2.809
   33        0.016   0.031   2.733   2.780
   34        0.016   0.031   2.754   2.801
   35        0.014   0.029   2.750   2.794
   36        0.016   0.030   2.759   2.804
   37        0.015   0.030   2.744   2.790
   38        0.015   0.029   2.759   2.803
   39        0.016   0.031   2.740   2.787
   40        0.015   0.029   2.757   2.801
   41        0.002   0.030   0.000   0.032
   42        0.002   0.049   0.000   0.051
   43        0.002   0.034   0.000   0.036
   44        0.002   0.020   0.000   0.022
   45        0.002   0.039   0.000   0.041
   46        0.002   0.020   0.000   0.022
   47        0.003   0.038   0.000   0.041
   48        0.002   0.045   0.000   0.047
   49        0.002   0.034   0.000   0.035
   50        0.002   0.035   0.000   0.037
   51        0.002   0.033   0.000   0.035
   52        0.002   0.031   0.000   0.033
   53        0.001   0.018   0.000   0.019
   54        0.003   0.055   0.000   0.058
   55        0.002   0.029   0.000   0.031
   56        0.002   0.032   0.000   0.034
   57        0.002   0.039   0.000   0.041
   58        0.002   0.026   0.000   0.029
   59        0.002   0.037   0.000   0.039
   60        0.002   0.032   0.000   0.035
   61        0.002   0.035   0.000   0.037
   62        0.001   0.012   0.000   0.014
   63        0.002   0.047   0.000   0.050
   64        0.002   0.038   0.000   0.040
   65        0.002   0.050   0.000   0.052
   66        0.002   0.000   0.000   0.002
   67        0.002   0.047   0.000   0.050
   68        0.002   0.024   0.000   0.026
   69        0.001   0.008   0.000   0.010
   70        0.002   0.031   0.000   0.033
   71        0.003   0.058   0.000   0.061
   72        0.002   0.026   0.000   0.028
   73        0.001   0.015   0.000   0.017
   74        0.002   0.028   0.000   0.029
   75        0.002   0.016   0.000   0.018
   76        0.002   0.037   0.000   0.039
   77        0.002   0.025   0.000   0.027
   78        0.002   0.027   0.000   0.029
   79        0.002   0.044   0.000   0.047
   80        0.002   0.034   0.000   0.036
   81        0.002   0.030   0.000   0.032
   82        0.002   0.033   0.000   0.035
   83        0.002   0.038   0.000   0.040
   84        0.002   0.022   0.000   0.024
   85        0.002   0.023   0.000   0.025
   86        0.002   0.052   0.000   0.055
   87        0.002   0.021   0.000   0.023
   88        0.002   0.043   0.000   0.045
--------------------------------------------------
tot          0.424   2.045  44.116  46.586
 

 total amount of memory used by VASP MPI-rank0    88177. kBytes
=======================================================================

   base      :      30000. kBytes
   nonlr-proj:      13668. kBytes
   fftplans  :        992. kBytes
   grid      :      21513. kBytes
   one-center:       2737. kBytes
   wavefun   :      19267. kBytes
 
  
  
 General timing and accounting informations for this job:
 ========================================================
  
                  Total CPU time used (sec):      585.176
                            User time (sec):      579.802
                          System time (sec):        5.373
                         Elapsed time (sec):      589.061
  
                   Maximum memory used (kb):      182244.
                   Average memory used (kb):           0.
  
                          Minor page faults:       296110
                          Major page faults:            0
                 Voluntary context switches:         4730
