 vasp.5.4.4.18Apr17-6-g9f103f2a35 (build Dec 02 2020 12:53:39) complex          
  
 executed on             LinuxIFC date 2021.08.05  01:19:16
 running on   96 total cores
 distrk:  each k-point on   96 cores,    1 groups
 distr:  one band on NCORES_PER_BAND=   1 cores,   96 groups


--------------------------------------------------------------------------------------------------------


 INCAR:
 POTCAR:    PAW_PBE Na_pv 19Sep2006               
 POTCAR:    PAW_PBE Mg_pv 13Apr2007               
 POTCAR:    PAW_PBE Mn_pv 02Aug2007               
 POTCAR:    PAW_PBE O 08Apr2002                   

 ----------------------------------------------------------------------------- 
|                                                                             |
|           W    W    AA    RRRRR   N    N  II  N    N   GGGG   !!!           |
|           W    W   A  A   R    R  NN   N  II  NN   N  G    G  !!!           |
|           W    W  A    A  R    R  N N  N  II  N N  N  G       !!!           |
|           W WW W  AAAAAA  RRRRR   N  N N  II  N  N N  G  GGG   !            |
|           WW  WW  A    A  R   R   N   NN  II  N   NN  G    G                |
|           W    W  A    A  R    R  N    N  II  N    N   GGGG   !!!           |
|                                                                             |
|      For optimal performance we recommend to set                            |
|        NCORE= 4 - approx SQRT( number of cores)                             |
|      NCORE specifies how many cores store one orbital (NPAR=cpu/NCORE).     |
|      This setting can  greatly improve the performance of VASP for DFT.     |
|      The default,   NCORE=1            might be grossly inefficient         |
|      on modern multi-core architectures or massively parallel machines.     |
|      Do your own testing !!!!                                               |
|      Unfortunately you need to use the default for GW and RPA calculations. |
|      (for HF NCORE is supported but not extensively tested yet)             |
|                                                                             |
 ----------------------------------------------------------------------------- 

 POTCAR:    PAW_PBE Na_pv 19Sep2006               
   VRHFIN =Na: p6s1                                                             
   LEXCH  = PE                                                                  
   EATOM  =   766.0439 eV,   56.3026 Ry                                         
                                                                                
   TITEL  = PAW_PBE Na_pv 19Sep2006                                             
   LULTRA =        F    use ultrasoft PP ?                                      
   IUNSCR =        1    unscreen: 0-lin 1-nonlin 2-no                           
   RPACOR =    1.800    partial core radius                                     
   POMASS =   22.990; ZVAL   =    7.000    mass and valenz                      
   RCORE  =    2.200    outmost cutoff radius                                   
   RWIGS  =    2.200; RWIGS  =    1.164    wigner-seitz radius (au A)           
   ENMAX  =  259.561; ENMIN  =  194.671 eV                                      
   ICORE  =        2    local potential                                         
   LCOR   =        T    correct aug charges                                     
   LPAW   =        T    paw PP                                                  
   EAUG   =  368.056                                                            
   DEXC   =    0.000                                                            
   RMAX   =    2.245    core radius for proj-oper                               
   RAUG   =    1.300    factor for augmentation sphere                          
   RDEP   =    2.259    radius for radial grids                                 
   RDEPT  =    1.738    core radius for aug-charge                              
                                                                                
   Atomic configuration                                                         
    5 entries                                                                   
     n  l   j            E        occ.                                          
     1  0  0.50     -1033.6933   2.0000                                         
     2  0  0.50       -56.7526   2.0000                                         
     2  1  1.50       -28.6721   6.0000                                         
     3  0  0.50        -2.7440   1.0000                                         
     3  2  1.50        -1.3606   0.0000                                         
   Description                                                                  
     l       E           TYP  RCUT    TYP  RCUT                                 
     1    -28.6720912     23  2.000                                             
     1      6.8029130     23  2.000                                             
     0     -2.7439560     23  2.200                                             
     0     34.0145650     23  2.200                                             
     2     -1.3605826     23  2.200                                             
  local pseudopotential read in
  partial core-charges read in
  partial kinetic energy density read in
  atomic valenz-charges read in
  non local Contribution for L=           1  read in
    real space projection operators read in
  non local Contribution for L=           1  read in
    real space projection operators read in
  non local Contribution for L=           0  read in
    real space projection operators read in
  non local Contribution for L=           0  read in
    real space projection operators read in
    PAW grid and wavefunctions read in
 
   number of l-projection  operators is LMAX  =           4
   number of lm-projection operators is LMMAX =           8
 
 POTCAR:    PAW_PBE Mg_pv 13Apr2007               
   VRHFIN =Mg: p6s2                                                             
   LEXCH  = PE                                                                  
   EATOM  =  1056.7344 eV,   77.6678 Ry                                         
                                                                                
   TITEL  = PAW_PBE Mg_pv 13Apr2007                                             
   LULTRA =        F    use ultrasoft PP ?                                      
   IUNSCR =        1    unscreen: 0-lin 1-nonlin 2-no                           
   RPACOR =    1.500    partial core radius                                     
   POMASS =   24.305; ZVAL   =    8.000    mass and valenz                      
   RCORE  =    2.000    outmost cutoff radius                                   
   RWIGS  =    2.000; RWIGS  =    1.058    wigner-seitz radius (au A)           
   ENMAX  =  403.929; ENMIN  =  302.947 eV                                      
   RCLOC  =    1.506    cutoff for local pot                                    
   LCOR   =        T    correct aug charges                                     
   LPAW   =        T    paw PP                                                  
   EAUG   =  758.780                                                            
   DEXC   =    0.000                                                            
   RMAX   =    2.045    core radius for proj-oper                               
   RAUG   =    1.300    factor for augmentation sphere                          
   RDEP   =    2.025    radius for radial grids                                 
   RDEPT  =    1.557    core radius for aug-charge                              
                                                                                
   Atomic configuration                                                         
    5 entries                                                                   
     n  l   j            E        occ.                                          
     1  0  0.50     -1259.6230   2.0000                                         
     2  0  0.50       -79.8442   2.0000                                         
     2  1  1.50       -46.6121   6.0000                                         
     3  0  0.50        -4.7055   2.0000                                         
     3  2  1.50        -1.3606   0.0000                                         
   Description                                                                  
     l       E           TYP  RCUT    TYP  RCUT                                 
     1    -46.6121073     23  1.600                                             
     1      2.7211652     23  1.600                                             
     0     -4.7054661     23  2.000                                             
     0     61.2262170     23  2.000                                             
     2     -1.3605826     23  2.000                                             
  local pseudopotential read in
  partial core-charges read in
  partial kinetic energy density read in
  atomic valenz-charges read in
  non local Contribution for L=           1  read in
    real space projection operators read in
  non local Contribution for L=           1  read in
    real space projection operators read in
  non local Contribution for L=           0  read in
    real space projection operators read in
  non local Contribution for L=           0  read in
    real space projection operators read in
  non local Contribution for L=           2  read in
    real space projection operators read in
    PAW grid and wavefunctions read in
 
   number of l-projection  operators is LMAX  =           5
   number of lm-projection operators is LMMAX =          13
 
 POTCAR:    PAW_PBE Mn_pv 02Aug2007               
   VRHFIN =Mn: 3p4s3d                                                           
   LEXCH  = PE                                                                  
   EATOM  =  2025.2664 eV,  148.8529 Ry                                         
                                                                                
   TITEL  = PAW_PBE Mn_pv 02Aug2007                                             
   LULTRA =        F    use ultrasoft PP ?                                      
   IUNSCR =        1    unscreen: 0-lin 1-nonlin 2-no                           
   RPACOR =    2.080    partial core radius                                     
   POMASS =   54.938; ZVAL   =   13.000    mass and valenz                      
   RCORE  =    2.300    outmost cutoff radius                                   
   RWIGS  =    2.500; RWIGS  =    1.323    wigner-seitz radius (au A)           
   ENMAX  =  269.864; ENMIN  =  202.398 eV                                      
   ICORE  =        3    local potential                                         
   LCOR   =        T    correct aug charges                                     
   LPAW   =        T    paw PP                                                  
   EAUG   =  569.085                                                            
   DEXC   =    0.000                                                            
   RMAX   =    2.343    core radius for proj-oper                               
   RAUG   =    1.300    factor for augmentation sphere                          
   RDEP   =    2.338    radius for radial grids                                 
   RDEPT  =    1.798    core radius for aug-charge                              
                                                                                
   Atomic configuration                                                         
    8 entries                                                                   
     n  l   j            E        occ.                                          
     1  0  0.50     -6424.8287   2.0000                                         
     2  0  0.50      -739.1154   2.0000                                         
     2  1  1.50      -625.3949   6.0000                                         
     3  0  0.50       -81.6100   2.0000                                         
     3  1  1.50       -50.4667   6.0000                                         
     3  2  2.50        -3.3745   6.0000                                         
     4  0  0.50        -4.1331   1.0000                                         
     4  3  2.50        -1.3606   0.0000                                         
   Description                                                                  
     l       E           TYP  RCUT    TYP  RCUT                                 
     1    -50.4666628     23  2.000                                             
     1     -1.3605826     23  2.000                                             
     2     -3.3744729     23  2.300                                             
     2     -4.7350555     23  2.300                                             
     0     -4.1331431     23  2.300                                             
     0      7.6656591     23  2.300                                             
     3      9.5240782     23  2.300                                             
  local pseudopotential read in
  partial core-charges read in
  partial kinetic energy density read in
  atomic valenz-charges read in
  non local Contribution for L=           1  read in
    real space projection operators read in
  non local Contribution for L=           1  read in
    real space projection operators read in
  non local Contribution for L=           2  read in
    real space projection operators read in
  non local Contribution for L=           2  read in
    real space projection operators read in
  non local Contribution for L=           0  read in
    real space projection operators read in
  non local Contribution for L=           0  read in
    real space projection operators read in
    PAW grid and wavefunctions read in
 
   number of l-projection  operators is LMAX  =           6
   number of lm-projection operators is LMMAX =          18
 
 POTCAR:    PAW_PBE O 08Apr2002                   
   VRHFIN =O: s2p4                                                              
   LEXCH  = PE                                                                  
   EATOM  =   432.3788 eV,   31.7789 Ry                                         
                                                                                
   TITEL  = PAW_PBE O 08Apr2002                                                 
   LULTRA =        F    use ultrasoft PP ?                                      
   IUNSCR =        1    unscreen: 0-lin 1-nonlin 2-no                           
   RPACOR =    1.200    partial core radius                                     
   POMASS =   16.000; ZVAL   =    6.000    mass and valenz                      
   RCORE  =    1.520    outmost cutoff radius                                   
   RWIGS  =    1.550; RWIGS  =    0.820    wigner-seitz radius (au A)           
   ENMAX  =  400.000; ENMIN  =  300.000 eV                                      
   ICORE  =        2    local potential                                         
   LCOR   =        T    correct aug charges                                     
   LPAW   =        T    paw PP                                                  
   EAUG   =  605.392                                                            
   DEXC   =    0.000                                                            
   RMAX   =    1.553    core radius for proj-oper                               
   RAUG   =    1.300    factor for augmentation sphere                          
   RDEP   =    1.550    radius for radial grids                                 
   RDEPT  =    1.329    core radius for aug-charge                              
                                                                                
   Atomic configuration                                                         
    4 entries                                                                   
     n  l   j            E        occ.                                          
     1  0  0.50      -514.6923   2.0000                                         
     2  0  0.50       -23.9615   2.0000                                         
     2  1  0.50        -9.0305   4.0000                                         
     3  2  1.50        -9.5241   0.0000                                         
   Description                                                                  
     l       E           TYP  RCUT    TYP  RCUT                                 
     0    -23.9615318     23  1.200                                             
     0     -9.5240782     23  1.200                                             
     1     -9.0304911     23  1.520                                             
     1      8.1634956     23  1.520                                             
     2     -9.5240782      7  1.500                                             
  local pseudopotential read in
  partial core-charges read in
  partial kinetic energy density read in
  kinetic energy density of atom read in
  atomic valenz-charges read in
  non local Contribution for L=           0  read in
    real space projection operators read in
  non local Contribution for L=           0  read in
    real space projection operators read in
  non local Contribution for L=           1  read in
    real space projection operators read in
  non local Contribution for L=           1  read in
    real space projection operators read in
    PAW grid and wavefunctions read in
 
   number of l-projection  operators is LMAX  =           4
   number of lm-projection operators is LMMAX =           8
 
 Optimization of the real space projectors (new method)

 maximal supplied QI-value         = 17.01
 optimisation between [QCUT,QGAM] = [ 10.20, 20.41] = [ 29.16,116.64] Ry 
 Optimized for a Real-space Cutoff    1.30 Angstroem

   l    n(q)    QCUT    max X(q) W(low)/X(q) W(high)/X(q)  e(spline) 
   1      7    10.205     4.940    0.23E-03    0.84E-03    0.11E-06
   1      7    10.205     6.253    0.40E-03    0.13E-02    0.18E-06
   0      8    10.205    37.438    0.23E-03    0.37E-03    0.42E-07
   0      8    10.205     9.606    0.16E-03    0.26E-03    0.31E-07
 Optimization of the real space projectors (new method)

 maximal supplied QI-value         = 18.90
 optimisation between [QCUT,QGAM] = [ 10.20, 20.41] = [ 29.16,116.64] Ry 
 Optimized for a Real-space Cutoff    1.26 Angstroem

   l    n(q)    QCUT    max X(q) W(low)/X(q) W(high)/X(q)  e(spline) 
   1      7    10.205     2.974    0.63E-04    0.14E-03    0.13E-06
   1      7    10.205     4.279    0.11E-03    0.45E-03    0.24E-06
   0      8    10.205    16.381    0.44E-03    0.15E-03    0.55E-07
   0      8    10.205     5.611    0.31E-03    0.11E-03    0.40E-07
   2      7    10.205     4.652    0.50E-03    0.47E-03    0.57E-07
 Optimization of the real space projectors (new method)

 maximal supplied QI-value         = 16.25
 optimisation between [QCUT,QGAM] = [ 10.24, 20.48] = [ 29.35,117.42] Ry 
 Optimized for a Real-space Cutoff    1.34 Angstroem

   l    n(q)    QCUT    max X(q) W(low)/X(q) W(high)/X(q)  e(spline) 
   1      8    10.239     3.658    0.23E-03    0.30E-03    0.98E-07
   1      8    10.239     5.612    0.32E-03    0.65E-03    0.21E-06
   2      7    10.239    55.373    0.42E-03    0.45E-03    0.65E-07
   2      7    10.239    50.863    0.43E-03    0.48E-03    0.67E-07
   0      8    10.239    79.536    0.11E-03    0.21E-03    0.56E-07
   0      8    10.239    38.668    0.96E-04    0.19E-03    0.52E-07
 Optimization of the real space projectors (new method)

 maximal supplied QI-value         = 24.76
 optimisation between [QCUT,QGAM] = [ 10.15, 20.30] = [ 28.85,115.39] Ry 
 Optimized for a Real-space Cutoff    1.38 Angstroem

   l    n(q)    QCUT    max X(q) W(low)/X(q) W(high)/X(q)  e(spline) 
   0      8    10.150    20.381    0.22E-03    0.32E-03    0.29E-06
   0      8    10.150    15.268    0.23E-03    0.35E-03    0.30E-06
   1      8    10.150     5.964    0.46E-03    0.53E-03    0.21E-06
   1      8    10.150     5.382    0.38E-03    0.45E-03    0.19E-06
  PAW_PBE Na_pv 19Sep2006               :
 energy of atom  1       EATOM= -766.0439
 kinetic energy error for atom=    0.0103 (will be added to EATOM!!)
  PAW_PBE Mg_pv 13Apr2007               :
 energy of atom  2       EATOM=-1056.7344
 kinetic energy error for atom=    0.0820 (will be added to EATOM!!)
  PAW_PBE Mn_pv 02Aug2007               :
 energy of atom  3       EATOM=-2025.2664
 kinetic energy error for atom=    0.0284 (will be added to EATOM!!)
  PAW_PBE O 08Apr2002                   :
 energy of atom  4       EATOM= -432.3788
 kinetic energy error for atom=    0.1156 (will be added to EATOM!!)
 
 
 POSCAR: Na Mg Mn  O                             
  positions in cartesian coordinates
  No initial velocities read in

 METAGGA = SCAN     LMAXTAU =  6    LMIXTAU =  F

 exchange correlation table for  LEXCH =        8
   RHO(1)=    0.500       N(1)  =     2000
   RHO(2)=  100.500       N(2)  =     4000

 VTST: version 3.2, (02/03/18)

 CHAIN: initializing optimizer
 
 OPT: Using VASP Dynamics algorithm
 CHAIN: Read ICHAIN            0
 
 POSCAR: Na Mg Mn  O                             
  positions in cartesian coordinates
  No initial velocities read in
 


--------------------------------------------------------------------------------------------------------


 ion  position               nearest neighbor table
   1  0.099  0.687  0.250-  86 2.15  77 2.23
   2  0.647  0.813  0.749-  71 2.21  69 2.29  68 2.33
   3  0.116  0.524  0.764-  83 2.22  48 2.36  32 2.92
   4  0.410  0.493  0.739-  45 2.26  48 2.35
   5  0.424  0.183  0.255-  62 2.27  51 2.29  31 2.95  29 2.97
   6  0.959  0.880  0.244-  67 2.18  76 2.25
   7  0.983  0.740  0.743-  70 2.13  73 2.26  39 2.90  37 2.91
   8  0.930  0.146  0.755-  47 2.34  69 2.37  27 2.76  25 2.85
   9  0.897  0.171  0.248-  54 2.19  63 2.20  41 2.36  25 2.71  27 2.95
  10  0.749  0.458  0.243-  55 2.25  53 2.36
  11  0.584  0.661  0.244-  65 2.26  43 2.32  16 2.72
  12  0.693  0.343  0.749-  60 2.23  59 2.24  57 2.28  56 2.30  30 2.88
  13  0.243  0.159  0.751-  44 2.30  47 2.30  49 2.35
  14  0.402  0.947  0.745-  82 2.23  84 2.28  85 2.30
  15  0.241  0.442  0.263-  50 2.19  41 2.28  52 2.34
  16  0.448  0.838  0.240-  65 2.30  74 2.31  78 2.37  11 2.72
  17  0.590  0.486  0.993-  71 2.01  49 2.02  53 2.05  66 2.08  60 2.09  43 2.12  26 2.83  30 2.86

  18  0.271  0.330  0.500-  52 1.99  45 2.06  46 2.06  51 2.09  50 2.14  44 2.21  28 2.79  35 2.80

  19  0.086  0.490  0.010-  55 1.95  61 2.01  83 2.07  78 2.08  41 2.11  48 2.16  30 2.75  37 2.83

  20  0.758  0.320  0.495-  63 1.99  64 2.00  56 2.06  57 2.08  62 2.10  58 2.20  32 2.79  31 2.83

  21  0.090  0.988  0.998-  42 1.99  73 2.00  77 2.02  47 2.06  67 2.11  84 2.16  37 2.83
  22  0.767  0.821  0.494-  70 1.97  68 2.02  76 2.09  74 2.13  69 2.14  75 2.16  39 2.82
  23  0.595  0.993  0.992-  72 1.95  59 2.01  85 2.02  79 2.06  65 2.11  54 2.12  29 2.85
  24  0.255  0.821  0.507-  81 1.97  82 2.05  87 2.07  80 2.07  86 2.09  88 2.14  36 2.77
  25  0.924  0.155  0.009-  54 1.83  67 1.86  41 1.94  72 1.95  61 2.01  47 2.05   9 2.71   8 2.85
                            34 2.90  30 2.93  26 2.95
  26  0.264  0.323  0.002-  42 1.88  47 1.90  48 1.93  43 1.97  41 2.04  49 2.04  17 2.83  29 2.89
                            33 2.90  25 2.95
  27  0.927  0.150  0.508-  76 1.91  44 1.91  58 1.93  69 1.93  63 1.96  50 2.00   8 2.76  40 2.84
                            32 2.87  36 2.93   9 2.95
  28  0.592  0.490  0.495-  62 1.85  46 1.91  68 1.92  52 1.93  57 1.95  75 1.98  18 2.79  39 2.87
                            35 2.89  31 2.90
  29  0.430  0.157  0.991-  79 1.84  53 1.88  42 1.92  49 1.93  84 2.02  59 2.02  23 2.85  38 2.87
                            26 2.89  30 2.95   5 2.97
  30  0.770  0.338  0.996-  61 1.89  60 1.91  55 1.93  53 1.93  54 1.94  59 1.96  19 2.75  37 2.81
                            17 2.86  12 2.88  25 2.93  29 2.95
  31  0.433  0.157  0.516-  62 1.88  88 1.88  46 1.96  51 1.96  56 1.96  81 2.00  20 2.83  40 2.90
                            28 2.90  36 2.92   5 2.95
  32  0.079  0.481  0.506-  80 1.84  58 1.87  50 1.89  45 1.94  64 1.99  87 2.02  20 2.79  39 2.85
                            27 2.87   3 2.92  35 2.96
  33  0.429  0.656  0.999-  65 1.89  71 1.92  85 1.93  48 1.97  78 2.01  43 2.01  34 2.83  26 2.90
                            38 2.97
  34  0.756  0.821  0.999-  73 1.88  72 1.89  71 1.90  65 1.91  66 1.95  67 1.98  33 2.83  25 2.90
                            37 2.92
  35  0.421  0.652  0.501-  52 1.91  68 1.93  82 1.93  87 1.96  45 1.98  74 2.01  18 2.80  28 2.89
                            40 2.93  32 2.96
  36  0.098  0.983  0.494-  70 1.87  51 1.88  81 1.93  44 1.96  86 1.96  76 1.98  24 2.77  39 2.88
                            31 2.92  27 2.93
  37  0.933  0.662  0.996-  60 1.85  83 1.91  77 1.95  73 1.96  55 2.00  66 2.04  30 2.81  38 2.82
                            19 2.83  21 2.83   7 2.91  34 2.92
  38  0.257  0.827  0.997-  83 1.88  84 1.88  77 1.91  78 1.92  79 1.99  85 2.01  37 2.82  29 2.87
                            33 2.97
  39  0.923  0.651  0.494-  57 1.88  86 1.88  80 1.93  70 1.93  75 1.94  64 1.97  22 2.82  32 2.85
                            28 2.87  36 2.88   7 2.90
  40  0.600  0.990  0.511-  88 1.85  69 1.88  82 1.92  56 1.96  63 1.97  74 1.99  27 2.84  31 2.90
                            35 2.93
  41  0.090  0.310  0.105-  25 1.94  26 2.04  19 2.11  15 2.28   9 2.36
  42  0.269  0.160  0.081-  26 1.88  29 1.92  21 1.99
  43  0.418  0.488  0.103-  26 1.97  33 2.01  17 2.12  11 2.32
  44  0.082  0.134  0.596-  27 1.91  36 1.96  18 2.21  13 2.30
  45  0.250  0.493  0.597-  32 1.94  35 1.98  18 2.06   4 2.26
  46  0.446  0.334  0.600-  28 1.91  31 1.96  18 2.06
  47  0.101  0.172  0.906-  26 1.90  25 2.05  21 2.06  13 2.30   8 2.34
  48  0.266  0.485  0.907-  26 1.93  33 1.97  19 2.16   4 2.35   3 2.36
  49  0.424  0.313  0.895-  29 1.93  17 2.02  26 2.04  13 2.35
  50  0.081  0.327  0.410-  32 1.89  27 2.00  18 2.14  15 2.19
  51  0.267  0.144  0.414-  36 1.88  31 1.96  18 2.09   5 2.29
  52  0.435  0.502  0.405-  35 1.91  28 1.93  18 1.99  15 2.34
  53  0.591  0.309  0.083-  29 1.88  30 1.93  17 2.05  10 2.36
  54  0.777  0.178  0.088-  25 1.83  30 1.94  23 2.12   9 2.19
  55  0.921  0.494  0.100-  30 1.93  19 1.95  37 2.00  10 2.25
  56  0.599  0.154  0.606-  31 1.96  40 1.96  20 2.06  12 2.30
  57  0.762  0.502  0.588-  39 1.88  28 1.95  20 2.08  12 2.28
  58  0.940  0.318  0.602-  32 1.87  27 1.93  20 2.20
  59  0.611  0.172  0.899-  30 1.96  23 2.01  29 2.02  12 2.24
  60  0.782  0.504  0.904-  37 1.85  30 1.91  17 2.09  12 2.23
  61  0.924  0.322  0.910-  30 1.89  19 2.01  25 2.01
  62  0.568  0.318  0.415-  28 1.85  31 1.88  20 2.10   5 2.27
  63  0.765  0.149  0.411-  27 1.96  40 1.97  20 1.99   9 2.20
  64  0.925  0.488  0.398-  39 1.97  32 1.99  20 2.00
  65  0.590  0.812  0.091-  33 1.89  34 1.91  23 2.11  11 2.26  16 2.30
  66  0.762  0.662  0.094-  34 1.95  37 2.04  17 2.08
  67  0.912  0.992  0.097-  25 1.86  34 1.98  21 2.11   6 2.18
  68  0.589  0.652  0.585-  28 1.92  35 1.93  22 2.02   2 2.33
  69  0.759  0.994  0.601-  40 1.88  27 1.93  22 2.14   2 2.29   8 2.37
  70  0.939  0.824  0.582-  36 1.87  39 1.93  22 1.97   7 2.13
  71  0.594  0.664  0.907-  34 1.90  33 1.92  17 2.01   2 2.21
  72  0.766  0.988  0.913-  34 1.89  23 1.95  25 1.95
  73  0.913  0.820  0.908-  34 1.88  37 1.96  21 2.00   7 2.26
  74  0.583  0.825  0.402-  40 1.99  35 2.01  22 2.13  16 2.31
  75  0.760  0.636  0.390-  39 1.94  28 1.98  22 2.16
  76  0.943  0.009  0.403-  27 1.91  36 1.98  22 2.09   6 2.25
  77  0.097  0.820  0.093-  38 1.91  37 1.95  21 2.02   1 2.23
  78  0.270  0.675  0.094-  38 1.92  33 2.01  19 2.08  16 2.37
  79  0.424  0.004  0.086-  29 1.84  38 1.99  23 2.06
  80  0.073  0.635  0.591-  32 1.84  39 1.93  24 2.07
  81  0.251  0.986  0.599-  36 1.93  24 1.97  31 2.00
  82  0.434  0.821  0.594-  40 1.92  35 1.93  24 2.05  14 2.23
  83  0.099  0.668  0.908-  38 1.88  37 1.91  19 2.07   3 2.22
  84  0.267  0.980  0.895-  38 1.88  29 2.02  21 2.16  14 2.28
  85  0.422  0.814  0.904-  33 1.93  38 2.01  23 2.02  14 2.30
  86  0.077  0.808  0.401-  39 1.88  36 1.96  24 2.09   1 2.15
  87  0.252  0.645  0.408-  35 1.96  32 2.02  24 2.07
  88  0.452  0.010  0.425-  40 1.85  31 1.88  24 2.14
 
  LATTYP: Found a hexagonal cell.
 ALAT       =    10.0190000534
 C/A-ratio  =     1.1196726572
  
  Lattice vectors:
  
 A1 = (  10.0190000534,   0.0000000000,   0.0000000000)
 A2 = (  -5.0095000267,   8.6767085668,   0.0000000000)
 A3 = (   0.0000000000,   0.0000000000,  11.2180004120)


Analysis of symmetry for initial positions (statically):
=====================================================================
 Subroutine PRICEL returns:
 Original cell was already a primitive cell.
 

 Routine SETGRP: Setting up the symmetry group for a 
 hexagonal supercell.


 Subroutine GETGRP returns: Found  1 space group operations
 (whereof  1 operations were pure point group operations)
 out of a pool of 24 trial point group operations.


The static configuration has the point symmetry C_1 .


Analysis of symmetry for dynamics (positions and initial velocities):
=====================================================================
 Subroutine PRICEL returns:
 Original cell was already a primitive cell.
 

 Routine SETGRP: Setting up the symmetry group for a 
 hexagonal supercell.


 Subroutine GETGRP returns: Found  1 space group operations
 (whereof  1 operations were pure point group operations)
 out of a pool of 24 trial point group operations.


The dynamic configuration has the point symmetry C_1 .


Analysis of structural, dynamic, and magnetic symmetry:
=====================================================================
 Subroutine PRICEL returns:
 Original cell was already a primitive cell.
 

 Routine SETGRP: Setting up the symmetry group for a 
 hexagonal supercell.


 Subroutine GETGRP returns: Found  1 space group operations
 (whereof  1 operations were pure point group operations)
 out of a pool of 24 trial point group operations.


The magnetic configuration has the point symmetry C_1 .


 Subroutine INISYM returns: Found  1 space group operations
 (whereof  1 operations are pure point group operations),
 and found     1 'primitive' translations

 
 

Automatic generation of k-mesh.
 generate k-points for:    2    2    2
Space group operators:
 irot       det(A)        alpha          n_x          n_y          n_z        tau_x        tau_y        tau_z
    1     1.000000     0.000000     1.000000     0.000000     0.000000     0.000000     0.000000     0.000000
 
 Subroutine IBZKPT returns following result:
 ===========================================
 
 Found      8 irreducible k-points:
 
 Following reciprocal coordinates:
            Coordinates               Weight
  0.000000  0.000000  0.000000      1.000000
  0.500000 -0.000000 -0.000000      1.000000
  0.000000  0.500000  0.000000      1.000000
  0.500000  0.500000 -0.000000      1.000000
  0.000000  0.000000  0.500000      1.000000
  0.500000 -0.000000  0.500000      1.000000
  0.000000  0.500000  0.500000      1.000000
  0.500000  0.500000  0.500000      1.000000
 
 Following cartesian coordinates:
            Coordinates               Weight
  0.000000  0.000000  0.000000      1.000000
  0.049905  0.028813 -0.000000      1.000000
  0.000000  0.057626  0.000000      1.000000
  0.049905  0.086438 -0.000000      1.000000
  0.000000  0.000000  0.044571      1.000000
  0.049905  0.028813  0.044571      1.000000
  0.000000  0.057626  0.044571      1.000000
  0.049905  0.086438  0.044571      1.000000
 


--------------------------------------------------------------------------------------------------------




 Dimension of arrays:
   k-points           NKPTS =      8   k-points in BZ     NKDIM =      8   number of bands    NBANDS=    480
   number of dos      NEDOS =    301   number of ions     NIONS =     88
   non local maximal  LDIM  =      6   non local SUM 2l+1 LMDIM =     18
   total plane-waves  NPLWV = 140000
   max r-space proj   IRMAX =   1632   max aug-charges    IRDMAX=   4555
   dimension x,y,z NGX =    50 NGY =   50 NGZ =   56
   dimension x,y,z NGXF=   100 NGYF=  100 NGZF=  112
   support grid    NGXF=   100 NGYF=  100 NGZF=  112
   ions per type =              16   8  16  48
   NGX,Y,Z   is equivalent  to a cutoff of   8.30,  8.30,  8.30 a.u.
   NGXF,Y,Z  is equivalent  to a cutoff of  16.59, 16.59, 16.60 a.u.

 SYSTEM =  unknown system                          
 POSCAR =  Na Mg Mn  O                             

 Startparameter for this run:
   NWRITE =      2    write-flag & timer
   PREC   = normal    normal or accurate (medium, high low for compatibility)
   ISTART =      0    job   : 0-new  1-cont  2-samecut
   ICHARG =      1    charge: 1-file 2-atom 10-const
   ISPIN  =      2    spin polarized calculation?
   LNONCOLLINEAR =      F non collinear calculations
   LSORBIT =      F    spin-orbit coupling
   INIWAV =      1    electr: 0-lowe 1-rand  2-diag
   LASPH  =      T    aspherical Exc in radial PAW
   METAGGA=      F    non-selfconsistent MetaGGA calc.

 Electronic Relaxation 1
   ENCUT  =  400.0 eV  29.40 Ry    5.42 a.u.  16.34 16.34 18.29*2*pi/ulx,y,z
   ENINI  =  400.0     initial cutoff
   ENAUG  =  758.8 eV  augmentation charge cutoff
   NELM   =    200;   NELMIN=  6; NELMDL=-12     # of ELM steps 
   EDIFF  = 0.1E-04   stopping-criterion for ELM
   LREAL  =      T    real-space projection
   NLSPLINE    = F    spline interpolate recip. space projectors
   LCOMPAT=      F    compatible to vasp.4.4
   GGA_COMPAT  = T    GGA compatible to vasp.4.4-vasp.4.6
   LMAXPAW     = -100 max onsite density
   LMAXMIX     =    4 max onsite mixed and CHGCAR
   VOSKOWN=      0    Vosko Wilk Nusair interpolation
   ROPT   =   -0.00050  -0.00050  -0.00050  -0.00050
 Ionic relaxation
   EDIFFG = 0.1E-03   stopping-criterion for IOM
   NSW    =      1    number of steps for IOM
   NBLOCK =      1;   KBLOCK =      1    inner block; outer block 
   IBRION =     -1    ionic relax: 0-MD 1-quasi-New 2-CG
   NFREE  =      0    steps in history (QN), initial steepest desc. (CG)
   ISIF   =      2    stress and relaxation
   IWAVPR =     10    prediction:  0-non 1-charg 2-wave 3-comb
   ISYM   =      2    0-nonsym 1-usesym 2-fastsym
   LCORR  =      T    Harris-Foulkes like correction to forces

   POTIM  = 0.5000    time-step for ionic-motion
   TEIN   =    0.0    initial temperature
   TEBEG  =    0.0;   TEEND  =   0.0 temperature during run
   SMASS  =  -3.00    Nose mass-parameter (am)
   estimated Nose-frequenzy (Omega)   =  0.10E-29 period in steps =****** mass=  -0.229E-26a.u.
   SCALEE = 1.0000    scale energy and forces
   NPACO  =    256;   APACO  = 16.0  distance and # of slots for P.C.
   PSTRESS=    0.0 pullay stress

  Mass of Ions in am
   POMASS =  22.99 24.30 54.94 16.00
  Ionic Valenz
   ZVAL   =   7.00  8.00 13.00  6.00
  Atomic Wigner-Seitz radii
   RWIGS  =  -1.00 -1.00 -1.00 -1.00
  virtual crystal weights 
   VCA    =   1.00  1.00  1.00  1.00
   NELECT =     672.0000    total number of electrons
   NUPDOWN=      48.0000    fix difference up-down

 DOS related values:
   EMIN   =  10.00;   EMAX   =-10.00  energy-range for DOS
   EFERMI =   0.00
   ISMEAR =     0;   SIGMA  =   0.05  broadening in eV -4-tet -1-fermi 0-gaus

 Electronic relaxation 2 (details)
   IALGO  =     48    algorithm
   LDIAG  =      T    sub-space diagonalisation (order eigenvalues)
   LSUBROT=      F    optimize rotation matrix (better conditioning)
   TURBO    =      0    0=normal 1=particle mesh
   IRESTART =      0    0=no restart 2=restart with 2 vectors
   NREBOOT  =      0    no. of reboots
   NMIN     =      0    reboot dimension
   EREF     =   0.00    reference energy to select bands
   IMIX   =      4    mixing-type and parameters
     AMIX     =   0.40;   BMIX     =  1.00
     AMIX_MAG =   1.60;   BMIX_MAG =  1.00
     AMIN     =   0.10
     WC   =   100.;   INIMIX=   1;  MIXPRE=   1;  MAXMIX= -45

 Intra band minimization:
   WEIMIN = 0.0000     energy-eigenvalue tresh-hold
   EBREAK =  0.52E-08  absolut break condition
   DEPER  =   0.30     relativ break condition  

   TIME   =   0.40     timestep for ELM

  volume/ion in A,a.u.               =      11.08        74.78
  Fermi-wavevector in a.u.,A,eV,Ry     =   1.445993  2.732531 28.448379  2.090897
  Thomas-Fermi vector in A             =   2.564112
 
 Write flags
   LWAVE        =      F    write WAVECAR
   LDOWNSAMPLE  =      F    k-point downsampling of WAVECAR
   LCHARG       =      F    write CHGCAR
   LVTOT        =      F    write LOCPOT, total local potential
   LVHAR        =      F    write LOCPOT, Hartree potential only
   LELF         =      F    write electronic localiz. function (ELF)
   LORBIT       =     11    0 simple, 1 ext, 2 COOP (PROOUT), +10 PAW based schemes


 Dipole corrections
   LMONO  =      F    monopole corrections only (constant potential shift)
   LDIPOL =      F    correct potential (dipole corrections)
   IDIPOL =      0    1-x, 2-y, 3-z, 4-all directions 
   EPSILON=  1.0000000 bulk dielectric constant

 Exchange correlation treatment:
   GGA     =    --    GGA type
   LEXCH   =     8    internal setting for exchange type
   VOSKOWN=      0    Vosko Wilk Nusair interpolation
   LHFCALC =     F    Hartree Fock is set to
   LHFONE  =     F    Hartree Fock one center treatment
   AEXX    =    0.0000 exact exchange contribution

 Linear response parameters
   LEPSILON=     F    determine dielectric tensor
   LRPA    =     F    only Hartree local field effects (RPA)
   LNABLA  =     F    use nabla operator in PAW spheres
   LVEL    =     F    velocity operator in full k-point grid
   LINTERFAST=   F  fast interpolation
   KINTER  =     0    interpolate to denser k-point grid
   CSHIFT  =0.1000    complex shift for real part using Kramers Kronig
   OMEGAMAX=  -1.0    maximum frequency
   DEG_THRESHOLD= 0.2000000E-02 threshold for treating states as degnerate
   RTIME   =   -0.100 relaxation time in fs
  (WPLASMAI=    0.000 imaginary part of plasma frequency in eV, 0.658/RTIME)
   DFIELD  = 0.0000000 0.0000000 0.0000000 field for delta impulse in time
 
 Orbital magnetization related:
   ORBITALMAG=     F  switch on orbital magnetization
   LCHIMAG   =     F  perturbation theory with respect to B field
   DQ        =  0.001000  dq finite difference perturbation B field
   LLRAUG    =     F  two centre corrections for induced B field



--------------------------------------------------------------------------------------------------------


 Static calculation
 charge density and potential will be updated during run
 spin polarized calculation
 RMM-DIIS sequential band-by-band
 perform sub-space diagonalisation
    before iterative eigenvector-optimisation
 modified Broyden-mixing scheme, WC =      100.0
 initial mixing is a Kerker type mixing with AMIX =  0.4000 and BMIX =      1.0000
 Hartree-type preconditioning will be used
 using additional bands          144
 real space projection scheme for non local part
 use partial core corrections
 calculate Harris-corrections to forces 
   (improved forces if not selfconsistent)
 use gradient corrections 
 use of overlap-Matrix (Vanderbilt PP)
 Gauss-broadening in eV      SIGMA  =   0.05


--------------------------------------------------------------------------------------------------------


  energy-cutoff  :      400.00
  volume of cell :      975.20
      direct lattice vectors                 reciprocal lattice vectors
    10.019000053  0.000000000  0.000000000     0.099810360  0.057625538 -0.000000000
    -5.009500027  8.676708567  0.000000000     0.000000000  0.115251076  0.000000000
     0.000000000  0.000000000 11.218000412     0.000000000  0.000000000  0.089142446

  length of vectors
    10.019000053 10.019000053 11.218000412     0.115251076  0.115251076  0.089142446


 
 k-points in units of 2pi/SCALE and weight: read from INCAR                         
   0.00000000  0.00000000  0.00000000       0.125
   0.04990518  0.02881277 -0.00000000       0.125
   0.00000000  0.05762554  0.00000000       0.125
   0.04990518  0.08643831 -0.00000000       0.125
   0.00000000  0.00000000  0.04457122       0.125
   0.04990518  0.02881277  0.04457122       0.125
   0.00000000  0.05762554  0.04457122       0.125
   0.04990518  0.08643831  0.04457122       0.125
 
 k-points in reciprocal lattice and weights: read from INCAR                         
   0.00000000  0.00000000  0.00000000       0.125
   0.50000000 -0.00000000 -0.00000000       0.125
   0.00000000  0.50000000  0.00000000       0.125
   0.50000000  0.50000000 -0.00000000       0.125
   0.00000000  0.00000000  0.50000000       0.125
   0.50000000 -0.00000000  0.50000000       0.125
   0.00000000  0.50000000  0.50000000       0.125
   0.50000000  0.50000000  0.50000000       0.125
 
 position of ions in fractional coordinates (direct lattice) 
   0.09921790  0.68686776  0.25037261
   0.64680873  0.81309042  0.74899177
   0.11584625  0.52439635  0.76444640
   0.40994036  0.49346098  0.73919947
   0.42440636  0.18288798  0.25461222
   0.95893598  0.87975658  0.24420484
   0.98268305  0.74017402  0.74328933
   0.92986129  0.14641793  0.75450612
   0.89730371  0.17061308  0.24797735
   0.74873907  0.45823268  0.24318862
   0.58443187  0.66142790  0.24355945
   0.69306127  0.34340968  0.74927346
   0.24293872  0.15865924  0.75063734
   0.40220326  0.94749457  0.74513993
   0.24122247  0.44222134  0.26337403
   0.44779840  0.83778065  0.23994651
   0.58976747  0.48642984  0.99317212
   0.27100852  0.33011366  0.50005525
   0.08616126  0.48989314  0.01022460
   0.75808592  0.32015827  0.49472007
   0.08959130  0.98832523  0.99781653
   0.76737206  0.82138750  0.49362095
   0.59547884  0.99342740  0.99242377
   0.25453037  0.82073057  0.50651897
   0.92425264  0.15518459  0.00856852
   0.26380446  0.32271223  0.00187447
   0.92692652  0.15021595  0.50840255
   0.59192361  0.48986778  0.49529772
   0.43019232  0.15676353  0.99110419
   0.76981893  0.33790117  0.99596181
   0.43282042  0.15701922  0.51571847
   0.07948527  0.48069726  0.50635762
   0.42915521  0.65639406  0.99880883
   0.75566783  0.82126880  0.99926205
   0.42100641  0.65241905  0.50115081
   0.09784453  0.98341438  0.49417898
   0.93282092  0.66194686  0.99557238
   0.25733664  0.82660262  0.99700192
   0.92251577  0.65134952  0.49403279
   0.59987036  0.99021881  0.51096450
   0.08972395  0.31010146  0.10462738
   0.26936443  0.15999846  0.08110581
   0.41845880  0.48798458  0.10315207
   0.08211377  0.13378938  0.59589764
   0.24979486  0.49308905  0.59697983
   0.44570587  0.33428229  0.59970224
   0.10127293  0.17210789  0.90648062
   0.26590261  0.48510215  0.90711353
   0.42410496  0.31324436  0.89523085
   0.08057323  0.32672067  0.41036993
   0.26729485  0.14353270  0.41441967
   0.43495747  0.50233334  0.40511141
   0.59118977  0.30940419  0.08314280
   0.77650104  0.17757540  0.08781494
   0.92077719  0.49375520  0.09962025
   0.59857255  0.15369785  0.60620608
   0.76214747  0.50204521  0.58785967
   0.94042698  0.31808721  0.60218129
   0.61103733  0.17213555  0.89921551
   0.78177433  0.50443898  0.90448383
   0.92356959  0.32164962  0.90952038
   0.56760755  0.31774030  0.41466213
   0.76452353  0.14911892  0.41055713
   0.92535878  0.48822430  0.39821446
   0.59036776  0.81195420  0.09093688
   0.76220001  0.66201255  0.09415760
   0.91231828  0.99238783  0.09680691
   0.58904270  0.65174945  0.58458725
   0.75932297  0.99352766  0.60132998
   0.93855070  0.82436559  0.58192367
   0.59436323  0.66435676  0.90725616
   0.76575438  0.98847852  0.91274734
   0.91252740  0.82041363  0.90762165
   0.58289756  0.82530604  0.40211801
   0.76044859  0.63615021  0.39009983
   0.94313459  0.00943116  0.40271437
   0.09693667  0.82037099  0.09260563
   0.26998896  0.67530100  0.09424942
   0.42365770  0.00388413  0.08597423
   0.07271945  0.63473723  0.59088160
   0.25096968  0.98582198  0.59939916
   0.43414496  0.82089077  0.59393383
   0.09940764  0.66796988  0.90754142
   0.26720405  0.98049853  0.89465142
   0.42236249  0.81444132  0.90428772
   0.07684070  0.80813594  0.40061239
   0.25151657  0.64462232  0.40770189
   0.45221450  0.00954987  0.42545639
 
 position of ions in cartesian coordinates  (Angst):
  -2.44679989  5.95975140  2.80868000
   2.40720021  7.05494860  8.40219000
  -1.46629995  4.55003427  8.57556000
   1.63519973  4.28161713  8.29234000
   3.33595000  1.58686573  2.85624000
   5.20043903  7.63339143  2.73949000
   6.13759976  6.42227430  8.33822000
   8.58279971  1.27042570  8.46405000
   8.13539971  1.48035997  2.78181000
   5.20610021  3.97595140  2.72809000
   2.54199984  5.73901713  2.73225000
   5.22347005  2.97966573  8.40535000
   1.63919960  1.37664003  8.42065000
  -0.71679963  8.22113427  8.35898000
   0.20150008  3.83702570  2.95453000
   0.28963003  7.26917857  2.69172000
   3.47211000  4.22061000 11.14140521
   1.06153000  2.86430000  5.60962000
  -1.59087000  4.25066000  0.11469959
   5.99143000  2.77792000  5.54977000
  -4.05340000  8.57541000 11.19350621
   3.57356000  7.12694000  5.53744000
   0.98952800  8.61968000 11.13301021
  -1.56131000  7.12124000  5.68213000
   8.48269003  1.34649143  0.09612170
   1.02643000  2.80008000  0.02102780
   8.53437005  1.30338000  5.70326000
   3.47649000  4.25044000  5.55625000
   3.52479003  1.36019143 11.11820721
   6.02010000  2.93187000 11.17270000
   3.54984000  1.36241000  5.78533000
  -1.61169000  4.17087000  5.68032000
   1.01150000  5.69534000 11.20463791
   3.45689000  7.12591000 11.20972209
   0.94977000  5.66085000  5.62191000
  -3.94611000  8.53280000  5.54370000
   6.02991005  5.74352000 11.16833141
  -1.56261000  7.17219000 11.18436791
   5.97975005  5.65157000  5.54206000
   1.04960000  8.59184000  5.73200000
  -0.65450900  2.69066000  1.17371000
   1.89725000  1.38826000  0.90984500
   1.74798000  4.23410000  1.15716000
   0.15248003  1.16085143  6.68478000
   0.03256510  4.27839000  6.69692000
   2.79094000  2.90047000  6.72746000
   0.15247900  1.49333000 10.16890000
   0.23395900  4.20909000 10.17600000
   2.67991000  2.71793000 10.04270000
  -0.82944400  2.83486000  4.60353000
   1.95900003  1.24539143  4.64896000
   1.84140000  4.35860000  4.54454000
   4.37317000  2.68461000  0.93269600
   6.89020000  1.54077000  0.98510800
   6.75180000  4.28417000  1.11754000
   5.22714903  1.33359143  6.80042000
   5.12096000  4.35610000  6.59461000
   7.82868005  2.75995000  6.75527000
   5.25967000  1.49357000 10.08740000
   5.30561000  4.37687000 10.14650000
   7.64194000  2.79086000 10.20300000
   4.09514000  2.75694000  4.65168000
   6.91275003  1.29386143  4.60563000
   6.82541005  4.23618000  4.46717000
   1.84741000  7.04509000  1.02013000
   4.32013000  5.74409000  1.05626000
   4.16915000  8.61066000  1.08598000
   2.63668000  5.65504000  6.55790000
   2.63058000  8.62055000  6.74572000
   5.27368005  7.15278000  6.52802000
   2.62683000  5.76443000 10.17760000
   2.72031000  8.57674000 10.23920000
   5.03275000  7.11849000 10.18170000
   1.70568000  7.16094000  4.51096000
   4.43214000  5.51969000  4.37614000
   9.40202008  0.08183143  4.51765000
  -3.13844000  7.11812000  1.03885000
  -0.67790100  5.85939000  1.05729000
   4.22516903  0.03370143  0.96445900
  -2.45114000  5.50743000  6.62851000
  -2.42401000  8.55369000  6.72406000
   0.23744600  7.12263000  6.66275000
  -2.35023000  5.79578000 10.18080000
  -2.23469000  8.50750000 10.03620000
   0.15170600  7.06667000 10.14430000
  -3.27849000  7.01196000  4.49407000
  -0.70929100  5.59320000  4.57360000
   4.48289703  0.08286143  4.77277000
 


--------------------------------------------------------------------------------------------------------


 k-point  1 :   0.0000 0.0000 0.0000  plane waves:   17725
 k-point  2 :   0.5000-0.0000-0.0000  plane waves:   17736
 k-point  3 :   0.0000 0.5000 0.0000  plane waves:   17736
 k-point  4 :   0.5000 0.5000-0.0000  plane waves:   17736
 k-point  5 :   0.0000 0.0000 0.5000  plane waves:   17676
 k-point  6 :   0.5000-0.0000 0.5000  plane waves:   17700
 k-point  7 :   0.0000 0.5000 0.5000  plane waves:   17700
 k-point  8 :   0.5000 0.5000 0.5000  plane waves:   17700

 maximum and minimum number of plane-waves per node :     17736    17676

 maximum number of plane-waves:     17736
 maximum index in each direction: 
   IXMAX=   16   IYMAX=   16   IZMAX=   18
   IXMIN=  -16   IYMIN=  -16   IZMIN=  -18


 serial   3D FFT for wavefunctions
 parallel 3D FFT for charge:
    minimum data exchange during FFTs selected (reduces bandwidth)


 total amount of memory used by VASP MPI-rank0    94427. kBytes
=======================================================================

   base      :      30000. kBytes
   nonlr-proj:      13668. kBytes
   fftplans  :       1275. kBytes
   grid      :      22786. kBytes
   one-center:       2737. kBytes
   wavefun   :      23961. kBytes
 
     INWAV:  cpu time    0.0000: real time    0.0001
 Broyden mixing: mesh for mixing (old mesh)
   NGX = 33   NGY = 33   NGZ = 37
  (NGX  =100   NGY  =100   NGZ  =112)
  gives a total of  40293 points

 initial charge density was supplied:
 charge density of overlapping atoms calculated
 number of electron     672.0000000 magnetization      48.0000000
 keeping initial charge density in first step


--------------------------------------------------------------------------------------------------------


 Maximum index for non-local projection operator         1549
 Maximum index for augmentation-charges          514 (set IRDMAX)


--------------------------------------------------------------------------------------------------------


 First call to EWALD:  gamma=   0.179
 Maximum number of real-space cells 3x 3x 2
 Maximum number of reciprocal cells 3x 3x 3

    FEWALD:  cpu time    0.0027: real time    0.0027


--------------------------------------- Iteration      1(   1)  ---------------------------------------


    POTLOK:  cpu time    0.2081: real time    0.2090
    SETDIJ:  cpu time    4.6423: real time    4.6446
    EDDIAG:  cpu time    4.4187: real time    4.8226
  RMM-DIIS:  cpu time    9.2120: real time    9.2333
    ORTHCH:  cpu time    1.1573: real time    1.2381
       DOS:  cpu time    0.0019: real time    0.0020
    --------------------------------------------
      LOOP:  cpu time   19.6404: real time   20.1494

 eigenvalue-minimisations  :  7680
 total energy-change (2. order) : 0.1592762E+04  (-0.3495486E+05)
 number of electron     672.0000000 magnetization      48.0000000
 augmentation part      672.0000000 magnetization      48.0000000

 Free energy of the ion-electron system (eV)
  ---------------------------------------------------
  alpha Z        PSCENC =      2652.81237852
  Ewald energy   TEWEN  =    -42116.67054980
  -Hartree energ DENC   =    -25512.40527304
  -exchange      EXHF   =         0.00000000
  -V(xc)+E(xc)   XCENC  =      3604.84176941
  PAW double counting   =     55594.23204139   -59034.67079123
  entropy T*S    EENTRO =        -0.04176151
  eigenvalues    EBANDS =     -7457.53406619
  atomic energy  EATOM  =     73862.19814772
  Solvation  Ediel_sol  =         0.00000000
  ---------------------------------------------------
  free energy    TOTEN  =      1592.76189527 eV

  energy without entropy =     1592.80365678  energy(sigma->0) =     1592.78277603


--------------------------------------------------------------------------------------------------------




--------------------------------------- Iteration      1(   2)  ---------------------------------------


    EDDIAG:  cpu time    4.4141: real time    4.8268
  RMM-DIIS:  cpu time    9.2216: real time    9.2360
    ORTHCH:  cpu time    1.2097: real time    1.2918
       DOS:  cpu time    0.0018: real time    0.0018
    --------------------------------------------
      LOOP:  cpu time   14.8473: real time   15.3563

 eigenvalue-minimisations  :  7680
 total energy-change (2. order) :-0.2334188E+04  (-0.8035740E+04)
 number of electron     672.0000000 magnetization      48.0000000
 augmentation part      672.0000000 magnetization      48.0000000

 Free energy of the ion-electron system (eV)
  ---------------------------------------------------
  alpha Z        PSCENC =      2652.81237852
  Ewald energy   TEWEN  =    -42116.67054980
  -Hartree energ DENC   =    -25512.40527304
  -exchange      EXHF   =         0.00000000
  -V(xc)+E(xc)   XCENC  =      3604.84176941
  PAW double counting   =     55594.23204139   -59034.67079123
  entropy T*S    EENTRO =        -0.04064692
  eigenvalues    EBANDS =     -9791.72271254
  atomic energy  EATOM  =     73862.19814772
  Solvation  Ediel_sol  =         0.00000000
  ---------------------------------------------------
  free energy    TOTEN  =      -741.42563649 eV

  energy without entropy =     -741.38498957  energy(sigma->0) =     -741.40531303


--------------------------------------------------------------------------------------------------------




--------------------------------------- Iteration      1(   3)  ---------------------------------------


    EDDIAG:  cpu time    4.4116: real time    4.8296
  RMM-DIIS:  cpu time    9.1997: real time    9.2146
    ORTHCH:  cpu time    1.1607: real time    1.2408
       DOS:  cpu time    0.0020: real time    0.0020
    --------------------------------------------
      LOOP:  cpu time   14.7740: real time   15.2870

 eigenvalue-minimisations  :  7680
 total energy-change (2. order) : 0.9395649E+02  (-0.1418975E+04)
 number of electron     672.0000000 magnetization      48.0000000
 augmentation part      672.0000000 magnetization      48.0000000

 Free energy of the ion-electron system (eV)
  ---------------------------------------------------
  alpha Z        PSCENC =      2652.81237852
  Ewald energy   TEWEN  =    -42116.67054980
  -Hartree energ DENC   =    -25512.40527304
  -exchange      EXHF   =         0.00000000
  -V(xc)+E(xc)   XCENC  =      3604.84176941
  PAW double counting   =     55594.23204139   -59034.67079123
  entropy T*S    EENTRO =        -0.03555595
  eigenvalues    EBANDS =     -9697.77131377
  atomic energy  EATOM  =     73862.19814772
  Solvation  Ediel_sol  =         0.00000000
  ---------------------------------------------------
  free energy    TOTEN  =      -647.46914674 eV

  energy without entropy =     -647.43359080  energy(sigma->0) =     -647.45136877


--------------------------------------------------------------------------------------------------------




--------------------------------------- Iteration      1(   4)  ---------------------------------------


    EDDIAG:  cpu time    4.4144: real time    4.8540
  RMM-DIIS:  cpu time    9.2105: real time    9.2250
    ORTHCH:  cpu time    1.1526: real time    1.2369
       DOS:  cpu time    0.0015: real time    0.0015
    --------------------------------------------
      LOOP:  cpu time   14.7790: real time   15.3173

 eigenvalue-minimisations  :  7680
 total energy-change (2. order) :-0.4644655E+03  (-0.4287371E+03)
 number of electron     672.0000000 magnetization      48.0000000
 augmentation part      672.0000000 magnetization      48.0000000

 Free energy of the ion-electron system (eV)
  ---------------------------------------------------
  alpha Z        PSCENC =      2652.81237852
  Ewald energy   TEWEN  =    -42116.67054980
  -Hartree energ DENC   =    -25512.40527304
  -exchange      EXHF   =         0.00000000
  -V(xc)+E(xc)   XCENC  =      3604.84176941
  PAW double counting   =     55594.23204139   -59034.67079123
  entropy T*S    EENTRO =        -0.00000000
  eigenvalues    EBANDS =    -10162.27237829
  atomic energy  EATOM  =     73862.19814772
  Solvation  Ediel_sol  =         0.00000000
  ---------------------------------------------------
  free energy    TOTEN  =     -1111.93465532 eV

  energy without entropy =    -1111.93465532  energy(sigma->0) =    -1111.93465532


--------------------------------------------------------------------------------------------------------




--------------------------------------- Iteration      1(   5)  ---------------------------------------


    EDDIAG:  cpu time    4.4142: real time    4.8304
  RMM-DIIS:  cpu time    9.2424: real time    9.2498
    ORTHCH:  cpu time    1.1547: real time    1.2370
       DOS:  cpu time    0.0010: real time    0.0010
    --------------------------------------------
      LOOP:  cpu time   14.8123: real time   15.3182

 eigenvalue-minimisations  :  7680
 total energy-change (2. order) :-0.1043024E+03  (-0.1599852E+03)
 number of electron     672.0000000 magnetization      48.0000000
 augmentation part      672.0000000 magnetization      48.0000000

 Free energy of the ion-electron system (eV)
  ---------------------------------------------------
  alpha Z        PSCENC =      2652.81237852
  Ewald energy   TEWEN  =    -42116.67054980
  -Hartree energ DENC   =    -25512.40527304
  -exchange      EXHF   =         0.00000000
  -V(xc)+E(xc)   XCENC  =      3604.84176941
  PAW double counting   =     55594.23204139   -59034.67079123
  entropy T*S    EENTRO =        -0.00000000
  eigenvalues    EBANDS =    -10266.57474588
  atomic energy  EATOM  =     73862.19814772
  Solvation  Ediel_sol  =         0.00000000
  ---------------------------------------------------
  free energy    TOTEN  =     -1216.23702291 eV

  energy without entropy =    -1216.23702291  energy(sigma->0) =    -1216.23702291


--------------------------------------------------------------------------------------------------------




--------------------------------------- Iteration      1(   6)  ---------------------------------------


    EDDIAG:  cpu time    4.4251: real time    4.8370
  RMM-DIIS:  cpu time    9.2275: real time    9.2338
    ORTHCH:  cpu time    1.1565: real time    1.2382
       DOS:  cpu time    0.0013: real time    0.0013
    --------------------------------------------
      LOOP:  cpu time   14.8104: real time   15.3104

 eigenvalue-minimisations  :  7680
 total energy-change (2. order) :-0.9181257E+01  (-0.7949026E+02)
 number of electron     672.0000000 magnetization      48.0000000
 augmentation part      672.0000000 magnetization      48.0000000

 Free energy of the ion-electron system (eV)
  ---------------------------------------------------
  alpha Z        PSCENC =      2652.81237852
  Ewald energy   TEWEN  =    -42116.67054980
  -Hartree energ DENC   =    -25512.40527304
  -exchange      EXHF   =         0.00000000
  -V(xc)+E(xc)   XCENC  =      3604.84176941
  PAW double counting   =     55594.23204139   -59034.67079123
  entropy T*S    EENTRO =        -0.00000000
  eigenvalues    EBANDS =    -10275.75600295
  atomic energy  EATOM  =     73862.19814772
  Solvation  Ediel_sol  =         0.00000000
  ---------------------------------------------------
  free energy    TOTEN  =     -1225.41827998 eV

  energy without entropy =    -1225.41827998  energy(sigma->0) =    -1225.41827998


--------------------------------------------------------------------------------------------------------




--------------------------------------- Iteration      1(   7)  ---------------------------------------


    EDDIAG:  cpu time    4.4161: real time    4.8250
  RMM-DIIS:  cpu time    9.2406: real time    9.2483
    ORTHCH:  cpu time    1.1604: real time    1.2422
       DOS:  cpu time    0.0011: real time    0.0011
    --------------------------------------------
      LOOP:  cpu time   14.8182: real time   15.3166

 eigenvalue-minimisations  :  7680
 total energy-change (2. order) :-0.1895536E+01  (-0.4871992E+02)
 number of electron     672.0000000 magnetization      48.0000000
 augmentation part      672.0000000 magnetization      48.0000000

 Free energy of the ion-electron system (eV)
  ---------------------------------------------------
  alpha Z        PSCENC =      2652.81237852
  Ewald energy   TEWEN  =    -42116.67054980
  -Hartree energ DENC   =    -25512.40527304
  -exchange      EXHF   =         0.00000000
  -V(xc)+E(xc)   XCENC  =      3604.84176941
  PAW double counting   =     55594.23204139   -59034.67079123
  entropy T*S    EENTRO =        -0.00000000
  eigenvalues    EBANDS =    -10277.65153928
  atomic energy  EATOM  =     73862.19814772
  Solvation  Ediel_sol  =         0.00000000
  ---------------------------------------------------
  free energy    TOTEN  =     -1227.31381631 eV

  energy without entropy =    -1227.31381631  energy(sigma->0) =    -1227.31381631


--------------------------------------------------------------------------------------------------------




--------------------------------------- Iteration      1(   8)  ---------------------------------------


    EDDIAG:  cpu time    4.4811: real time    4.8986
  RMM-DIIS:  cpu time    9.2346: real time    9.2413
    ORTHCH:  cpu time    1.1568: real time    1.2380
       DOS:  cpu time    0.0015: real time    0.0015
    --------------------------------------------
      LOOP:  cpu time   14.8740: real time   15.3793

 eigenvalue-minimisations  :  7680
 total energy-change (2. order) : 0.5032728E+01  (-0.3037182E+02)
 number of electron     672.0000000 magnetization      48.0000000
 augmentation part      672.0000000 magnetization      48.0000000

 Free energy of the ion-electron system (eV)
  ---------------------------------------------------
  alpha Z        PSCENC =      2652.81237852
  Ewald energy   TEWEN  =    -42116.67054980
  -Hartree energ DENC   =    -25512.40527304
  -exchange      EXHF   =         0.00000000
  -V(xc)+E(xc)   XCENC  =      3604.84176941
  PAW double counting   =     55594.23204139   -59034.67079123
  entropy T*S    EENTRO =        -0.00000000
  eigenvalues    EBANDS =    -10272.61881143
  atomic energy  EATOM  =     73862.19814772
  Solvation  Ediel_sol  =         0.00000000
  ---------------------------------------------------
  free energy    TOTEN  =     -1222.28108845 eV

  energy without entropy =    -1222.28108845  energy(sigma->0) =    -1222.28108845


--------------------------------------------------------------------------------------------------------




--------------------------------------- Iteration      1(   9)  ---------------------------------------


    EDDIAG:  cpu time    4.4061: real time    4.8275
  RMM-DIIS:  cpu time   19.5263: real time   19.5627
    ORTHCH:  cpu time    1.1517: real time    1.2357
       DOS:  cpu time    0.0020: real time    0.0020
    --------------------------------------------
      LOOP:  cpu time   25.0861: real time   25.6279

 eigenvalue-minimisations  : 21801
 total energy-change (2. order) : 0.9434559E+01  (-0.1346814E+02)
 number of electron     672.0000000 magnetization      48.0000000
 augmentation part      672.0000000 magnetization      48.0000000

 Free energy of the ion-electron system (eV)
  ---------------------------------------------------
  alpha Z        PSCENC =      2652.81237852
  Ewald energy   TEWEN  =    -42116.67054980
  -Hartree energ DENC   =    -25512.40527304
  -exchange      EXHF   =         0.00000000
  -V(xc)+E(xc)   XCENC  =      3604.84176941
  PAW double counting   =     55594.23204139   -59034.67079123
  entropy T*S    EENTRO =        -0.00000000
  eigenvalues    EBANDS =    -10263.18425193
  atomic energy  EATOM  =     73862.19814772
  Solvation  Ediel_sol  =         0.00000000
  ---------------------------------------------------
  free energy    TOTEN  =     -1212.84652896 eV

  energy without entropy =    -1212.84652896  energy(sigma->0) =    -1212.84652896


--------------------------------------------------------------------------------------------------------




--------------------------------------- Iteration      1(  10)  ---------------------------------------


    EDDIAG:  cpu time    4.4325: real time    4.8490
  RMM-DIIS:  cpu time   17.6182: real time   17.6438
    ORTHCH:  cpu time    1.1658: real time    1.2593
       DOS:  cpu time    0.0020: real time    0.0020
    --------------------------------------------
      LOOP:  cpu time   23.2186: real time   23.7542

 eigenvalue-minimisations  : 19562
 total energy-change (2. order) :-0.1971939E+01  (-0.5434186E+00)
 number of electron     672.0000000 magnetization      48.0000000
 augmentation part      672.0000000 magnetization      48.0000000

 Free energy of the ion-electron system (eV)
  ---------------------------------------------------
  alpha Z        PSCENC =      2652.81237852
  Ewald energy   TEWEN  =    -42116.67054980
  -Hartree energ DENC   =    -25512.40527304
  -exchange      EXHF   =         0.00000000
  -V(xc)+E(xc)   XCENC  =      3604.84176941
  PAW double counting   =     55594.23204139   -59034.67079123
  entropy T*S    EENTRO =        -0.00000003
  eigenvalues    EBANDS =    -10265.15619097
  atomic energy  EATOM  =     73862.19814772
  Solvation  Ediel_sol  =         0.00000000
  ---------------------------------------------------
  free energy    TOTEN  =     -1214.81846803 eV

  energy without entropy =    -1214.81846800  energy(sigma->0) =    -1214.81846801


--------------------------------------------------------------------------------------------------------




--------------------------------------- Iteration      1(  11)  ---------------------------------------


    EDDIAG:  cpu time    4.4067: real time    4.8295
  RMM-DIIS:  cpu time   20.2090: real time   20.2217
    ORTHCH:  cpu time    1.1643: real time    1.2571
       DOS:  cpu time    0.0031: real time    0.0031
    --------------------------------------------
      LOOP:  cpu time   25.7831: real time   26.3114

 eigenvalue-minimisations  : 22562
 total energy-change (2. order) : 0.7177969E-01  (-0.4444253E-01)
 number of electron     672.0000000 magnetization      48.0000000
 augmentation part      672.0000000 magnetization      48.0000000

 Free energy of the ion-electron system (eV)
  ---------------------------------------------------
  alpha Z        PSCENC =      2652.81237852
  Ewald energy   TEWEN  =    -42116.67054980
  -Hartree energ DENC   =    -25512.40527304
  -exchange      EXHF   =         0.00000000
  -V(xc)+E(xc)   XCENC  =      3604.84176941
  PAW double counting   =     55594.23204139   -59034.67079123
  entropy T*S    EENTRO =        -0.00000004
  eigenvalues    EBANDS =    -10265.08441128
  atomic energy  EATOM  =     73862.19814772
  Solvation  Ediel_sol  =         0.00000000
  ---------------------------------------------------
  free energy    TOTEN  =     -1214.74668834 eV

  energy without entropy =    -1214.74668831  energy(sigma->0) =    -1214.74668832


--------------------------------------------------------------------------------------------------------




--------------------------------------- Iteration      1(  12)  ---------------------------------------


    EDDIAG:  cpu time    4.4110: real time    4.8179
  RMM-DIIS:  cpu time   21.7391: real time   21.7606
    ORTHCH:  cpu time    1.1547: real time    1.2389
       DOS:  cpu time    0.0017: real time    0.0017
    CHARGE:  cpu time    1.7914: real time    1.8136
    MIXING:  cpu time    0.0010: real time    0.0011
    --------------------------------------------
      LOOP:  cpu time   29.0988: real time   29.6338

 eigenvalue-minimisations  : 24417
 total energy-change (2. order) :-0.9572990E-03  (-0.4451694E-02)
 number of electron     671.9999948 magnetization      48.0000005
 augmentation part      238.8888902 magnetization      29.0004819

 Broyden mixing:
  rms(total) = 0.12336E+02    rms(broyden)= 0.12326E+02
  rms(prec ) = 0.14241E+02
  weight for this iteration     100.00

 Free energy of the ion-electron system (eV)
  ---------------------------------------------------
  alpha Z        PSCENC =      2652.81237852
  Ewald energy   TEWEN  =    -42116.67054980
  -Hartree energ DENC   =    -25512.40527304
  -exchange      EXHF   =         0.00000000
  -V(xc)+E(xc)   XCENC  =      3604.84176941
  PAW double counting   =     55594.23204139   -59034.67079123
  entropy T*S    EENTRO =        -0.00000003
  eigenvalues    EBANDS =    -10265.08536858
  atomic energy  EATOM  =     73862.19814772
  Solvation  Ediel_sol  =         0.00000000
  ---------------------------------------------------
  free energy    TOTEN  =     -1214.74764564 eV

  energy without entropy =    -1214.74764561  energy(sigma->0) =    -1214.74764562


--------------------------------------------------------------------------------------------------------




--------------------------------------- Iteration      1(  13)  ---------------------------------------


    POTLOK:  cpu time    0.1699: real time    0.1704
    SETDIJ:  cpu time    4.9873: real time    4.9886
    EDDIAG:  cpu time    4.4071: real time    4.8280
  RMM-DIIS:  cpu time   17.2969: real time   17.3345
    ORTHCH:  cpu time    1.1533: real time    1.2361
       DOS:  cpu time    0.0019: real time    0.0019
    CHARGE:  cpu time    1.7878: real time    1.8129
    MIXING:  cpu time    0.0009: real time    0.0010
    --------------------------------------------
      LOOP:  cpu time   29.8052: real time   30.3735

 eigenvalue-minimisations  : 18750
 total energy-change (2. order) : 0.2251839E+03  (-0.1237983E+03)
 number of electron     671.9999994 magnetization      48.0000005
 augmentation part      269.9981902 magnetization      25.7435874

 Broyden mixing:
  rms(total) = 0.14284E+02    rms(broyden)= 0.14281E+02
  rms(prec ) = 0.16189E+02
  weight for this iteration     100.00

 eigenvalues of (default mixing * dielectric matrix)
  average eigenvalue GAMMA=   0.3115
  0.3115

 Free energy of the ion-electron system (eV)
  ---------------------------------------------------
  alpha Z        PSCENC =      2652.81237852
  Ewald energy   TEWEN  =    -42116.67054980
  -Hartree energ DENC   =    -24824.97429931
  -exchange      EXHF   =         0.00000000
  -V(xc)+E(xc)   XCENC  =      3694.52852989
  PAW double counting   =     59708.59234604   -63132.90574592
  entropy T*S    EENTRO =        -0.08613885
  eigenvalues    EBANDS =    -10833.05844746
  atomic energy  EATOM  =     73862.19814772
  Solvation  Ediel_sol  =         0.00000000
  ---------------------------------------------------
  free energy    TOTEN  =      -989.56377917 eV

  energy without entropy =     -989.47764032  energy(sigma->0) =     -989.52070974


--------------------------------------------------------------------------------------------------------




--------------------------------------- Iteration      1(  14)  ---------------------------------------


    POTLOK:  cpu time    0.1746: real time    0.1749
    SETDIJ:  cpu time    4.9711: real time    4.9754
    EDDIAG:  cpu time    4.4105: real time    4.8241
  RMM-DIIS:  cpu time   17.7041: real time   17.7429
    ORTHCH:  cpu time    1.1590: real time    1.2420
       DOS:  cpu time    0.0011: real time    0.0011
    CHARGE:  cpu time    1.8171: real time    1.8270
    MIXING:  cpu time    0.0008: real time    0.0008
    --------------------------------------------
      LOOP:  cpu time   30.2383: real time   30.7881

 eigenvalue-minimisations  : 19320
 total energy-change (2. order) : 0.7371453E+02  (-0.1883734E+02)
 number of electron     671.9999963 magnetization      48.0000008
 augmentation part      246.3100874 magnetization      32.0963187

 Broyden mixing:
  rms(total) = 0.51712E+01    rms(broyden)= 0.51664E+01
  rms(prec ) = 0.56420E+01
  weight for this iteration     100.00

 eigenvalues of (default mixing * dielectric matrix)
  average eigenvalue GAMMA=   0.7194
  1.0871  0.3516

 Free energy of the ion-electron system (eV)
  ---------------------------------------------------
  alpha Z        PSCENC =      2652.81237852
  Ewald energy   TEWEN  =    -42116.67054980
  -Hartree energ DENC   =    -25444.81732927
  -exchange      EXHF   =         0.00000000
  -V(xc)+E(xc)   XCENC  =      3670.53649027
  PAW double counting   =     63034.21232711   -66515.53472757
  entropy T*S    EENTRO =        -0.00000000
  eigenvalues    EBANDS =    -10058.58599054
  atomic energy  EATOM  =     73862.19814772
  Solvation  Ediel_sol  =         0.00000000
  ---------------------------------------------------
  free energy    TOTEN  =      -915.84925355 eV

  energy without entropy =     -915.84925355  energy(sigma->0) =     -915.84925355


--------------------------------------------------------------------------------------------------------




--------------------------------------- Iteration      1(  15)  ---------------------------------------


    POTLOK:  cpu time    0.1707: real time    0.1710
    SETDIJ:  cpu time    4.9825: real time    4.9836
    EDDIAG:  cpu time    4.3884: real time    4.8178
  RMM-DIIS:  cpu time   17.9821: real time   17.9975
    ORTHCH:  cpu time    1.1674: real time    1.2624
       DOS:  cpu time    0.0012: real time    0.0012
    CHARGE:  cpu time    1.8012: real time    1.8019
    MIXING:  cpu time    0.0014: real time    0.0014
    --------------------------------------------
      LOOP:  cpu time   30.4948: real time   31.0368

 eigenvalue-minimisations  : 20164
 total energy-change (2. order) : 0.1518007E+02  (-0.2280357E+01)
 number of electron     671.9999969 magnetization      48.0000011
 augmentation part      249.7352673 magnetization      33.8714719

 Broyden mixing:
  rms(total) = 0.21268E+01    rms(broyden)= 0.21264E+01
  rms(prec ) = 0.22011E+01
  weight for this iteration     100.00

 eigenvalues of (default mixing * dielectric matrix)
  average eigenvalue GAMMA=   0.9324
  0.3718  0.7616  1.6639

 Free energy of the ion-electron system (eV)
  ---------------------------------------------------
  alpha Z        PSCENC =      2652.81237852
  Ewald energy   TEWEN  =    -42116.67054980
  -Hartree energ DENC   =    -25349.91509770
  -exchange      EXHF   =         0.00000000
  -V(xc)+E(xc)   XCENC  =      3704.77276242
  PAW double counting   =     67005.46749277   -70526.59956488
  entropy T*S    EENTRO =        -0.00000000
  eigenvalues    EBANDS =    -10132.73475613
  atomic energy  EATOM  =     73862.19814772
  Solvation  Ediel_sol  =         0.00000000
  ---------------------------------------------------
  free energy    TOTEN  =      -900.66918707 eV

  energy without entropy =     -900.66918707  energy(sigma->0) =     -900.66918707


--------------------------------------------------------------------------------------------------------




--------------------------------------- Iteration      1(  16)  ---------------------------------------


    POTLOK:  cpu time    0.1678: real time    0.1680
    SETDIJ:  cpu time    5.5842: real time    5.5864
    EDDIAG:  cpu time    4.4757: real time    4.8880
  RMM-DIIS:  cpu time   17.6473: real time   17.6663
    ORTHCH:  cpu time    1.1578: real time    1.2388
       DOS:  cpu time    0.0011: real time    0.0011
    CHARGE:  cpu time    1.8023: real time    1.8030
    MIXING:  cpu time    0.0009: real time    0.0010
    --------------------------------------------
      LOOP:  cpu time   30.8372: real time   31.3526

 eigenvalue-minimisations  : 19186
 total energy-change (2. order) :-0.1669174E+01  (-0.6338508E+00)
 number of electron     671.9999968 magnetization      48.0000013
 augmentation part      251.1721713 magnetization      33.9813970

 Broyden mixing:
  rms(total) = 0.14625E+01    rms(broyden)= 0.14620E+01
  rms(prec ) = 0.15572E+01
  weight for this iteration     100.00

 eigenvalues of (default mixing * dielectric matrix)
  average eigenvalue GAMMA=   0.9653
  2.0433  0.9114  0.3774  0.5290

 Free energy of the ion-electron system (eV)
  ---------------------------------------------------
  alpha Z        PSCENC =      2652.81237852
  Ewald energy   TEWEN  =    -42116.67054980
  -Hartree energ DENC   =    -25299.52473489
  -exchange      EXHF   =         0.00000000
  -V(xc)+E(xc)   XCENC  =      3705.39107594
  PAW double counting   =     69775.19697935   -73325.26288339
  entropy T*S    EENTRO =        -0.00000000
  eigenvalues    EBANDS =    -10156.47877459
  atomic energy  EATOM  =     73862.19814772
  Solvation  Ediel_sol  =         0.00000000
  ---------------------------------------------------
  free energy    TOTEN  =      -902.33836114 eV

  energy without entropy =     -902.33836114  energy(sigma->0) =     -902.33836114


--------------------------------------------------------------------------------------------------------




--------------------------------------- Iteration      1(  17)  ---------------------------------------


    POTLOK:  cpu time    0.1708: real time    0.1709
    SETDIJ:  cpu time    5.0445: real time    5.0467
    EDDIAG:  cpu time    4.4413: real time    4.8606
  RMM-DIIS:  cpu time   18.1651: real time   18.1901
    ORTHCH:  cpu time    1.1520: real time    1.2377
       DOS:  cpu time    0.0011: real time    0.0011
    CHARGE:  cpu time    1.7985: real time    1.7997
    MIXING:  cpu time    0.0021: real time    0.0021
    --------------------------------------------
      LOOP:  cpu time   30.7755: real time   31.3088

 eigenvalue-minimisations  : 20255
 total energy-change (2. order) : 0.1470229E+00  (-0.7052249E-01)
 number of electron     671.9999969 magnetization      48.0000014
 augmentation part      251.1074906 magnetization      33.9976943

 Broyden mixing:
  rms(total) = 0.80002E+00    rms(broyden)= 0.79988E+00
  rms(prec ) = 0.90606E+00
  weight for this iteration     100.00

 eigenvalues of (default mixing * dielectric matrix)
  average eigenvalue GAMMA=   0.9884
  2.2026  1.1234  0.3696  0.6906  0.5557

 Free energy of the ion-electron system (eV)
  ---------------------------------------------------
  alpha Z        PSCENC =      2652.81237852
  Ewald energy   TEWEN  =    -42116.67054980
  -Hartree energ DENC   =    -25291.06180071
  -exchange      EXHF   =         0.00000000
  -V(xc)+E(xc)   XCENC  =      3702.92359247
  PAW double counting   =     70674.02769035   -74233.04627642
  entropy T*S    EENTRO =        -0.00000000
  eigenvalues    EBANDS =    -10153.37452040
  atomic energy  EATOM  =     73862.19814772
  Solvation  Ediel_sol  =         0.00000000
  ---------------------------------------------------
  free energy    TOTEN  =      -902.19133828 eV

  energy without entropy =     -902.19133828  energy(sigma->0) =     -902.19133828


--------------------------------------------------------------------------------------------------------




--------------------------------------- Iteration      1(  18)  ---------------------------------------


    POTLOK:  cpu time    0.1679: real time    0.1680
    SETDIJ:  cpu time    5.0076: real time    5.0099
    EDDIAG:  cpu time    4.4292: real time    4.8439
  RMM-DIIS:  cpu time   17.9533: real time   17.9812
    ORTHCH:  cpu time    1.1534: real time    1.2349
       DOS:  cpu time    0.0028: real time    0.0028
    CHARGE:  cpu time    1.7989: real time    1.8033
    MIXING:  cpu time    0.0011: real time    0.0011
    --------------------------------------------
      LOOP:  cpu time   30.5141: real time   31.0451

 eigenvalue-minimisations  : 19119
 total energy-change (2. order) : 0.4337293E+00  (-0.6837600E-01)
 number of electron     671.9999968 magnetization      48.0000014
 augmentation part      250.5954376 magnetization      33.9645785

 Broyden mixing:
  rms(total) = 0.31402E+00    rms(broyden)= 0.31377E+00
  rms(prec ) = 0.33288E+00
  weight for this iteration     100.00

 eigenvalues of (default mixing * dielectric matrix)
  average eigenvalue GAMMA=   1.0121
  2.4422  1.3522  0.8600  0.5893  0.3709  0.4583

 Free energy of the ion-electron system (eV)
  ---------------------------------------------------
[...]
   4      -0.808    -0.737     1.545    -0.107    -0.393    -0.247
   5      -0.924    -0.854     1.778     0.040     0.039     0.055
   6      -0.750    -0.615     1.364    -0.112     0.438     0.129
   7      -0.990    -0.847     1.836     0.008     0.081    -0.206
   8      -1.040    -0.906     1.946     0.036     0.046    -0.010
   9      -0.971    -0.945     1.915    -0.080     0.021    -0.051
  10      -0.909    -0.700     1.610     0.085    -0.472     0.278
  11      -0.760    -0.950     1.710     0.057     0.076    -0.562
  12      -0.714    -0.637     1.351     0.212     0.306    -0.106
  13      -0.614    -0.842     1.456     0.011     0.009     0.501
  14      -0.793    -0.606     1.398    -0.081    -0.544    -0.276
  15      -0.741    -0.637     1.377     0.107    -0.379     0.255
  16      -0.798    -0.735     1.532    -0.087     0.326     0.274
  17       1.401     1.490    -2.891    -0.027    -0.081     0.034
  18       1.432     1.398    -2.830    -0.053     0.000    -0.033
  19       1.463     1.397    -2.860     0.039     0.003    -0.063
  20       1.345     1.542    -2.887    -0.096    -0.054    -0.149
  21       1.328     1.618    -2.945     0.105    -0.077     0.074
  22       1.489     1.325    -2.814     0.086    -0.084     0.079
  23       1.570     1.415    -2.984    -0.051     0.049    -0.003
  24       1.443     1.470    -2.914     0.094     0.091     0.089
  25      -1.763    -0.384     2.147     1.819    -0.259    -0.576
  26       1.155    -0.877    -0.278     0.783    -1.025    -0.290
  27       0.267     0.830    -1.097     0.777     0.510     0.576
  28       0.850    -0.564    -0.286     0.662     0.066    -0.046
  29      -0.200    -0.450     0.650    -0.417    -1.504     1.577
  30      -0.619    -0.076     0.695     0.263     0.084    -0.587
  31       0.734    -1.882     1.149     1.211     0.039     0.897
  32       2.023    -1.072    -0.951     1.490    -0.729     0.313
  33      -0.178     0.022     0.156    -0.363    -0.286    -0.380
  34       0.168    -0.922     0.754     0.192     0.632    -0.124
  35      -1.456     0.098     1.358     0.206     0.590    -1.370
  36       0.512    -0.782     0.270    -0.800     0.249     0.338
  37      -0.721     0.099     0.622    -0.353    -0.621    -1.242
  38       0.865    -0.231    -0.634    -0.047    -0.167     0.759
  39       1.764    -0.678    -1.086    -0.611    -0.147     0.570
  40      -0.886     0.390     0.495    -0.402    -1.112    -0.458
  41      -3.680     2.518     1.161    -4.590     2.634    -4.661
  42      -3.798     0.517     3.282     5.379     3.227     4.765
  43       6.311    -5.950    -0.361     0.346    -4.582     0.397
  44      -3.841     3.950    -0.108     4.789    -1.571    -4.415
  45      -2.967     1.375     1.592    -4.398    -1.123     4.325
  46       5.545    -6.024     0.479     0.299     4.578     1.669
  47       0.388     0.379    -0.767    -5.687    -0.270    -2.967
  48       5.592    -6.069     0.477    -1.047    -5.215     0.275
  49      -3.090     2.685     0.405     3.858     3.148     3.658
  50       5.818    -4.645    -1.173     1.381     4.558    -0.159
  51      -2.407     1.128     1.279    -5.638    -4.302     4.697
  52      -3.174     2.722     0.452     5.064    -1.422    -4.303
  53      -1.540     1.149     0.391    -6.067     1.392    -3.791
  54      -5.092     3.287     1.805     6.171     3.888     4.305
  55       5.256    -4.050    -1.206    -0.862    -4.404     1.017
  56      -3.951     1.567     2.384     4.778    -3.498    -5.283
  57      -3.438     2.724     0.714    -5.551    -2.542     4.432
  58       7.732    -7.667    -0.066     0.710     4.928     2.011
  59      -1.988     0.327     1.661    -4.479     3.151    -4.809
  60       5.286    -7.006     1.719    -0.993    -5.115    -0.856
  61      -2.691     2.471     0.220     4.921     3.560     3.746
  62       8.028    -6.348    -1.680     1.914     4.133     1.462
  63      -2.655     3.303    -0.647    -4.280    -2.832     4.606
  64      -0.869     1.917    -1.048     5.145    -2.367    -3.711
  65      -2.281     1.869     0.412    -4.570     1.371    -4.444
  66      -2.584     2.680    -0.096     3.565     2.226     4.356
  67       4.639    -6.187     1.547     1.466    -5.610    -0.222
  68      -4.870     3.330     1.540     3.657    -2.170    -4.520
  69      -3.573     2.878     0.695    -5.685    -2.117     4.167
  70       5.004    -6.054     1.050    -0.106     5.568    -0.023
  71      -3.649     2.324     1.325    -4.757     3.075    -3.949
  72       4.315    -5.550     1.235     1.486    -4.233    -0.006
  73      -4.019     1.386     2.633     5.245     2.342     4.481
  74       5.521    -4.925    -0.596    -1.120     4.388     0.695
  75      -2.354     2.925    -0.571    -5.407    -1.867     2.787
  76      -4.420     5.014    -0.594     4.512    -0.956    -3.956
  77      -2.712     2.639     0.072    -4.210     2.653    -3.249
  78      -2.859     2.338     0.520     4.613     2.124     3.141
  79       5.105    -6.501     1.396    -0.451    -5.787     1.413
  80      -2.449     0.310     2.139     5.208    -2.772    -2.559
  81      -2.351     1.627     0.723    -4.854    -3.777     2.382
  82       3.519    -6.320     2.801    -1.085     4.001    -1.236
  83      -4.124     2.113     2.011    -4.052     2.589    -4.814
  84       6.365    -5.693    -0.672    -0.231    -4.425     1.885
  85      -3.332     1.381     1.951     4.950     1.630     5.295
  86       5.315    -6.242     0.926    -0.823     4.343     0.029
  87      -3.676     3.261     0.415    -3.258    -3.441     2.403
  88      -3.881     3.443     0.438     6.343    -1.375    -5.559
 ---------------------------------------------------------------------


 Total hyperfine coupling parameters after diagonalization (MHz)
 (convention: |A_zz| > |A_xx| > |A_yy|)
 ----------------------------------------------------------------------
  ion      A_xx      A_yy      A_zz     asymmetry (A_yy - A_xx)/ A_zz 
 ----------------------------------------------------------------------
   1       2.022     1.798     4.499      -0.050
   2       1.907     1.560     4.048      -0.086
   3       1.139     0.986     2.894      -0.053
   4       1.856     1.546     4.148      -0.075
   5       1.378     1.274     3.995      -0.026
   6       1.147     0.800     3.158      -0.110
   7       1.028     0.895     3.743      -0.035
   8      -0.773    -0.621     2.223       0.068
   9      -0.305    -0.143     2.650       0.061
  10       1.897     1.521     4.293      -0.088
  11       1.971     1.638     4.542      -0.073
  12       1.084     0.620     2.949      -0.157
  13       1.881     1.548     4.055      -0.082
  14       1.383     0.981     3.514      -0.114
  15       1.633     1.304     3.672      -0.090
  16       2.187     1.930     4.468      -0.058
  17      13.022     8.735    13.126      -0.327
  18      13.784     9.594    13.895      -0.302
  19      13.086     8.844    13.186      -0.322
  20      13.489     9.287    13.764      -0.305
  21      13.899     9.656    14.256      -0.298
  22      12.968     8.860    13.204      -0.311
  23      14.810    10.426    14.995      -0.292
  24      13.941     9.662    14.134      -0.303
  25      97.934    94.293    99.716      -0.037
  26      95.124    94.756    97.841      -0.004
  27      97.326    96.276    99.190      -0.011
  28      96.181    95.627    97.573      -0.006
  29      96.190    95.078    99.486      -0.011
  30      97.544    96.955    98.770      -0.006
  31     102.038    98.586   102.759      -0.034
  32      92.249    90.966    95.674      -0.013
  33      97.480    96.550    97.729      -0.010
  34      96.735    95.910    98.058      -0.008
  35      97.465    96.253   100.275      -0.012
  36      96.768    95.125    97.304      -0.017
  37     100.521    99.189   102.345      -0.013
  38      94.921    93.380    95.509      -0.016
  39      94.692    93.616    97.055      -0.011
  40      96.121    93.966    96.809      -0.022
  41      -1.862     1.645    13.000       0.270
  42       5.853     0.469    17.394      -0.310
  43       5.659     2.244    16.917      -0.202
  44       3.192    -0.453    14.419      -0.253
  45       3.936    -0.728    12.625      -0.369
  46       6.194     1.537    16.361      -0.285
  47       6.477     0.466    13.364      -0.450
  48       5.393     1.967    17.051      -0.201
  49       3.567     0.434    13.514      -0.232
  50       3.155     1.151    14.412      -0.139
  51       4.588     1.209    17.783      -0.190
  52       5.879     1.576    16.023      -0.269
  53       4.961    -0.438    14.230      -0.379
  54       6.255    -0.633    18.290      -0.377
  55       6.011     4.743    16.802      -0.075
  56       4.838     1.121    17.615      -0.211
  57       5.602     1.293    17.102      -0.252
  58       7.194     1.070    19.502      -0.314
  59       2.455    -0.007    14.071      -0.175
  60       9.258     3.561    19.799      -0.288
  61       4.026     0.615    15.132      -0.225
  62       4.635     0.888    17.576      -0.213
  63       3.257     1.959    15.606      -0.083
  64       3.558     1.793    14.654      -0.120
  65       5.471     1.890    15.135      -0.237
  66       2.398     1.222    13.197      -0.089
  67       4.174     0.332    15.789      -0.243
  68       5.160     0.950    15.625      -0.269
  69       8.403     3.469    19.223      -0.257
  70       5.393     2.219    17.211      -0.184
  71       5.309     0.950    15.759      -0.277
  72       5.900     1.618    14.852      -0.288
  73       6.105     0.392    16.373      -0.349
  74      -2.584     0.487    10.721       0.286
  75       5.322     1.521    14.923      -0.255
  76       4.508     0.488    15.389      -0.261
  77       6.866     3.809    16.312      -0.187
  78       3.822    -0.130    12.622      -0.313
  79       5.377     1.227    17.428      -0.238
  80       7.141     1.230    14.857      -0.398
  81       6.344     1.380    15.045      -0.330
  82       6.096     0.426    14.320      -0.396
  83       5.739     2.110    16.859      -0.215
  84       6.607     2.258    17.295      -0.251
  85       2.659    -2.151    13.424      -0.358
  86       6.312     1.693    16.033      -0.288
  87       4.658    -0.651    12.005      -0.442
  88       4.977    -0.665    17.515      -0.322
 ---------------------------------------------------------------------



--------------------------------------------------------------------------------------------------------


 stress matrix after NEB project (eV)
    -51.96966     -0.56116      0.89454
     -0.58177    -50.90222     -0.00299
      0.86710     -0.01024    -68.97991
  FORCES: max atom, RMS     2.520454    1.155184
  FORCE total and by dimension   10.836588    2.453154
  Stress total and by dimension  100.261233   68.979905
     LOOP+:  cpu time  813.4280: real time  830.2020
    4ORBIT:  cpu time    0.0000: real time    0.0000
 


 total charge     
 
# of ion       s       p       d       tot
------------------------------------------
    1        0.055   5.999   0.000   6.054
    2        0.051   5.994   0.000   6.046
    3        0.050   5.993   0.000   6.044
    4        0.051   5.993   0.000   6.044
    5        0.045   5.989   0.000   6.034
    6        0.051   5.994   0.000   6.046
    7        0.051   5.996   0.000   6.047
    8        0.051   5.995   0.000   6.046
    9        0.054   6.000   0.000   6.053
   10        0.050   5.992   0.000   6.042
   11        0.054   5.996   0.000   6.050
   12        0.053   5.997   0.000   6.050
   13        0.052   5.994   0.000   6.046
   14        0.053   5.997   0.000   6.050
   15        0.053   5.996   0.000   6.049
   16        0.049   5.989   0.000   6.038
   17        0.148   6.128   0.084   6.360
   18        0.145   6.121   0.078   6.344
   19        0.151   6.131   0.086   6.369
   20        0.150   6.129   0.084   6.362
   21        0.150   6.130   0.085   6.365
   22        0.146   6.122   0.079   6.347
   23        0.151   6.133   0.088   6.372
   24        0.149   6.127   0.083   6.358
   25        0.375   6.445   4.840  11.660
   26        0.357   6.419   4.788  11.564
   27        0.368   6.439   4.814  11.621
   28        0.377   6.459   4.830  11.665
   29        0.375   6.451   4.829  11.655
   30        0.375   6.454   4.830  11.659
   31        0.368   6.438   4.822  11.629
   32        0.380   6.465   4.841  11.685
   33        0.360   6.422   4.795  11.577
   34        0.378   6.464   4.832  11.674
   35        0.360   6.423   4.792  11.575
   36        0.372   6.450   4.816  11.638
   37        0.364   6.431   4.817  11.612
   38        0.373   6.450   4.822  11.645
   39        0.381   6.468   4.845  11.693
   40        0.372   6.452   4.817  11.641
   41        1.598   3.473   0.000   5.070
   42        1.603   3.503   0.000   5.106
   43        1.597   3.471   0.000   5.068
   44        1.598   3.486   0.000   5.084
   45        1.597   3.499   0.000   5.095
   46        1.597   3.501   0.000   5.098
   47        1.596   3.499   0.000   5.095
   48        1.598   3.486   0.000   5.083
   49        1.597   3.484   0.000   5.081
   50        1.600   3.495   0.000   5.094
   51        1.602   3.490   0.000   5.092
   52        1.599   3.523   0.000   5.122
   53        1.598   3.518   0.000   5.116
   54        1.605   3.500   0.000   5.105
   55        1.601   3.502   0.000   5.102
   56        1.599   3.480   0.000   5.079
   57        1.602   3.498   0.000   5.100
   58        1.601   3.486   0.000   5.087
   59        1.600   3.478   0.000   5.077
   60        1.602   3.511   0.000   5.114
   61        1.599   3.495   0.000   5.093
   62        1.602   3.528   0.000   5.130
   63        1.603   3.483   0.000   5.086
   64        1.600   3.479   0.000   5.079
   65        1.600   3.522   0.000   5.122
   66        1.596   3.475   0.000   5.071
   67        1.600   3.508   0.000   5.107
   68        1.598   3.519   0.000   5.117
   69        1.599   3.511   0.000   5.110
   70        1.604   3.533   0.000   5.137
   71        1.601   3.522   0.000   5.122
   72        1.600   3.525   0.000   5.125
   73        1.601   3.502   0.000   5.104
   74        1.597   3.462   0.000   5.059
   75        1.596   3.477   0.000   5.074
   76        1.598   3.490   0.000   5.088
   77        1.599   3.517   0.000   5.116
   78        1.595   3.495   0.000   5.090
   79        1.601   3.497   0.000   5.098
   80        1.598   3.531   0.000   5.129
   81        1.597   3.505   0.000   5.101
   82        1.598   3.508   0.000   5.106
   83        1.601   3.519   0.000   5.121
   84        1.598   3.486   0.000   5.084
   85        1.598   3.482   0.000   5.080
   86        1.598   3.522   0.000   5.121
   87        1.595   3.478   0.000   5.073
   88        1.603   3.501   0.000   5.104
--------------------------------------------------
tot         84.711 416.014  77.797 578.522
 


 magnetization (x)
 
# of ion       s       p       d       tot
------------------------------------------
    1        0.002   0.000   0.000   0.002
    2        0.002   0.000   0.000   0.002
    3        0.001   0.001   0.000   0.002
    4        0.002   0.000   0.000   0.002
    5        0.002   0.001   0.000   0.003
    6        0.001   0.000   0.000   0.001
    7        0.001   0.001   0.000   0.002
    8        0.000   0.000   0.000   0.000
    9        0.000   0.000   0.000   0.001
   10        0.002   0.000   0.000   0.002
   11        0.002   0.000   0.000   0.002
   12        0.001   0.000   0.000   0.001
   13        0.002   0.000   0.000   0.002
   14        0.001  -0.000   0.000   0.001
   15        0.002   0.000   0.000   0.002
   16        0.002   0.000   0.000   0.002
   17        0.007   0.002   0.001   0.010
   18        0.007   0.002   0.001   0.010
   19        0.007   0.002   0.001   0.010
   20        0.007   0.002   0.001   0.010
   21        0.007   0.002   0.001   0.010
   22        0.007   0.002   0.001   0.010
   23        0.007   0.003   0.001   0.011
   24        0.007   0.002   0.001   0.011
   25        0.015   0.029   2.733   2.778
   26        0.015   0.028   2.800   2.843
   27        0.015   0.030   2.760   2.805
   28        0.016   0.030   2.750   2.796
   29        0.015   0.029   2.760   2.805
   30        0.016   0.031   2.751   2.798
   31        0.016   0.031   2.776   2.823
   32        0.014   0.029   2.733   2.776
   33        0.015   0.029   2.801   2.845
   34        0.015   0.030   2.749   2.794
   35        0.015   0.029   2.808   2.853
   36        0.015   0.031   2.765   2.811
   37        0.016   0.029   2.784   2.829
   38        0.015   0.029   2.758   2.802
   39        0.015   0.030   2.746   2.791
   40        0.015   0.030   2.763   2.809
   41        0.002   0.005   0.000   0.006
   42        0.002   0.036   0.000   0.038
   43        0.002   0.030   0.000   0.033
   44        0.002   0.022   0.000   0.023
   45        0.002   0.013   0.000   0.015
   46        0.002   0.036   0.000   0.038
   47        0.002   0.023   0.000   0.025
   48        0.002   0.037   0.000   0.039
   49        0.002   0.012   0.000   0.014
   50        0.002   0.022   0.000   0.024
   51        0.002   0.033   0.000   0.036
   52        0.002   0.034   0.000   0.036
   53        0.002   0.033   0.000   0.035
   54        0.002   0.039   0.000   0.041
   55        0.003   0.027   0.000   0.030
   56        0.002   0.027   0.000   0.029
   57        0.002   0.039   0.000   0.041
   58        0.002   0.051   0.000   0.053
   59        0.002   0.007   0.000   0.009
   60        0.003   0.063   0.000   0.065
   61        0.002   0.025   0.000   0.026
   62        0.002   0.038   0.000   0.040
   63        0.002   0.017   0.000   0.019
   64        0.002   0.013   0.000   0.015
   65        0.002   0.036   0.000   0.038
   66        0.002   0.012   0.000   0.014
   67        0.002   0.035   0.000   0.036
   68        0.002   0.035   0.000   0.037
   69        0.003   0.058   0.000   0.061
   70        0.002   0.039   0.000   0.041
   71        0.002   0.032   0.000   0.034
   72        0.002   0.032   0.000   0.034
   73        0.002   0.036   0.000   0.038
   74        0.001  -0.013   0.000  -0.012
   75        0.002   0.028   0.000   0.030
   76        0.002   0.025   0.000   0.027
   77        0.002   0.041   0.000   0.044
   78        0.001   0.020   0.000   0.021
   79        0.002   0.042   0.000   0.044
   80        0.002   0.052   0.000   0.054
   81        0.002   0.028   0.000   0.030
   82        0.002   0.033   0.000   0.034
   83        0.002   0.041   0.000   0.043
   84        0.002   0.041   0.000   0.043
   85        0.001   0.010   0.000   0.011
   86        0.002   0.042   0.000   0.044
   87        0.002   0.011   0.000   0.013
   88        0.002   0.041   0.000   0.043
--------------------------------------------------
tot          0.417   1.936  44.248  46.601
 

 total amount of memory used by VASP MPI-rank0    94427. kBytes
=======================================================================

   base      :      30000. kBytes
   nonlr-proj:      13668. kBytes
   fftplans  :       1275. kBytes
   grid      :      22786. kBytes
   one-center:       2737. kBytes
   wavefun   :      23961. kBytes
 
  
  
 General timing and accounting informations for this job:
 ========================================================
  
                  Total CPU time used (sec):      834.703
                            User time (sec):      825.847
                          System time (sec):        8.856
                         Elapsed time (sec):      854.002
  
                   Maximum memory used (kb):      193164.
                   Average memory used (kb):           0.
  
                          Minor page faults:       326876
                          Major page faults:            0
                 Voluntary context switches:       294784
