 vasp.5.4.4.18Apr17-6-g9f103f2a35 (build Dec 02 2020 12:53:39) complex          
  
 executed on             LinuxIFC date 2021.08.05  00:12:54
 running on   96 total cores
 distrk:  each k-point on   96 cores,    1 groups
 distr:  one band on NCORES_PER_BAND=   1 cores,   96 groups


--------------------------------------------------------------------------------------------------------


 INCAR:
 POTCAR:    PAW_PBE Na_pv 19Sep2006               
 POTCAR:    PAW_PBE Mg_pv 13Apr2007               
 POTCAR:    PAW_PBE Mn_pv 02Aug2007               
 POTCAR:    PAW_PBE O 08Apr2002                   

 ----------------------------------------------------------------------------- 
|                                                                             |
|           W    W    AA    RRRRR   N    N  II  N    N   GGGG   !!!           |
|           W    W   A  A   R    R  NN   N  II  NN   N  G    G  !!!           |
|           W    W  A    A  R    R  N N  N  II  N N  N  G       !!!           |
|           W WW W  AAAAAA  RRRRR   N  N N  II  N  N N  G  GGG   !            |
|           WW  WW  A    A  R   R   N   NN  II  N   NN  G    G                |
|           W    W  A    A  R    R  N    N  II  N    N   GGGG   !!!           |
|                                                                             |
|      For optimal performance we recommend to set                            |
|        NCORE= 4 - approx SQRT( number of cores)                             |
|      NCORE specifies how many cores store one orbital (NPAR=cpu/NCORE).     |
|      This setting can  greatly improve the performance of VASP for DFT.     |
|      The default,   NCORE=1            might be grossly inefficient         |
|      on modern multi-core architectures or massively parallel machines.     |
|      Do your own testing !!!!                                               |
|      Unfortunately you need to use the default for GW and RPA calculations. |
|      (for HF NCORE is supported but not extensively tested yet)             |
|                                                                             |
 ----------------------------------------------------------------------------- 

 POTCAR:    PAW_PBE Na_pv 19Sep2006               
   VRHFIN =Na: p6s1                                                             
   LEXCH  = PE                                                                  
   EATOM  =   766.0439 eV,   56.3026 Ry                                         
                                                                                
   TITEL  = PAW_PBE Na_pv 19Sep2006                                             
   LULTRA =        F    use ultrasoft PP ?                                      
   IUNSCR =        1    unscreen: 0-lin 1-nonlin 2-no                           
   RPACOR =    1.800    partial core radius                                     
   POMASS =   22.990; ZVAL   =    7.000    mass and valenz                      
   RCORE  =    2.200    outmost cutoff radius                                   
   RWIGS  =    2.200; RWIGS  =    1.164    wigner-seitz radius (au A)           
   ENMAX  =  259.561; ENMIN  =  194.671 eV                                      
   ICORE  =        2    local potential                                         
   LCOR   =        T    correct aug charges                                     
   LPAW   =        T    paw PP                                                  
   EAUG   =  368.056                                                            
   DEXC   =    0.000                                                            
   RMAX   =    2.245    core radius for proj-oper                               
   RAUG   =    1.300    factor for augmentation sphere                          
   RDEP   =    2.259    radius for radial grids                                 
   RDEPT  =    1.738    core radius for aug-charge                              
                                                                                
   Atomic configuration                                                         
    5 entries                                                                   
     n  l   j            E        occ.                                          
     1  0  0.50     -1033.6933   2.0000                                         
     2  0  0.50       -56.7526   2.0000                                         
     2  1  1.50       -28.6721   6.0000                                         
     3  0  0.50        -2.7440   1.0000                                         
     3  2  1.50        -1.3606   0.0000                                         
   Description                                                                  
     l       E           TYP  RCUT    TYP  RCUT                                 
     1    -28.6720912     23  2.000                                             
     1      6.8029130     23  2.000                                             
     0     -2.7439560     23  2.200                                             
     0     34.0145650     23  2.200                                             
     2     -1.3605826     23  2.200                                             
  local pseudopotential read in
  partial core-charges read in
  partial kinetic energy density read in
  atomic valenz-charges read in
  non local Contribution for L=           1  read in
    real space projection operators read in
  non local Contribution for L=           1  read in
    real space projection operators read in
  non local Contribution for L=           0  read in
    real space projection operators read in
  non local Contribution for L=           0  read in
    real space projection operators read in
    PAW grid and wavefunctions read in
 
   number of l-projection  operators is LMAX  =           4
   number of lm-projection operators is LMMAX =           8
 
 POTCAR:    PAW_PBE Mg_pv 13Apr2007               
   VRHFIN =Mg: p6s2                                                             
   LEXCH  = PE                                                                  
   EATOM  =  1056.7344 eV,   77.6678 Ry                                         
                                                                                
   TITEL  = PAW_PBE Mg_pv 13Apr2007                                             
   LULTRA =        F    use ultrasoft PP ?                                      
   IUNSCR =        1    unscreen: 0-lin 1-nonlin 2-no                           
   RPACOR =    1.500    partial core radius                                     
   POMASS =   24.305; ZVAL   =    8.000    mass and valenz                      
   RCORE  =    2.000    outmost cutoff radius                                   
   RWIGS  =    2.000; RWIGS  =    1.058    wigner-seitz radius (au A)           
   ENMAX  =  403.929; ENMIN  =  302.947 eV                                      
   RCLOC  =    1.506    cutoff for local pot                                    
   LCOR   =        T    correct aug charges                                     
   LPAW   =        T    paw PP                                                  
   EAUG   =  758.780                                                            
   DEXC   =    0.000                                                            
   RMAX   =    2.045    core radius for proj-oper                               
   RAUG   =    1.300    factor for augmentation sphere                          
   RDEP   =    2.025    radius for radial grids                                 
   RDEPT  =    1.557    core radius for aug-charge                              
                                                                                
   Atomic configuration                                                         
    5 entries                                                                   
     n  l   j            E        occ.                                          
     1  0  0.50     -1259.6230   2.0000                                         
     2  0  0.50       -79.8442   2.0000                                         
     2  1  1.50       -46.6121   6.0000                                         
     3  0  0.50        -4.7055   2.0000                                         
     3  2  1.50        -1.3606   0.0000                                         
   Description                                                                  
     l       E           TYP  RCUT    TYP  RCUT                                 
     1    -46.6121073     23  1.600                                             
     1      2.7211652     23  1.600                                             
     0     -4.7054661     23  2.000                                             
     0     61.2262170     23  2.000                                             
     2     -1.3605826     23  2.000                                             
  local pseudopotential read in
  partial core-charges read in
  partial kinetic energy density read in
  atomic valenz-charges read in
  non local Contribution for L=           1  read in
    real space projection operators read in
  non local Contribution for L=           1  read in
    real space projection operators read in
  non local Contribution for L=           0  read in
    real space projection operators read in
  non local Contribution for L=           0  read in
    real space projection operators read in
  non local Contribution for L=           2  read in
    real space projection operators read in
    PAW grid and wavefunctions read in
 
   number of l-projection  operators is LMAX  =           5
   number of lm-projection operators is LMMAX =          13
 
 POTCAR:    PAW_PBE Mn_pv 02Aug2007               
   VRHFIN =Mn: 3p4s3d                                                           
   LEXCH  = PE                                                                  
   EATOM  =  2025.2664 eV,  148.8529 Ry                                         
                                                                                
   TITEL  = PAW_PBE Mn_pv 02Aug2007                                             
   LULTRA =        F    use ultrasoft PP ?                                      
   IUNSCR =        1    unscreen: 0-lin 1-nonlin 2-no                           
   RPACOR =    2.080    partial core radius                                     
   POMASS =   54.938; ZVAL   =   13.000    mass and valenz                      
   RCORE  =    2.300    outmost cutoff radius                                   
   RWIGS  =    2.500; RWIGS  =    1.323    wigner-seitz radius (au A)           
   ENMAX  =  269.864; ENMIN  =  202.398 eV                                      
   ICORE  =        3    local potential                                         
   LCOR   =        T    correct aug charges                                     
   LPAW   =        T    paw PP                                                  
   EAUG   =  569.085                                                            
   DEXC   =    0.000                                                            
   RMAX   =    2.343    core radius for proj-oper                               
   RAUG   =    1.300    factor for augmentation sphere                          
   RDEP   =    2.338    radius for radial grids                                 
   RDEPT  =    1.798    core radius for aug-charge                              
                                                                                
   Atomic configuration                                                         
    8 entries                                                                   
     n  l   j            E        occ.                                          
     1  0  0.50     -6424.8287   2.0000                                         
     2  0  0.50      -739.1154   2.0000                                         
     2  1  1.50      -625.3949   6.0000                                         
     3  0  0.50       -81.6100   2.0000                                         
     3  1  1.50       -50.4667   6.0000                                         
     3  2  2.50        -3.3745   6.0000                                         
     4  0  0.50        -4.1331   1.0000                                         
     4  3  2.50        -1.3606   0.0000                                         
   Description                                                                  
     l       E           TYP  RCUT    TYP  RCUT                                 
     1    -50.4666628     23  2.000                                             
     1     -1.3605826     23  2.000                                             
     2     -3.3744729     23  2.300                                             
     2     -4.7350555     23  2.300                                             
     0     -4.1331431     23  2.300                                             
     0      7.6656591     23  2.300                                             
     3      9.5240782     23  2.300                                             
  local pseudopotential read in
  partial core-charges read in
  partial kinetic energy density read in
  atomic valenz-charges read in
  non local Contribution for L=           1  read in
    real space projection operators read in
  non local Contribution for L=           1  read in
    real space projection operators read in
  non local Contribution for L=           2  read in
    real space projection operators read in
  non local Contribution for L=           2  read in
    real space projection operators read in
  non local Contribution for L=           0  read in
    real space projection operators read in
  non local Contribution for L=           0  read in
    real space projection operators read in
    PAW grid and wavefunctions read in
 
   number of l-projection  operators is LMAX  =           6
   number of lm-projection operators is LMMAX =          18
 
 POTCAR:    PAW_PBE O 08Apr2002                   
   VRHFIN =O: s2p4                                                              
   LEXCH  = PE                                                                  
   EATOM  =   432.3788 eV,   31.7789 Ry                                         
                                                                                
   TITEL  = PAW_PBE O 08Apr2002                                                 
   LULTRA =        F    use ultrasoft PP ?                                      
   IUNSCR =        1    unscreen: 0-lin 1-nonlin 2-no                           
   RPACOR =    1.200    partial core radius                                     
   POMASS =   16.000; ZVAL   =    6.000    mass and valenz                      
   RCORE  =    1.520    outmost cutoff radius                                   
   RWIGS  =    1.550; RWIGS  =    0.820    wigner-seitz radius (au A)           
   ENMAX  =  400.000; ENMIN  =  300.000 eV                                      
   ICORE  =        2    local potential                                         
   LCOR   =        T    correct aug charges                                     
   LPAW   =        T    paw PP                                                  
   EAUG   =  605.392                                                            
   DEXC   =    0.000                                                            
   RMAX   =    1.553    core radius for proj-oper                               
   RAUG   =    1.300    factor for augmentation sphere                          
   RDEP   =    1.550    radius for radial grids                                 
   RDEPT  =    1.329    core radius for aug-charge                              
                                                                                
   Atomic configuration                                                         
    4 entries                                                                   
     n  l   j            E        occ.                                          
     1  0  0.50      -514.6923   2.0000                                         
     2  0  0.50       -23.9615   2.0000                                         
     2  1  0.50        -9.0305   4.0000                                         
     3  2  1.50        -9.5241   0.0000                                         
   Description                                                                  
     l       E           TYP  RCUT    TYP  RCUT                                 
     0    -23.9615318     23  1.200                                             
     0     -9.5240782     23  1.200                                             
     1     -9.0304911     23  1.520                                             
     1      8.1634956     23  1.520                                             
     2     -9.5240782      7  1.500                                             
  local pseudopotential read in
  partial core-charges read in
  partial kinetic energy density read in
  kinetic energy density of atom read in
  atomic valenz-charges read in
  non local Contribution for L=           0  read in
    real space projection operators read in
  non local Contribution for L=           0  read in
    real space projection operators read in
  non local Contribution for L=           1  read in
    real space projection operators read in
  non local Contribution for L=           1  read in
    real space projection operators read in
    PAW grid and wavefunctions read in
 
   number of l-projection  operators is LMAX  =           4
   number of lm-projection operators is LMMAX =           8
 
 Optimization of the real space projectors (new method)

 maximal supplied QI-value         = 17.01
 optimisation between [QCUT,QGAM] = [ 10.20, 20.41] = [ 29.16,116.64] Ry 
 Optimized for a Real-space Cutoff    1.30 Angstroem

   l    n(q)    QCUT    max X(q) W(low)/X(q) W(high)/X(q)  e(spline) 
   1      7    10.205     4.940    0.23E-03    0.84E-03    0.11E-06
   1      7    10.205     6.253    0.40E-03    0.13E-02    0.18E-06
   0      8    10.205    37.438    0.23E-03    0.37E-03    0.42E-07
   0      8    10.205     9.606    0.16E-03    0.26E-03    0.31E-07
 Optimization of the real space projectors (new method)

 maximal supplied QI-value         = 18.90
 optimisation between [QCUT,QGAM] = [ 10.20, 20.41] = [ 29.16,116.64] Ry 
 Optimized for a Real-space Cutoff    1.26 Angstroem

   l    n(q)    QCUT    max X(q) W(low)/X(q) W(high)/X(q)  e(spline) 
   1      7    10.205     2.974    0.63E-04    0.14E-03    0.13E-06
   1      7    10.205     4.279    0.11E-03    0.45E-03    0.24E-06
   0      8    10.205    16.381    0.44E-03    0.15E-03    0.55E-07
   0      8    10.205     5.611    0.31E-03    0.11E-03    0.40E-07
   2      7    10.205     4.652    0.50E-03    0.47E-03    0.57E-07
 Optimization of the real space projectors (new method)

 maximal supplied QI-value         = 16.25
 optimisation between [QCUT,QGAM] = [ 10.24, 20.48] = [ 29.35,117.42] Ry 
 Optimized for a Real-space Cutoff    1.34 Angstroem

   l    n(q)    QCUT    max X(q) W(low)/X(q) W(high)/X(q)  e(spline) 
   1      8    10.239     3.658    0.23E-03    0.30E-03    0.98E-07
   1      8    10.239     5.612    0.32E-03    0.65E-03    0.21E-06
   2      7    10.239    55.373    0.42E-03    0.45E-03    0.65E-07
   2      7    10.239    50.863    0.43E-03    0.48E-03    0.67E-07
   0      8    10.239    79.536    0.11E-03    0.21E-03    0.56E-07
   0      8    10.239    38.668    0.96E-04    0.19E-03    0.52E-07
 Optimization of the real space projectors (new method)

 maximal supplied QI-value         = 24.76
 optimisation between [QCUT,QGAM] = [ 10.15, 20.30] = [ 28.85,115.39] Ry 
 Optimized for a Real-space Cutoff    1.38 Angstroem

   l    n(q)    QCUT    max X(q) W(low)/X(q) W(high)/X(q)  e(spline) 
   0      8    10.150    20.381    0.22E-03    0.32E-03    0.29E-06
   0      8    10.150    15.268    0.23E-03    0.35E-03    0.30E-06
   1      8    10.150     5.964    0.46E-03    0.53E-03    0.21E-06
   1      8    10.150     5.382    0.38E-03    0.45E-03    0.19E-06
  PAW_PBE Na_pv 19Sep2006               :
 energy of atom  1       EATOM= -766.0439
 kinetic energy error for atom=    0.0103 (will be added to EATOM!!)
  PAW_PBE Mg_pv 13Apr2007               :
 energy of atom  2       EATOM=-1056.7344
 kinetic energy error for atom=    0.0820 (will be added to EATOM!!)
  PAW_PBE Mn_pv 02Aug2007               :
 energy of atom  3       EATOM=-2025.2664
 kinetic energy error for atom=    0.0284 (will be added to EATOM!!)
  PAW_PBE O 08Apr2002                   :
 energy of atom  4       EATOM= -432.3788
 kinetic energy error for atom=    0.1156 (will be added to EATOM!!)
 
 
 POSCAR: Na Mg Mn  O                             
  positions in cartesian coordinates
  No initial velocities read in

 METAGGA = SCAN     LMAXTAU =  6    LMIXTAU =  F

 exchange correlation table for  LEXCH =        8
   RHO(1)=    0.500       N(1)  =     2000
   RHO(2)=  100.500       N(2)  =     4000

 VTST: version 3.2, (02/03/18)

 CHAIN: initializing optimizer
 
 OPT: Using VASP Dynamics algorithm
 CHAIN: Read ICHAIN            0
 
 POSCAR: Na Mg Mn  O                             
  positions in cartesian coordinates
  No initial velocities read in
 


--------------------------------------------------------------------------------------------------------


 ion  position               nearest neighbor table
   1  0.933  0.319  0.248-  54 2.26  55 2.29  50 2.33
   2  0.275  0.805  0.739-  80 2.27  81 2.36  38 2.98
   3  0.990  0.151  0.751-  44 2.22  47 2.31  14 2.74  25 2.78  27 2.91
   4  0.286  0.136  0.760-  47 2.33
   5  0.800  0.983  0.245-  65 2.33  54 2.38
   6  0.633  0.572  0.246-  66 2.23  43 2.24  75 2.28
   7  0.642  0.837  0.759-  72 2.34
   8  0.431  0.476  0.744-  45 2.33  68 2.37  46 2.37
   9  0.136  0.070  0.250-  51 2.31  76 2.33  67 2.34  36 2.86
  10  0.289  0.467  0.242-  41 2.31  43 2.34
  11  0.484  0.177  0.246-  53 2.26  62 2.32  29 2.89
  12  0.677  0.319  0.756-  59 2.06  60 2.19  57 2.34  56 2.37
  13  0.833  0.655  0.743-  70 2.29  73 2.31  39 2.94
  14  0.089  0.461  0.747-  58 2.21  80 2.35  61 2.36   3 2.74  32 2.85
  15  0.447  0.829  0.251-  79 2.32  78 2.33
  16  0.978  0.652  0.245-  86 2.29  55 2.34  64 2.37  77 2.38  37 2.77  39 2.93
  17  0.638  0.488  0.997-  66 1.93  71 2.02  53 2.05  49 2.06  43 2.08  60 2.13  26 2.85  30 2.86

  18  0.294  0.310  0.500-  51 1.96  52 2.00  45 2.03  46 2.05  44 2.05  36 2.81  28 2.81
  19  0.134  0.477  0.013-  48 1.96  55 2.02  78 2.04  41 2.08  61 2.08  83 2.10
  20  0.791  0.311  0.492-  57 1.97  63 1.97  62 2.03  58 2.08  56 2.11  64 2.11  27 2.83  40 2.83
                            31 2.85
  21  0.141  0.984  0.992-  84 2.00  42 2.01  77 2.02  73 2.08  47 2.09  67 2.10  38 2.79  29 2.82

  22  0.797  0.823  0.504-  69 1.94  70 2.00  76 2.06  75 2.10  74 2.12  68 2.13  39 2.85
  23  0.637  0.995  0.005-  54 1.98  85 2.02  65 2.07  72 2.09  79 2.12  59 2.17  30 2.81  29 2.84

  24  0.291  0.819  0.479-  87 2.02  88 2.04  86 2.05  82 2.09  81 2.12
  25  0.969  0.144  0.999-  72 1.85  67 1.90  61 1.91  54 1.93  41 1.93  47 1.94   3 2.78  34 2.83
                            26 2.96  30 2.99
  26  0.310  0.322  0.006-  42 1.86  49 1.89  47 1.90  43 1.91  41 1.94  48 1.96  17 2.85  29 2.85
                            25 2.96  33 2.98
  27  0.963  0.158  0.494-  76 1.81  63 1.88  50 1.91  58 1.91  69 1.95  44 1.96  20 2.83  32 2.87
                            40 2.91   3 2.91  36 2.94
  28  0.618  0.476  0.501-  52 1.81  62 1.83  46 1.91  75 1.93  57 1.94  68 2.02  18 2.81  31 2.83
                            35 2.86  39 2.87
  29  0.467  0.150  0.989-  59 1.86  84 1.89  42 1.93  53 1.99  79 1.99  49 2.01  21 2.82  23 2.84
                            26 2.85  30 2.88  11 2.89  38 2.92
  30  0.798  0.318  0.999-  53 1.88  60 1.90  55 1.93  59 1.94  61 1.95  54 2.01  23 2.81  17 2.86
                            37 2.86  29 2.88  25 2.99
  31  0.463  0.150  0.512-  88 1.88  56 1.88  62 1.92  81 1.96  51 1.97  46 1.97  28 2.83  20 2.85
                            40 2.85  36 2.90
  32  0.121  0.489  0.495-  64 1.82  58 1.85  87 1.88  50 1.88  80 1.95  45 1.95  14 2.85  27 2.87
                            39 2.87  35 2.93
  33  0.473  0.666  0.996-  85 1.83  48 1.89  78 1.91  65 1.96  71 1.98  43 2.03  34 2.86  38 2.87
                            26 2.98
  34  0.802  0.818  0.003-  67 1.89  65 1.92  71 1.94  73 1.95  66 1.96  72 1.96  25 2.83  33 2.86
                            37 2.94
  35  0.458  0.646  0.503-  45 1.89  52 1.89  87 1.91  74 1.95  68 1.97  82 1.97  28 2.86  32 2.93
                            40 2.95
  36  0.130  0.986  0.494-  51 1.82  86 1.92  44 1.94  81 1.96  70 1.97  76 1.97  18 2.81   9 2.86
                            31 2.90  27 2.94  39 2.95
  37  0.970  0.647  0.997-  73 1.85  83 1.89  77 1.90  55 1.94  60 1.97  66 2.04  16 2.77  38 2.81
                            30 2.86  34 2.94
  38  0.293  0.815  0.004-  77 1.80  84 1.86  78 1.94  79 1.96  83 1.96  85 1.99  21 2.79  37 2.81
                            33 2.87  29 2.92   2 2.98
  39  0.949  0.647  0.505-  75 1.90  64 1.90  70 1.90  57 1.94  80 1.99  86 2.02  22 2.85  32 2.87
                            28 2.87  16 2.93  13 2.94  36 2.95
  40  0.628  0.986  0.509-  74 1.88  56 1.89  82 1.89  69 1.93  63 1.98  88 2.00  20 2.83  31 2.85
                            27 2.91  35 2.95
  41  0.134  0.293  0.099-  25 1.93  26 1.94  19 2.08  10 2.31
  42  0.310  0.158  0.084-  26 1.86  29 1.93  21 2.01
  43  0.465  0.492  0.095-  26 1.91  33 2.03  17 2.08   6 2.24  10 2.34
  44  0.113  0.137  0.592-  36 1.94  27 1.96  18 2.05   3 2.22
  45  0.288  0.486  0.584-  35 1.89  32 1.95  18 2.03   8 2.33
  46  0.468  0.321  0.603-  28 1.91  31 1.97  18 2.05   8 2.37
  47  0.148  0.174  0.910-  26 1.90  25 1.94  21 2.09   3 2.31   4 2.33
  48  0.309  0.493  0.922-  33 1.89  26 1.96  19 1.96
  49  0.457  0.320  0.901-  26 1.89  29 2.01  17 2.06
  50  0.101  0.327  0.396-  32 1.88  27 1.91   1 2.33
  51  0.295  0.139  0.415-  36 1.82  18 1.96  31 1.97   9 2.31
  52  0.469  0.488  0.418-  28 1.81  35 1.89  18 2.00
  53  0.635  0.309  0.089-  30 1.88  29 1.99  17 2.05  11 2.26
  54  0.815  0.157  0.094-  25 1.93  23 1.98  30 2.01   1 2.26   5 2.38
  55  0.956  0.481  0.094-  30 1.93  37 1.94  19 2.02   1 2.29  16 2.34
  56  0.618  0.139  0.600-  31 1.88  40 1.89  20 2.11  12 2.37
  57  0.784  0.473  0.587-  39 1.94  28 1.94  20 1.97  12 2.34
  58  0.977  0.326  0.585-  32 1.85  27 1.91  20 2.08  14 2.21
  59  0.632  0.172  0.898-  29 1.86  30 1.94  12 2.06  23 2.17
  60  0.815  0.478  0.898-  30 1.90  37 1.97  17 2.13  12 2.19
  61  0.958  0.303  0.912-  25 1.91  30 1.95  19 2.08  14 2.36
  62  0.610  0.316  0.415-  28 1.83  31 1.92  20 2.03  11 2.32
  63  0.795  0.141  0.407-  27 1.88  20 1.97  40 1.98
  64  0.976  0.505  0.410-  32 1.82  39 1.90  20 2.11  16 2.37
  65  0.641  0.817  0.096-  34 1.92  33 1.96  23 2.07   5 2.33
  66  0.797  0.648  0.093-  17 1.93  34 1.96  37 2.04   6 2.23
  67  0.961  0.981  0.091-  34 1.89  25 1.90  21 2.10   9 2.34
  68  0.617  0.641  0.603-  35 1.97  28 2.02  22 2.13   8 2.37
  69  0.802  0.993  0.590-  40 1.93  22 1.94  27 1.95
  70  0.970  0.819  0.592-  39 1.90  36 1.97  22 2.00  13 2.29
  71  0.640  0.661  0.905-  34 1.94  33 1.98  17 2.02
  72  0.814  0.989  0.910-  25 1.85  34 1.96  23 2.09   7 2.34
  73  0.956  0.797  0.911-  37 1.85  34 1.95  21 2.08  13 2.31
  74  0.612  0.824  0.414-  40 1.88  35 1.95  22 2.12
  75  0.786  0.636  0.411-  39 1.90  28 1.93  22 2.10   6 2.28
  76  0.967  0.006  0.411-  27 1.81  36 1.97  22 2.06   9 2.33
  77  0.134  0.807  0.085-  38 1.80  37 1.90  21 2.02  16 2.38
  78  0.315  0.661  0.094-  33 1.91  38 1.94  19 2.04  15 2.33
  79  0.450  0.986  0.098-  38 1.96  29 1.99  23 2.12  15 2.32
  80  0.112  0.638  0.600-  32 1.95  39 1.99   2 2.27  14 2.35
  81  0.287  0.983  0.596-  36 1.96  31 1.96  24 2.12   2 2.36
  82  0.461  0.819  0.588-  40 1.89  35 1.97  24 2.09
  83  0.131  0.650  0.909-  37 1.89  38 1.96  19 2.10
  84  0.312  0.975  0.908-  38 1.86  29 1.89  21 2.00
  85  0.465  0.819  0.914-  33 1.83  38 1.99  23 2.02
  86  0.106  0.816  0.400-  36 1.92  39 2.02  24 2.05  16 2.29
  87  0.294  0.635  0.409-  32 1.88  35 1.91  24 2.02
  88  0.476  0.009  0.409-  31 1.88  40 2.00  24 2.04
 
  LATTYP: Found a hexagonal cell.
 ALAT       =    10.0190000534
 C/A-ratio  =     1.1196726572
  
  Lattice vectors:
  
 A1 = (  10.0190000534,   0.0000000000,   0.0000000000)
 A2 = (  -5.0095000267,   8.6767085668,   0.0000000000)
 A3 = (   0.0000000000,   0.0000000000,  11.2180004120)


Analysis of symmetry for initial positions (statically):
=====================================================================
 Subroutine PRICEL returns:
 Original cell was already a primitive cell.
 

 Routine SETGRP: Setting up the symmetry group for a 
 hexagonal supercell.


 Subroutine GETGRP returns: Found  1 space group operations
 (whereof  1 operations were pure point group operations)
 out of a pool of 24 trial point group operations.


The static configuration has the point symmetry C_1 .


Analysis of symmetry for dynamics (positions and initial velocities):
=====================================================================
 Subroutine PRICEL returns:
 Original cell was already a primitive cell.
 

 Routine SETGRP: Setting up the symmetry group for a 
 hexagonal supercell.


 Subroutine GETGRP returns: Found  1 space group operations
 (whereof  1 operations were pure point group operations)
 out of a pool of 24 trial point group operations.


The dynamic configuration has the point symmetry C_1 .


Analysis of structural, dynamic, and magnetic symmetry:
=====================================================================
 Subroutine PRICEL returns:
 Original cell was already a primitive cell.
 

 Routine SETGRP: Setting up the symmetry group for a 
 hexagonal supercell.


 Subroutine GETGRP returns: Found  1 space group operations
 (whereof  1 operations were pure point group operations)
 out of a pool of 24 trial point group operations.


The magnetic configuration has the point symmetry C_1 .


 Subroutine INISYM returns: Found  1 space group operations
 (whereof  1 operations are pure point group operations),
 and found     1 'primitive' translations

 
 

Automatic generation of k-mesh.
 generate k-points for:    2    2    2
Space group operators:
 irot       det(A)        alpha          n_x          n_y          n_z        tau_x        tau_y        tau_z
    1     1.000000     0.000000     1.000000     0.000000     0.000000     0.000000     0.000000     0.000000
 
 Subroutine IBZKPT returns following result:
 ===========================================
 
 Found      8 irreducible k-points:
 
 Following reciprocal coordinates:
            Coordinates               Weight
  0.000000  0.000000  0.000000      1.000000
  0.500000 -0.000000 -0.000000      1.000000
  0.000000  0.500000  0.000000      1.000000
  0.500000  0.500000 -0.000000      1.000000
  0.000000  0.000000  0.500000      1.000000
  0.500000 -0.000000  0.500000      1.000000
  0.000000  0.500000  0.500000      1.000000
  0.500000  0.500000  0.500000      1.000000
 
 Following cartesian coordinates:
            Coordinates               Weight
  0.000000  0.000000  0.000000      1.000000
  0.049905  0.028813 -0.000000      1.000000
  0.000000  0.057626  0.000000      1.000000
  0.049905  0.086438 -0.000000      1.000000
  0.000000  0.000000  0.044571      1.000000
  0.049905  0.028813  0.044571      1.000000
  0.000000  0.057626  0.044571      1.000000
  0.049905  0.086438  0.044571      1.000000
 


--------------------------------------------------------------------------------------------------------




 Dimension of arrays:
   k-points           NKPTS =      8   k-points in BZ     NKDIM =      8   number of bands    NBANDS=    480
   number of dos      NEDOS =    301   number of ions     NIONS =     88
   non local maximal  LDIM  =      6   non local SUM 2l+1 LMDIM =     18
   total plane-waves  NPLWV = 140000
   max r-space proj   IRMAX =   1632   max aug-charges    IRDMAX=   4555
   dimension x,y,z NGX =    50 NGY =   50 NGZ =   56
   dimension x,y,z NGXF=   100 NGYF=  100 NGZF=  112
   support grid    NGXF=   100 NGYF=  100 NGZF=  112
   ions per type =              16   8  16  48
   NGX,Y,Z   is equivalent  to a cutoff of   8.30,  8.30,  8.30 a.u.
   NGXF,Y,Z  is equivalent  to a cutoff of  16.59, 16.59, 16.60 a.u.

 SYSTEM =  unknown system                          
 POSCAR =  Na Mg Mn  O                             

 Startparameter for this run:
   NWRITE =      2    write-flag & timer
   PREC   = normal    normal or accurate (medium, high low for compatibility)
   ISTART =      0    job   : 0-new  1-cont  2-samecut
   ICHARG =      1    charge: 1-file 2-atom 10-const
   ISPIN  =      2    spin polarized calculation?
   LNONCOLLINEAR =      F non collinear calculations
   LSORBIT =      F    spin-orbit coupling
   INIWAV =      1    electr: 0-lowe 1-rand  2-diag
   LASPH  =      T    aspherical Exc in radial PAW
   METAGGA=      F    non-selfconsistent MetaGGA calc.

 Electronic Relaxation 1
   ENCUT  =  400.0 eV  29.40 Ry    5.42 a.u.  16.34 16.34 18.29*2*pi/ulx,y,z
   ENINI  =  400.0     initial cutoff
   ENAUG  =  758.8 eV  augmentation charge cutoff
   NELM   =    200;   NELMIN=  6; NELMDL=-12     # of ELM steps 
   EDIFF  = 0.1E-04   stopping-criterion for ELM
   LREAL  =      T    real-space projection
   NLSPLINE    = F    spline interpolate recip. space projectors
   LCOMPAT=      F    compatible to vasp.4.4
   GGA_COMPAT  = T    GGA compatible to vasp.4.4-vasp.4.6
   LMAXPAW     = -100 max onsite density
   LMAXMIX     =    4 max onsite mixed and CHGCAR
   VOSKOWN=      0    Vosko Wilk Nusair interpolation
   ROPT   =   -0.00050  -0.00050  -0.00050  -0.00050
 Ionic relaxation
   EDIFFG = 0.1E-03   stopping-criterion for IOM
   NSW    =      1    number of steps for IOM
   NBLOCK =      1;   KBLOCK =      1    inner block; outer block 
   IBRION =     -1    ionic relax: 0-MD 1-quasi-New 2-CG
   NFREE  =      0    steps in history (QN), initial steepest desc. (CG)
   ISIF   =      2    stress and relaxation
   IWAVPR =     10    prediction:  0-non 1-charg 2-wave 3-comb
   ISYM   =      2    0-nonsym 1-usesym 2-fastsym
   LCORR  =      T    Harris-Foulkes like correction to forces

   POTIM  = 0.5000    time-step for ionic-motion
   TEIN   =    0.0    initial temperature
   TEBEG  =    0.0;   TEEND  =   0.0 temperature during run
   SMASS  =  -3.00    Nose mass-parameter (am)
   estimated Nose-frequenzy (Omega)   =  0.10E-29 period in steps =****** mass=  -0.229E-26a.u.
   SCALEE = 1.0000    scale energy and forces
   NPACO  =    256;   APACO  = 16.0  distance and # of slots for P.C.
   PSTRESS=    0.0 pullay stress

  Mass of Ions in am
   POMASS =  22.99 24.30 54.94 16.00
  Ionic Valenz
   ZVAL   =   7.00  8.00 13.00  6.00
  Atomic Wigner-Seitz radii
   RWIGS  =  -1.00 -1.00 -1.00 -1.00
  virtual crystal weights 
   VCA    =   1.00  1.00  1.00  1.00
   NELECT =     672.0000    total number of electrons
   NUPDOWN=      48.0000    fix difference up-down

 DOS related values:
   EMIN   =  10.00;   EMAX   =-10.00  energy-range for DOS
   EFERMI =   0.00
   ISMEAR =     0;   SIGMA  =   0.05  broadening in eV -4-tet -1-fermi 0-gaus

 Electronic relaxation 2 (details)
   IALGO  =     48    algorithm
   LDIAG  =      T    sub-space diagonalisation (order eigenvalues)
   LSUBROT=      F    optimize rotation matrix (better conditioning)
   TURBO    =      0    0=normal 1=particle mesh
   IRESTART =      0    0=no restart 2=restart with 2 vectors
   NREBOOT  =      0    no. of reboots
   NMIN     =      0    reboot dimension
   EREF     =   0.00    reference energy to select bands
   IMIX   =      4    mixing-type and parameters
     AMIX     =   0.40;   BMIX     =  1.00
     AMIX_MAG =   1.60;   BMIX_MAG =  1.00
     AMIN     =   0.10
     WC   =   100.;   INIMIX=   1;  MIXPRE=   1;  MAXMIX= -45

 Intra band minimization:
   WEIMIN = 0.0000     energy-eigenvalue tresh-hold
   EBREAK =  0.52E-08  absolut break condition
   DEPER  =   0.30     relativ break condition  

   TIME   =   0.40     timestep for ELM

  volume/ion in A,a.u.               =      11.08        74.78
  Fermi-wavevector in a.u.,A,eV,Ry     =   1.445993  2.732531 28.448379  2.090897
  Thomas-Fermi vector in A             =   2.564112
 
 Write flags
   LWAVE        =      F    write WAVECAR
   LDOWNSAMPLE  =      F    k-point downsampling of WAVECAR
   LCHARG       =      F    write CHGCAR
   LVTOT        =      F    write LOCPOT, total local potential
   LVHAR        =      F    write LOCPOT, Hartree potential only
   LELF         =      F    write electronic localiz. function (ELF)
   LORBIT       =     11    0 simple, 1 ext, 2 COOP (PROOUT), +10 PAW based schemes


 Dipole corrections
   LMONO  =      F    monopole corrections only (constant potential shift)
   LDIPOL =      F    correct potential (dipole corrections)
   IDIPOL =      0    1-x, 2-y, 3-z, 4-all directions 
   EPSILON=  1.0000000 bulk dielectric constant

 Exchange correlation treatment:
   GGA     =    --    GGA type
   LEXCH   =     8    internal setting for exchange type
   VOSKOWN=      0    Vosko Wilk Nusair interpolation
   LHFCALC =     F    Hartree Fock is set to
   LHFONE  =     F    Hartree Fock one center treatment
   AEXX    =    0.0000 exact exchange contribution

 Linear response parameters
   LEPSILON=     F    determine dielectric tensor
   LRPA    =     F    only Hartree local field effects (RPA)
   LNABLA  =     F    use nabla operator in PAW spheres
   LVEL    =     F    velocity operator in full k-point grid
   LINTERFAST=   F  fast interpolation
   KINTER  =     0    interpolate to denser k-point grid
   CSHIFT  =0.1000    complex shift for real part using Kramers Kronig
   OMEGAMAX=  -1.0    maximum frequency
   DEG_THRESHOLD= 0.2000000E-02 threshold for treating states as degnerate
   RTIME   =   -0.100 relaxation time in fs
  (WPLASMAI=    0.000 imaginary part of plasma frequency in eV, 0.658/RTIME)
   DFIELD  = 0.0000000 0.0000000 0.0000000 field for delta impulse in time
 
 Orbital magnetization related:
   ORBITALMAG=     F  switch on orbital magnetization
   LCHIMAG   =     F  perturbation theory with respect to B field
   DQ        =  0.001000  dq finite difference perturbation B field
   LLRAUG    =     F  two centre corrections for induced B field



--------------------------------------------------------------------------------------------------------


 Static calculation
 charge density and potential will be updated during run
 spin polarized calculation
 RMM-DIIS sequential band-by-band
 perform sub-space diagonalisation
    before iterative eigenvector-optimisation
 modified Broyden-mixing scheme, WC =      100.0
 initial mixing is a Kerker type mixing with AMIX =  0.4000 and BMIX =      1.0000
 Hartree-type preconditioning will be used
 using additional bands          144
 real space projection scheme for non local part
 use partial core corrections
 calculate Harris-corrections to forces 
   (improved forces if not selfconsistent)
 use gradient corrections 
 use of overlap-Matrix (Vanderbilt PP)
 Gauss-broadening in eV      SIGMA  =   0.05


--------------------------------------------------------------------------------------------------------


  energy-cutoff  :      400.00
  volume of cell :      975.20
      direct lattice vectors                 reciprocal lattice vectors
    10.019000053  0.000000000  0.000000000     0.099810360  0.057625538 -0.000000000
    -5.009500027  8.676708567  0.000000000     0.000000000  0.115251076  0.000000000
     0.000000000  0.000000000 11.218000412     0.000000000  0.000000000  0.089142446

  length of vectors
    10.019000053 10.019000053 11.218000412     0.115251076  0.115251076  0.089142446


 
 k-points in units of 2pi/SCALE and weight: read from INCAR                         
   0.00000000  0.00000000  0.00000000       0.125
   0.04990518  0.02881277 -0.00000000       0.125
   0.00000000  0.05762554  0.00000000       0.125
   0.04990518  0.08643831 -0.00000000       0.125
   0.00000000  0.00000000  0.04457122       0.125
   0.04990518  0.02881277  0.04457122       0.125
   0.00000000  0.05762554  0.04457122       0.125
   0.04990518  0.08643831  0.04457122       0.125
 
 k-points in reciprocal lattice and weights: read from INCAR                         
   0.00000000  0.00000000  0.00000000       0.125
   0.50000000 -0.00000000 -0.00000000       0.125
   0.00000000  0.50000000  0.00000000       0.125
   0.50000000  0.50000000 -0.00000000       0.125
   0.00000000  0.00000000  0.50000000       0.125
   0.50000000 -0.00000000  0.50000000       0.125
   0.00000000  0.50000000  0.50000000       0.125
   0.50000000  0.50000000  0.50000000       0.125
 
 position of ions in fractional coordinates (direct lattice) 
   0.93259195  0.31918127  0.24811641
   0.27511647  0.80476929  0.73929575
   0.98957452  0.15127000  0.75146013
   0.28605414  0.13607678  0.75982971
   0.79961953  0.98321549  0.24536102
   0.63337184  0.57210749  0.24627740
   0.64232334  0.83707713  0.75922265
   0.43146236  0.47576039  0.74353180
   0.13600874  0.07024092  0.24993313
   0.28855800  0.46746429  0.24185237
   0.48403427  0.17713135  0.24562131
   0.67698107  0.31937983  0.75636831
   0.83283804  0.65497648  0.74313690
   0.08927427  0.46089202  0.74729806
   0.44741048  0.82864667  0.25079782
   0.97767925  0.65245001  0.24454893
   0.63844404  0.48752588  0.99653504
   0.29379935  0.30981449  0.50048492
   0.13391626  0.47660584  0.01266711
   0.79050429  0.31103154  0.49227757
   0.14135187  0.98383159  0.99227556
   0.79719843  0.82284082  0.50434033
   0.63718080  0.99464906  0.00464823
   0.29141088  0.81898106  0.47900337
   0.96920535  0.14419770  0.99912208
   0.31035072  0.32198500  0.00554239
   0.96281096  0.15789858  0.49361827
   0.61804756  0.47577373  0.50066944
   0.46657667  0.15046044  0.98903361
   0.79786801  0.31792586  0.99936705
   0.46334088  0.14962817  0.51221963
   0.12149802  0.48867724  0.49472453
   0.47346978  0.66552425  0.99647191
   0.80229432  0.81817085  0.00319968
   0.45828540  0.64571144  0.50289355
   0.12970956  0.98641783  0.49418165
   0.96954211  0.64720279  0.99743761
   0.29334669  0.81498761  0.00432260
   0.94907098  0.64683744  0.50461578
   0.62841289  0.98605824  0.50925297
   0.13447909  0.29302586  0.09860848
   0.31005254  0.15810488  0.08433205
   0.46492312  0.49157696  0.09468978
   0.11254752  0.13698644  0.59188178
   0.28805316  0.48648401  0.58384469
   0.46846233  0.32101689  0.60271882
   0.14780595  0.17376520  0.90967192
   0.30905803  0.49333915  0.92150113
   0.45693303  0.32036572  0.90063288
   0.10061794  0.32736722  0.39591013
   0.29472684  0.13904944  0.41518986
   0.46918978  0.48802722  0.41849704
   0.63461508  0.30903654  0.08899046
   0.81539147  0.15686939  0.09399625
   0.95596663  0.48055089  0.09444731
   0.61753095  0.13888924  0.60034050
   0.78388436  0.47258358  0.58737652
   0.97693529  0.32553243  0.58519074
   0.63166858  0.17241791  0.89841323
   0.81511299  0.47849827  0.89824386
   0.95843775  0.30274037  0.91221248
   0.61026443  0.31619709  0.41500177
   0.79457719  0.14112165  0.40688089
   0.97559631  0.50465104  0.40967996
   0.64120691  0.81749317  0.09632554
   0.79688395  0.64841408  0.09328400
   0.96137344  0.98050314  0.09059903
   0.61723698  0.64107143  0.60330360
   0.80225627  0.99339167  0.58989122
   0.96957417  0.81946973  0.59150827
   0.63970848  0.66121156  0.90487606
   0.81360214  0.98883118  0.90954712
   0.95617659  0.79727583  0.91067923
   0.61167736  0.82370405  0.41373684
   0.78617063  0.63610411  0.41120787
   0.96695346  0.00553683  0.41078444
   0.13417265  0.80738911  0.08476716
   0.31461988  0.66079781  0.09419326
   0.44968645  0.98644088  0.09842574
   0.11185803  0.63800691  0.60008021
   0.28677699  0.98280240  0.59617398
   0.46122440  0.81932912  0.58798536
   0.13137000  0.64974869  0.90853981
   0.31222053  0.97460574  0.90847741
   0.46539814  0.81886235  0.91358528
   0.10578390  0.81581973  0.39954714
   0.29387499  0.63475567  0.40886342
   0.47585138  0.00930093  0.40874486
 
 position of ions in cartesian coordinates  (Angst):
   7.74470019  2.76944283  2.78337000
  -1.27509984  6.98274860  8.29342000
   9.15676008  1.31252570  8.42988000
   2.18429976  1.18069857  8.52377000
   3.08597003  8.53107430  2.75246000
   3.47978000  4.96401000  2.76274000
   2.24209971  7.26307430  8.51696000
   1.93949968  4.12803427  8.34094000
   1.01079971  0.60945997  2.80375000
   0.54930021  4.05605140  2.71310000
   3.96219984  1.53691713  2.75538000
   5.18274005  2.77116573  8.48494000
   5.06309965  5.68304003  8.33651000
  -1.41439960  3.99902570  8.38319000
   0.33150013  7.18992570  2.81345000
   6.52692008  5.66111857  2.74335000
   3.95431000  4.23012000 11.17913051
   1.39156000  2.68817000  5.61444000
  -1.04585000  4.13537000  0.14209959
   6.36195000  2.69873000  5.52237000
  -3.51230000  8.53642000 11.13134761
   3.86511000  7.13955000  5.65769000
   1.40122000  8.63028000  0.05214390
  -1.18304000  7.10606000  5.37346000
   8.98811003  1.25116143 11.20815188
   1.49642000  2.79377000  0.06217450
   8.85541005  1.37004000  5.53741000
   3.80883000  4.12815000  5.61651000
   3.92090003  1.30550143 11.09497941
   6.40119000  2.75855000 11.21090000
   3.89265000  1.29828000  5.74608000
  -1.23074000  4.24011000  5.54982000
   1.40975000  5.77456000 11.17842231
   3.93956000  7.09903000  0.03589400
   1.35687000  5.60265000  5.64146000
  -3.64190000  8.55886000  5.54373000
   6.47168005  5.61559000 11.18925551
  -1.14364000  7.07141000  0.04849090
   6.26841005  5.61242000  5.66078000
   1.35641000  8.55574000  5.71280000
  -0.12056700  2.54250000  1.10619000
   2.31439000  1.37183000  0.94603700
   2.19551000  4.26527000  1.06223000
   0.44138003  1.18859143  6.63973000
   0.44896300  4.22108000  6.54957000
   3.08539000  2.78537000  6.76130000
   0.61039100  1.50771000 10.20470000
   0.62507000  4.28056000 10.33740000
   2.97314000  2.77972000 10.10330000
  -0.63185500  2.84047000  4.44132000
   2.25630003  1.20649143  4.65760000
   2.25604000  4.23447000  4.69470000
   4.81009000  2.68142000  0.99829500
   7.38357000  1.36111000  1.05445000
   7.17051000  4.16960000  1.05951000
   5.49127703  1.20510143  6.73462000
   5.48633000  4.10047000  6.58919000
   8.15716005  2.82455000  6.56467000
   5.46496000  1.49602000 10.07840000
   5.76958000  4.15179000 10.07650000
   8.08601000  2.62679000 10.23320000
   4.53025000  2.74355000  4.65549000
   7.25392003  1.22447143  4.56439000
   7.24645005  4.37871000  4.59579000
   2.32902000  7.09315000  1.08058000
   4.73575000  5.62610000  1.04646000
   4.72017000  8.50754000  1.01634000
   2.97265000  5.56239000  6.76786000
   3.06141000  8.61937000  6.61740000
   5.60903005  7.11030000  6.63554000
   3.09690000  5.73714000 10.15090000
   3.19793000  8.57980000 10.20330000
   5.58598000  6.91773000 10.21600000
   2.00205000  7.14704000  4.64130000
   4.69008000  5.51929000  4.61293000
   9.66017008  0.04804143  4.60818000
  -2.70034000  7.00548000  0.95091800
  -0.15809000  5.73355000  1.05666000
  -0.43616700  8.55906000  1.10414000
  -2.07539000  5.53580000  6.73170000
  -2.05013000  8.52749000  6.68788000
   0.51657800  7.10908000  6.59602000
  -1.93872000  5.63768000 10.19200000
  -1.75415000  8.45637000 10.19130000
   0.56073300  7.10503000 10.24860000
  -3.02700000  7.07863000  4.48212000
  -0.23547500  5.50759000  4.58663000
   4.72096203  0.08070143  4.58530000
 


--------------------------------------------------------------------------------------------------------


 k-point  1 :   0.0000 0.0000 0.0000  plane waves:   17725
 k-point  2 :   0.5000-0.0000-0.0000  plane waves:   17736
 k-point  3 :   0.0000 0.5000 0.0000  plane waves:   17736
 k-point  4 :   0.5000 0.5000-0.0000  plane waves:   17736
 k-point  5 :   0.0000 0.0000 0.5000  plane waves:   17676
 k-point  6 :   0.5000-0.0000 0.5000  plane waves:   17700
 k-point  7 :   0.0000 0.5000 0.5000  plane waves:   17700
 k-point  8 :   0.5000 0.5000 0.5000  plane waves:   17700

 maximum and minimum number of plane-waves per node :     17736    17676

 maximum number of plane-waves:     17736
 maximum index in each direction: 
   IXMAX=   16   IYMAX=   16   IZMAX=   18
   IXMIN=  -16   IYMIN=  -16   IZMIN=  -18


 serial   3D FFT for wavefunctions
 parallel 3D FFT for charge:
    minimum data exchange during FFTs selected (reduces bandwidth)


 total amount of memory used by VASP MPI-rank0    94418. kBytes
=======================================================================

   base      :      30000. kBytes
   nonlr-proj:      13659. kBytes
   fftplans  :       1275. kBytes
   grid      :      22786. kBytes
   one-center:       2737. kBytes
   wavefun   :      23961. kBytes
 
     INWAV:  cpu time    0.0000: real time    0.0001
 Broyden mixing: mesh for mixing (old mesh)
   NGX = 33   NGY = 33   NGZ = 37
  (NGX  =100   NGY  =100   NGZ  =112)
  gives a total of  40293 points

 initial charge density was supplied:
 charge density of overlapping atoms calculated
 number of electron     672.0000000 magnetization      48.0000000
 keeping initial charge density in first step


--------------------------------------------------------------------------------------------------------


 Maximum index for non-local projection operator         1549
 Maximum index for augmentation-charges          556 (set IRDMAX)


--------------------------------------------------------------------------------------------------------


 First call to EWALD:  gamma=   0.179
 Maximum number of real-space cells 3x 3x 2
 Maximum number of reciprocal cells 3x 3x 3

    FEWALD:  cpu time    0.0027: real time    0.0027


--------------------------------------- Iteration      1(   1)  ---------------------------------------


    POTLOK:  cpu time    0.1894: real time    0.1915
    SETDIJ:  cpu time    4.6140: real time    4.6180
    EDDIAG:  cpu time    4.3930: real time    4.8019
  RMM-DIIS:  cpu time    9.0368: real time    9.1519
    ORTHCH:  cpu time    1.1564: real time    1.2416
       DOS:  cpu time    0.0023: real time    0.0024
    --------------------------------------------
      LOOP:  cpu time   19.3919: real time   20.0073

 eigenvalue-minimisations  :  7680
 total energy-change (2. order) : 0.1595558E+04  (-0.3499028E+05)
 number of electron     672.0000000 magnetization      48.0000000
 augmentation part      672.0000000 magnetization      48.0000000

 Free energy of the ion-electron system (eV)
  ---------------------------------------------------
  alpha Z        PSCENC =      2652.81237852
  Ewald energy   TEWEN  =    -41752.11561242
  -Hartree energ DENC   =    -25855.88734040
  -exchange      EXHF   =         0.00000000
  -V(xc)+E(xc)   XCENC  =      3606.54307539
  PAW double counting   =     55594.23204139   -59034.67079123
  entropy T*S    EENTRO =        -0.04518013
  eigenvalues    EBANDS =     -7477.50879850
  atomic energy  EATOM  =     73862.19814772
  Solvation  Ediel_sol  =         0.00000000
  ---------------------------------------------------
  free energy    TOTEN  =      1595.55792034 eV

  energy without entropy =     1595.60310047  energy(sigma->0) =     1595.58051040


--------------------------------------------------------------------------------------------------------




--------------------------------------- Iteration      1(   2)  ---------------------------------------


    EDDIAG:  cpu time    4.3913: real time    4.8100
  RMM-DIIS:  cpu time    9.1742: real time    9.1899
    ORTHCH:  cpu time    1.1562: real time    1.2364
       DOS:  cpu time    0.0021: real time    0.0021
    --------------------------------------------
      LOOP:  cpu time   14.7238: real time   15.2383

 eigenvalue-minimisations  :  7680
 total energy-change (2. order) :-0.2320137E+04  (-0.8037422E+04)
 number of electron     672.0000000 magnetization      48.0000000
 augmentation part      672.0000000 magnetization      48.0000000

 Free energy of the ion-electron system (eV)
  ---------------------------------------------------
  alpha Z        PSCENC =      2652.81237852
  Ewald energy   TEWEN  =    -41752.11561242
  -Hartree energ DENC   =    -25855.88734040
  -exchange      EXHF   =         0.00000000
  -V(xc)+E(xc)   XCENC  =      3606.54307539
  PAW double counting   =     55594.23204139   -59034.67079123
  entropy T*S    EENTRO =        -0.04339424
  eigenvalues    EBANDS =     -9797.64752124
  atomic energy  EATOM  =     73862.19814772
  Solvation  Ediel_sol  =         0.00000000
  ---------------------------------------------------
  free energy    TOTEN  =      -724.57901651 eV

  energy without entropy =     -724.53562227  energy(sigma->0) =     -724.55731939


--------------------------------------------------------------------------------------------------------




--------------------------------------- Iteration      1(   3)  ---------------------------------------


    EDDIAG:  cpu time    4.4285: real time    4.8602
  RMM-DIIS:  cpu time    9.1129: real time    9.1731
    ORTHCH:  cpu time    1.1564: real time    1.2407
       DOS:  cpu time    0.0019: real time    0.0019
    --------------------------------------------
      LOOP:  cpu time   14.6997: real time   15.2759

 eigenvalue-minimisations  :  7680
 total energy-change (2. order) : 0.8158427E+02  (-0.1426938E+04)
 number of electron     672.0000000 magnetization      48.0000000
 augmentation part      672.0000000 magnetization      48.0000000

 Free energy of the ion-electron system (eV)
  ---------------------------------------------------
  alpha Z        PSCENC =      2652.81237852
  Ewald energy   TEWEN  =    -41752.11561242
  -Hartree energ DENC   =    -25855.88734040
  -exchange      EXHF   =         0.00000000
  -V(xc)+E(xc)   XCENC  =      3606.54307539
  PAW double counting   =     55594.23204139   -59034.67079123
  entropy T*S    EENTRO =        -0.03846744
  eigenvalues    EBANDS =     -9716.06817651
  atomic energy  EATOM  =     73862.19814772
  Solvation  Ediel_sol  =         0.00000000
  ---------------------------------------------------
  free energy    TOTEN  =      -642.99474498 eV

  energy without entropy =     -642.95627754  energy(sigma->0) =     -642.97551126


--------------------------------------------------------------------------------------------------------




--------------------------------------- Iteration      1(   4)  ---------------------------------------


    EDDIAG:  cpu time    4.4158: real time    4.8392
  RMM-DIIS:  cpu time    9.1778: real time    9.1873
    ORTHCH:  cpu time    1.1540: real time    1.2375
       DOS:  cpu time    0.0015: real time    0.0015
    --------------------------------------------
      LOOP:  cpu time   14.7490: real time   15.2655

 eigenvalue-minimisations  :  7680
 total energy-change (2. order) :-0.4679144E+03  (-0.4290792E+03)
 number of electron     672.0000000 magnetization      48.0000000
 augmentation part      672.0000000 magnetization      48.0000000

 Free energy of the ion-electron system (eV)
  ---------------------------------------------------
  alpha Z        PSCENC =      2652.81237852
  Ewald energy   TEWEN  =    -41752.11561242
  -Hartree energ DENC   =    -25855.88734040
  -exchange      EXHF   =         0.00000000
  -V(xc)+E(xc)   XCENC  =      3606.54307539
  PAW double counting   =     55594.23204139   -59034.67079123
  entropy T*S    EENTRO =        -0.00000000
  eigenvalues    EBANDS =    -10184.02106666
  atomic energy  EATOM  =     73862.19814772
  Solvation  Ediel_sol  =         0.00000000
  ---------------------------------------------------
  free energy    TOTEN  =     -1110.90916769 eV

  energy without entropy =    -1110.90916769  energy(sigma->0) =    -1110.90916769


--------------------------------------------------------------------------------------------------------




--------------------------------------- Iteration      1(   5)  ---------------------------------------


    EDDIAG:  cpu time    4.4825: real time    4.9025
  RMM-DIIS:  cpu time    9.1508: real time    9.1723
    ORTHCH:  cpu time    1.1547: real time    1.2358
       DOS:  cpu time    0.0012: real time    0.0012
    --------------------------------------------
      LOOP:  cpu time   14.7892: real time   15.3117

 eigenvalue-minimisations  :  7680
 total energy-change (2. order) :-0.1047253E+03  (-0.1604896E+03)
 number of electron     672.0000000 magnetization      48.0000000
 augmentation part      672.0000000 magnetization      48.0000000

 Free energy of the ion-electron system (eV)
  ---------------------------------------------------
  alpha Z        PSCENC =      2652.81237852
  Ewald energy   TEWEN  =    -41752.11561242
  -Hartree energ DENC   =    -25855.88734040
  -exchange      EXHF   =         0.00000000
  -V(xc)+E(xc)   XCENC  =      3606.54307539
  PAW double counting   =     55594.23204139   -59034.67079123
  entropy T*S    EENTRO =        -0.00000000
  eigenvalues    EBANDS =    -10288.74640918
  atomic energy  EATOM  =     73862.19814772
  Solvation  Ediel_sol  =         0.00000000
  ---------------------------------------------------
  free energy    TOTEN  =     -1215.63451021 eV

  energy without entropy =    -1215.63451021  energy(sigma->0) =    -1215.63451021


--------------------------------------------------------------------------------------------------------




--------------------------------------- Iteration      1(   6)  ---------------------------------------


    EDDIAG:  cpu time    4.4020: real time    4.8346
  RMM-DIIS:  cpu time    9.1749: real time    9.1836
    ORTHCH:  cpu time    1.1647: real time    1.2509
       DOS:  cpu time    0.0011: real time    0.0011
    --------------------------------------------
      LOOP:  cpu time   14.7428: real time   15.2701

 eigenvalue-minimisations  :  7680
 total energy-change (2. order) :-0.9117644E+01  (-0.7983220E+02)
 number of electron     672.0000000 magnetization      48.0000000
 augmentation part      672.0000000 magnetization      48.0000000

 Free energy of the ion-electron system (eV)
  ---------------------------------------------------
  alpha Z        PSCENC =      2652.81237852
  Ewald energy   TEWEN  =    -41752.11561242
  -Hartree energ DENC   =    -25855.88734040
  -exchange      EXHF   =         0.00000000
  -V(xc)+E(xc)   XCENC  =      3606.54307539
  PAW double counting   =     55594.23204139   -59034.67079123
  entropy T*S    EENTRO =        -0.00000000
  eigenvalues    EBANDS =    -10297.86405353
  atomic energy  EATOM  =     73862.19814772
  Solvation  Ediel_sol  =         0.00000000
  ---------------------------------------------------
  free energy    TOTEN  =     -1224.75215456 eV

  energy without entropy =    -1224.75215456  energy(sigma->0) =    -1224.75215456


--------------------------------------------------------------------------------------------------------




--------------------------------------- Iteration      1(   7)  ---------------------------------------


    EDDIAG:  cpu time    4.4009: real time    4.8321
  RMM-DIIS:  cpu time    9.1737: real time    9.1938
    ORTHCH:  cpu time    1.1765: real time    1.2588
       DOS:  cpu time    0.0015: real time    0.0015
    --------------------------------------------
      LOOP:  cpu time   14.7526: real time   15.2862

 eigenvalue-minimisations  :  7680
 total energy-change (2. order) :-0.1731383E+01  (-0.4871700E+02)
 number of electron     672.0000000 magnetization      48.0000000
 augmentation part      672.0000000 magnetization      48.0000000

 Free energy of the ion-electron system (eV)
  ---------------------------------------------------
  alpha Z        PSCENC =      2652.81237852
  Ewald energy   TEWEN  =    -41752.11561242
  -Hartree energ DENC   =    -25855.88734040
  -exchange      EXHF   =         0.00000000
  -V(xc)+E(xc)   XCENC  =      3606.54307539
  PAW double counting   =     55594.23204139   -59034.67079123
  entropy T*S    EENTRO =        -0.00000000
  eigenvalues    EBANDS =    -10299.59543656
  atomic energy  EATOM  =     73862.19814772
  Solvation  Ediel_sol  =         0.00000000
  ---------------------------------------------------
  free energy    TOTEN  =     -1226.48353759 eV

  energy without entropy =    -1226.48353759  energy(sigma->0) =    -1226.48353759


--------------------------------------------------------------------------------------------------------




--------------------------------------- Iteration      1(   8)  ---------------------------------------


    EDDIAG:  cpu time    4.4656: real time    4.8753
  RMM-DIIS:  cpu time    9.1584: real time    9.1676
    ORTHCH:  cpu time    1.1555: real time    1.2384
       DOS:  cpu time    0.0016: real time    0.0016
    --------------------------------------------
      LOOP:  cpu time   14.7810: real time   15.2829

 eigenvalue-minimisations  :  7680
 total energy-change (2. order) : 0.4989071E+01  (-0.3035926E+02)
 number of electron     672.0000000 magnetization      48.0000000
 augmentation part      672.0000000 magnetization      48.0000000

 Free energy of the ion-electron system (eV)
  ---------------------------------------------------
  alpha Z        PSCENC =      2652.81237852
  Ewald energy   TEWEN  =    -41752.11561242
  -Hartree energ DENC   =    -25855.88734040
  -exchange      EXHF   =         0.00000000
  -V(xc)+E(xc)   XCENC  =      3606.54307539
  PAW double counting   =     55594.23204139   -59034.67079123
  entropy T*S    EENTRO =        -0.00000000
  eigenvalues    EBANDS =    -10294.60636542
  atomic energy  EATOM  =     73862.19814772
  Solvation  Ediel_sol  =         0.00000000
  ---------------------------------------------------
  free energy    TOTEN  =     -1221.49446645 eV

  energy without entropy =    -1221.49446645  energy(sigma->0) =    -1221.49446645


--------------------------------------------------------------------------------------------------------




--------------------------------------- Iteration      1(   9)  ---------------------------------------


    EDDIAG:  cpu time    4.4024: real time    4.8842
  RMM-DIIS:  cpu time   19.4701: real time   19.4856
    ORTHCH:  cpu time    1.1614: real time    1.2454
       DOS:  cpu time    0.0017: real time    0.0017
    --------------------------------------------
      LOOP:  cpu time   25.0356: real time   25.6170

 eigenvalue-minimisations  : 21807
 total energy-change (2. order) : 0.9443684E+01  (-0.1339736E+02)
 number of electron     672.0000000 magnetization      48.0000000
 augmentation part      672.0000000 magnetization      48.0000000

 Free energy of the ion-electron system (eV)
  ---------------------------------------------------
  alpha Z        PSCENC =      2652.81237852
  Ewald energy   TEWEN  =    -41752.11561242
  -Hartree energ DENC   =    -25855.88734040
  -exchange      EXHF   =         0.00000000
  -V(xc)+E(xc)   XCENC  =      3606.54307539
  PAW double counting   =     55594.23204139   -59034.67079123
  entropy T*S    EENTRO =        -0.00000001
  eigenvalues    EBANDS =    -10285.16268189
  atomic energy  EATOM  =     73862.19814772
  Solvation  Ediel_sol  =         0.00000000
  ---------------------------------------------------
  free energy    TOTEN  =     -1212.05078293 eV

  energy without entropy =    -1212.05078292  energy(sigma->0) =    -1212.05078292


--------------------------------------------------------------------------------------------------------




--------------------------------------- Iteration      1(  10)  ---------------------------------------


    EDDIAG:  cpu time    4.4462: real time    4.8642
  RMM-DIIS:  cpu time   17.7097: real time   17.7541
    ORTHCH:  cpu time    1.1584: real time    1.2389
       DOS:  cpu time    0.0012: real time    0.0012
    --------------------------------------------
      LOOP:  cpu time   23.3156: real time   23.8584

 eigenvalue-minimisations  : 19711
 total energy-change (2. order) :-0.1889655E+01  (-0.5318645E+00)
 number of electron     672.0000000 magnetization      48.0000000
 augmentation part      672.0000000 magnetization      48.0000000

 Free energy of the ion-electron system (eV)
  ---------------------------------------------------
  alpha Z        PSCENC =      2652.81237852
  Ewald energy   TEWEN  =    -41752.11561242
  -Hartree energ DENC   =    -25855.88734040
  -exchange      EXHF   =         0.00000000
  -V(xc)+E(xc)   XCENC  =      3606.54307539
  PAW double counting   =     55594.23204139   -59034.67079123
  entropy T*S    EENTRO =        -0.00000004
  eigenvalues    EBANDS =    -10287.05233641
  atomic energy  EATOM  =     73862.19814772
  Solvation  Ediel_sol  =         0.00000000
  ---------------------------------------------------
  free energy    TOTEN  =     -1213.94043748 eV

  energy without entropy =    -1213.94043744  energy(sigma->0) =    -1213.94043746


--------------------------------------------------------------------------------------------------------




--------------------------------------- Iteration      1(  11)  ---------------------------------------


    EDDIAG:  cpu time    4.4175: real time    4.8360
  RMM-DIIS:  cpu time   20.1080: real time   20.1512
    ORTHCH:  cpu time    1.1517: real time    1.2358
       DOS:  cpu time    0.0012: real time    0.0012
    --------------------------------------------
      LOOP:  cpu time   25.6784: real time   26.2242

 eigenvalue-minimisations  : 22645
 total energy-change (2. order) : 0.7070183E-01  (-0.4351456E-01)
 number of electron     672.0000000 magnetization      48.0000000
 augmentation part      672.0000000 magnetization      48.0000000

 Free energy of the ion-electron system (eV)
  ---------------------------------------------------
  alpha Z        PSCENC =      2652.81237852
  Ewald energy   TEWEN  =    -41752.11561242
  -Hartree energ DENC   =    -25855.88734040
  -exchange      EXHF   =         0.00000000
  -V(xc)+E(xc)   XCENC  =      3606.54307539
  PAW double counting   =     55594.23204139   -59034.67079123
  entropy T*S    EENTRO =        -0.00000004
  eigenvalues    EBANDS =    -10286.98163458
  atomic energy  EATOM  =     73862.19814772
  Solvation  Ediel_sol  =         0.00000000
  ---------------------------------------------------
  free energy    TOTEN  =     -1213.86973565 eV

  energy without entropy =    -1213.86973561  energy(sigma->0) =    -1213.86973563


--------------------------------------------------------------------------------------------------------




--------------------------------------- Iteration      1(  12)  ---------------------------------------


    EDDIAG:  cpu time    4.3934: real time    4.8142
  RMM-DIIS:  cpu time   21.4526: real time   21.4930
    ORTHCH:  cpu time    1.1561: real time    1.2377
       DOS:  cpu time    0.0015: real time    0.0015
    CHARGE:  cpu time    1.7851: real time    1.7859
    MIXING:  cpu time    0.0010: real time    0.0011
    --------------------------------------------
      LOOP:  cpu time   28.7897: real time   29.3334

 eigenvalue-minimisations  : 24378
 total energy-change (2. order) :-0.8360897E-03  (-0.4292598E-02)
 number of electron     671.9999820 magnetization      48.0000026
 augmentation part      239.1253281 magnetization      29.0423232

 Broyden mixing:
  rms(total) = 0.12646E+02    rms(broyden)= 0.12637E+02
  rms(prec ) = 0.14483E+02
  weight for this iteration     100.00

 Free energy of the ion-electron system (eV)
  ---------------------------------------------------
  alpha Z        PSCENC =      2652.81237852
  Ewald energy   TEWEN  =    -41752.11561242
  -Hartree energ DENC   =    -25855.88734040
  -exchange      EXHF   =         0.00000000
  -V(xc)+E(xc)   XCENC  =      3606.54307539
  PAW double counting   =     55594.23204139   -59034.67079123
  entropy T*S    EENTRO =        -0.00000004
  eigenvalues    EBANDS =    -10286.98247067
  atomic energy  EATOM  =     73862.19814772
  Solvation  Ediel_sol  =         0.00000000
  ---------------------------------------------------
  free energy    TOTEN  =     -1213.87057174 eV

  energy without entropy =    -1213.87057170  energy(sigma->0) =    -1213.87057172


--------------------------------------------------------------------------------------------------------




--------------------------------------- Iteration      1(  13)  ---------------------------------------


    POTLOK:  cpu time    0.1728: real time    0.1736
    SETDIJ:  cpu time    4.9945: real time    4.9959
    EDDIAG:  cpu time    4.4660: real time    4.8792
  RMM-DIIS:  cpu time   17.3428: real time   17.4744
    ORTHCH:  cpu time    1.1526: real time    1.2364
       DOS:  cpu time    0.0016: real time    0.0016
    CHARGE:  cpu time    1.7878: real time    1.7912
    MIXING:  cpu time    0.0010: real time    0.0011
    --------------------------------------------
      LOOP:  cpu time   29.9191: real time   30.5534

 eigenvalue-minimisations  : 18768
 total energy-change (2. order) : 0.2296685E+03  (-0.1214155E+03)
 number of electron     671.9999853 magnetization      48.0000032
 augmentation part      268.6812966 magnetization      26.7040179

 Broyden mixing:
  rms(total) = 0.13854E+02    rms(broyden)= 0.13851E+02
  rms(prec ) = 0.15558E+02
  weight for this iteration     100.00

 eigenvalues of (default mixing * dielectric matrix)
  average eigenvalue GAMMA=   0.3200
  0.3200

 Free energy of the ion-electron system (eV)
  ---------------------------------------------------
  alpha Z        PSCENC =      2652.81237852
  Ewald energy   TEWEN  =    -41752.11561242
  -Hartree energ DENC   =    -25194.13743691
  -exchange      EXHF   =         0.00000000
  -V(xc)+E(xc)   XCENC  =      3697.00948537
  PAW double counting   =     59963.42014910   -63388.92821485
  entropy T*S    EENTRO =        -0.07014669
  eigenvalues    EBANDS =    -10824.39078439
  atomic energy  EATOM  =     73862.19814772
  Solvation  Ediel_sol  =         0.00000000
  ---------------------------------------------------
  free energy    TOTEN  =      -984.20203454 eV

  energy without entropy =     -984.13188786  energy(sigma->0) =     -984.16696120


--------------------------------------------------------------------------------------------------------




--------------------------------------- Iteration      1(  14)  ---------------------------------------


    POTLOK:  cpu time    0.1719: real time    0.1726
    SETDIJ:  cpu time    4.9580: real time    4.9618
    EDDIAG:  cpu time    4.4592: real time    4.8865
  RMM-DIIS:  cpu time   17.7799: real time   17.8297
    ORTHCH:  cpu time    1.1534: real time    1.2369
       DOS:  cpu time    0.0011: real time    0.0010
    CHARGE:  cpu time    1.8019: real time    1.8029
    MIXING:  cpu time    0.0021: real time    0.0021
    --------------------------------------------
      LOOP:  cpu time   30.3274: real time   30.8936

 eigenvalue-minimisations  : 19420
 total energy-change (2. order) : 0.6914222E+02  (-0.1727561E+02)
 number of electron     671.9999848 magnetization      48.0000051
 augmentation part      246.6706475 magnetization      32.1987926

 Broyden mixing:
  rms(total) = 0.53305E+01    rms(broyden)= 0.53263E+01
  rms(prec ) = 0.57489E+01
  weight for this iteration     100.00

 eigenvalues of (default mixing * dielectric matrix)
  average eigenvalue GAMMA=   0.7330
  1.1068  0.3593

 Free energy of the ion-electron system (eV)
  ---------------------------------------------------
  alpha Z        PSCENC =      2652.81237852
  Ewald energy   TEWEN  =    -41752.11561242
  -Hartree energ DENC   =    -25802.31116382
  -exchange      EXHF   =         0.00000000
  -V(xc)+E(xc)   XCENC  =      3674.72840813
  PAW double counting   =     63371.86430113   -66854.67865114
  entropy T*S    EENTRO =        -0.00000000
  eigenvalues    EBANDS =    -10067.55761968
  atomic energy  EATOM  =     73862.19814772
  Solvation  Ediel_sol  =         0.00000000
  ---------------------------------------------------
  free energy    TOTEN  =      -915.05981154 eV

  energy without entropy =     -915.05981154  energy(sigma->0) =     -915.05981154


--------------------------------------------------------------------------------------------------------




--------------------------------------- Iteration      1(  15)  ---------------------------------------


    POTLOK:  cpu time    0.1664: real time    0.1670
    SETDIJ:  cpu time    4.9702: real time    4.9720
    EDDIAG:  cpu time    4.4200: real time    4.8396
  RMM-DIIS:  cpu time   18.0249: real time   18.0555
    ORTHCH:  cpu time    1.1541: real time    1.2397
       DOS:  cpu time    0.0011: real time    0.0011
    CHARGE:  cpu time    1.7824: real time    1.7860
    MIXING:  cpu time    0.0009: real time    0.0009
    --------------------------------------------
      LOOP:  cpu time   30.5200: real time   31.0618

 eigenvalue-minimisations  : 20235
 total energy-change (2. order) : 0.1405119E+02  (-0.1936174E+01)
 number of electron     671.9999845 magnetization      48.0000064
 augmentation part      249.6482338 magnetization      33.7997942

 Broyden mixing:
  rms(total) = 0.22075E+01    rms(broyden)= 0.22071E+01
  rms(prec ) = 0.22935E+01
  weight for this iteration     100.00

 eigenvalues of (default mixing * dielectric matrix)
  average eigenvalue GAMMA=   0.9456
  1.7055  0.3868  0.7445

 Free energy of the ion-electron system (eV)
  ---------------------------------------------------
  alpha Z        PSCENC =      2652.81237852
  Ewald energy   TEWEN  =    -41752.11561242
  -Hartree energ DENC   =    -25729.81966059
  -exchange      EXHF   =         0.00000000
  -V(xc)+E(xc)   XCENC  =      3707.40182905
  PAW double counting   =     67480.29000929   -71003.49191339
  entropy T*S    EENTRO =        -0.00000000
  eigenvalues    EBANDS =    -10118.28379985
  atomic energy  EATOM  =     73862.19814772
  Solvation  Ediel_sol  =         0.00000000
  ---------------------------------------------------
  free energy    TOTEN  =      -901.00862166 eV

  energy without entropy =     -901.00862166  energy(sigma->0) =     -901.00862166


--------------------------------------------------------------------------------------------------------




--------------------------------------- Iteration      1(  16)  ---------------------------------------


    POTLOK:  cpu time    0.1665: real time    0.1675
    SETDIJ:  cpu time    5.0270: real time    5.0310
    EDDIAG:  cpu time    4.4137: real time    4.8357
  RMM-DIIS:  cpu time   17.5989: real time   17.6506
    ORTHCH:  cpu time    1.1532: real time    1.2361
       DOS:  cpu time    0.0013: real time    0.0013
    CHARGE:  cpu time    1.8187: real time    1.8203
    MIXING:  cpu time    0.0009: real time    0.0009
    --------------------------------------------
      LOOP:  cpu time   30.1801: real time   30.7434

 eigenvalue-minimisations  : 19080
 total energy-change (2. order) :-0.1466805E+01  (-0.6573153E+00)
 number of electron     671.9999847 magnetization      48.0000068
 augmentation part      251.1714136 magnetization      33.8860708

 Broyden mixing:
  rms(total) = 0.14635E+01    rms(broyden)= 0.14630E+01
  rms(prec ) = 0.15482E+01
  weight for this iteration     100.00

 eigenvalues of (default mixing * dielectric matrix)
  average eigenvalue GAMMA=   0.9743
  2.0941  0.8950  0.3943  0.5139

 Free energy of the ion-electron system (eV)
  ---------------------------------------------------
  alpha Z        PSCENC =      2652.81237852
  Ewald energy   TEWEN  =    -41752.11561242
  -Hartree energ DENC   =    -25679.33462729
  -exchange      EXHF   =         0.00000000
  -V(xc)+E(xc)   XCENC  =      3708.67827451
  PAW double counting   =     70475.15247482   -74028.19294845
  entropy T*S    EENTRO =        -0.00000000
  eigenvalues    EBANDS =    -10141.67351445
  atomic energy  EATOM  =     73862.19814772
  Solvation  Ediel_sol  =         0.00000000
  ---------------------------------------------------
  free energy    TOTEN  =      -902.47542703 eV

  energy without entropy =     -902.47542703  energy(sigma->0) =     -902.47542703


--------------------------------------------------------------------------------------------------------




--------------------------------------- Iteration      1(  17)  ---------------------------------------


    POTLOK:  cpu time    0.1654: real time    0.1655
    SETDIJ:  cpu time    5.0324: real time    5.0349
    EDDIAG:  cpu time    4.4509: real time    4.8705
  RMM-DIIS:  cpu time   18.3486: real time   18.4843
    ORTHCH:  cpu time    1.1588: real time    1.2390
       DOS:  cpu time    0.0011: real time    0.0010
    CHARGE:  cpu time    1.7854: real time    1.7887
    MIXING:  cpu time    0.0018: real time    0.0018
    --------------------------------------------
      LOOP:  cpu time   30.9443: real time   31.5857

 eigenvalue-minimisations  : 20552
 total energy-change (2. order) : 0.1276040E+00  (-0.6613668E-01)
 number of electron     671.9999845 magnetization      48.0000070
 augmentation part      251.1291563 magnetization      33.8794350

 Broyden mixing:
  rms(total) = 0.77351E+00    rms(broyden)= 0.77338E+00
  rms(prec ) = 0.87176E+00
  weight for this iteration     100.00

 eigenvalues of (default mixing * dielectric matrix)
  average eigenvalue GAMMA=   0.9995
  2.2429  1.1239  0.3831  0.6902  0.5575

 Free energy of the ion-electron system (eV)
  ---------------------------------------------------
  alpha Z        PSCENC =      2652.81237852
  Ewald energy   TEWEN  =    -41752.11561242
  -Hartree energ DENC   =    -25670.00269715
  -exchange      EXHF   =         0.00000000
  -V(xc)+E(xc)   XCENC  =      3705.81541103
  PAW double counting   =     71355.61673586   -74917.14215204
  entropy T*S    EENTRO =        -0.00000000
  eigenvalues    EBANDS =    -10139.53003454
  atomic energy  EATOM  =     73862.19814772
  Solvation  Ediel_sol  =         0.00000000
  ---------------------------------------------------
  free energy    TOTEN  =      -902.34782300 eV

  energy without entropy =     -902.34782300  energy(sigma->0) =     -902.34782300


--------------------------------------------------------------------------------------------------------




--------------------------------------- Iteration      1(  18)  ---------------------------------------


    POTLOK:  cpu time    0.1672: real time    0.1674
    SETDIJ:  cpu time    4.9977: real time    5.0026
    EDDIAG:  cpu time    4.3706: real time    4.8000
  RMM-DIIS:  cpu time   17.8660: real time   17.8985
    ORTHCH:  cpu time    1.1510: real time    1.2327
       DOS:  cpu time    0.0015: real time    0.0015
    CHARGE:  cpu time    1.7893: real time    1.7906
    MIXING:  cpu time    0.0011: real time    0.0011
    --------------------------------------------
      LOOP:  cpu time   30.3446: real time   30.8944

 eigenvalue-minimisations  : 19199
 total energy-change (2. order) : 0.4082982E+00  (-0.7043741E-01)
 number of electron     671.9999847 magnetization      48.0000071
 augmentation part      250.6163836 magnetization      33.8416127

 Broyden mixing:
  rms(total) = 0.27144E+00    rms(broyden)= 0.27115E+00
  rms(prec ) = 0.28598E+00
  weight for this iteration     100.00

 eigenvalues of (default mixing * dielectric matrix)
  average eigenvalue GAMMA=   1.0187
  2.4602  1.3619  0.8413  0.3848  0.5883  0.4757

 Free energy of the ion-electron system (eV)
  ---------------------------------------------------
  alpha Z        PSCENC =      2652.81237852
[...]
   4      -0.663    -0.867     1.530     0.022     0.022     0.441
   5      -0.844    -0.764     1.608     0.105    -0.405     0.302
   6      -0.554    -0.766     1.321    -0.001     0.044    -0.362
   7      -0.757    -0.692     1.449     0.085     0.397    -0.304
   8      -0.835    -0.706     1.541    -0.154    -0.338    -0.285
   9      -0.593    -0.860     1.453    -0.019     0.024    -0.351
  10      -0.792    -0.694     1.487     0.035    -0.432     0.167
  11      -0.842    -0.975     1.816     0.036     0.010     0.116
  12      -0.988    -0.792     1.781     0.147     0.388    -0.404
  13      -0.752    -0.936     1.688     0.033    -0.069     0.485
  14      -0.660    -0.642     1.302    -0.072    -0.131    -0.070
  15      -0.755    -0.785     1.540    -0.047     0.362     0.220
  16      -0.973    -0.987     1.960    -0.034    -0.043    -0.108
  17       1.305     1.592    -2.897     0.009     0.010     0.063
  18       1.132     1.780    -2.912    -0.006     0.032     0.030
  19       1.599     1.330    -2.929     0.068    -0.006    -0.016
  20       1.575     1.465    -3.040    -0.047    -0.173    -0.058
  21       1.502     1.578    -3.080     0.012    -0.107     0.009
  22       1.432     1.509    -2.941    -0.215    -0.046    -0.093
  23       1.424     1.449    -2.873     0.085     0.100     0.019
  24       1.344     1.375    -2.720    -0.091     0.113     0.152
  25      -1.142     0.310     0.832    -0.995    -1.290    -0.153
  26       0.762    -2.207     1.445    -0.631     0.955    -0.225
  27       1.900    -2.210     0.310     1.721    -1.184     0.698
  28      -1.374    -0.081     1.454     1.359    -0.223     0.600
  29       0.697    -0.509    -0.188    -2.060     2.081     1.475
  30      -1.009     2.025    -1.016    -0.594    -0.346     0.753
  31      -0.090     0.141    -0.051     0.540     0.560    -0.065
  32       0.306     0.711    -1.017    -0.196     0.042     0.574
  33      -0.511    -2.638     3.149     0.138    -0.091     0.201
  34       0.027    -1.511     1.484     0.404    -0.300    -0.980
  35      -0.753    -2.566     3.318    -0.257    -0.856     0.179
  36       0.225    -1.370     1.145    -0.585     0.534    -0.238
  37      -1.040    -0.491     1.531     1.071     0.035     0.081
  38      -0.718    -0.541     1.260    -0.069     0.754     0.933
  39       0.855    -2.282     1.427     0.912    -1.263    -0.250
  40      -1.481    -0.828     2.309    -0.509     0.269    -0.871
  41      -3.301     2.834     0.467    -4.410     1.449    -3.280
  42      -1.100    -0.696     1.796     5.358     2.793     3.964
  43       4.944    -5.757     0.814    -0.518    -4.143    -0.934
  44      -1.525     2.826    -1.301     5.487    -1.370    -2.824
  45      -2.505     0.693     1.812    -5.071    -0.941     5.012
  46       3.460    -4.413     0.953     1.441     4.062     2.237
  47      -2.373     2.876    -0.502    -4.957     1.454    -2.714
  48       2.870    -6.474     3.604    -0.407    -4.866     0.038
  49      -1.599     0.855     0.745     5.141     4.075     2.370
  50       7.475    -6.716    -0.759     0.665     3.758     0.831
  51      -1.613    -0.041     1.653    -5.099    -1.148     3.840
  52      -3.780     1.756     2.024     4.686    -2.473    -3.947
  53      -3.463     4.991    -1.528    -5.495     2.576    -4.666
  54      -2.805     2.722     0.083     4.922     3.040     2.370
  55       4.667    -4.910     0.243    -1.723    -2.899     0.223
  56      -6.233     3.607     2.627     6.044    -4.376    -4.752
  57      -1.653    -1.448     3.101    -4.297    -2.758     3.770
  58       7.077    -5.527    -1.550     1.029     2.760     0.670
  59      -3.967     4.698    -0.730    -7.660     3.040    -4.184
  60       6.395    -5.402    -0.993    -0.210    -4.230     1.786
  61      -3.199     1.618     1.581     5.067     2.074     4.756
  62       5.436    -6.095     0.659     3.313     4.534     0.442
  63      -3.394     3.095     0.299    -3.634    -2.168     3.512
  64      -4.944     5.503    -0.559     4.330    -1.760    -3.343
  65      -3.951     4.493    -0.542    -3.248     1.743    -3.207
  66      -1.780    -0.143     1.923     3.632     2.462     5.219
  67       4.676    -6.374     1.698    -1.347    -5.124     0.188
  68      -2.449     2.411     0.038     2.917    -2.926    -3.185
  69      -5.524     2.488     3.036    -3.826    -1.988     3.256
  70       6.601    -7.314     0.713     0.106     4.098    -0.980
  71      -3.936     2.157     1.779    -2.275     0.699    -4.849
  72       4.494    -6.231     1.737    -0.431    -5.883    -0.020
  73      -3.800     1.942     1.857     6.073     1.774     4.046
  74       6.557    -5.767    -0.790    -0.031     3.864    -0.428
  75      -2.938     0.594     2.344    -4.781    -3.970     3.453
  76      -4.003     1.254     2.748     4.689    -1.637    -4.792
  77      -5.081     1.778     3.303    -4.693     3.087    -5.011
  78      -4.283     3.331     0.952     2.989     3.189     3.327
  79       5.806    -4.250    -1.556    -2.001    -4.803     1.788
  80      -3.910     4.052    -0.142     5.001    -1.869    -4.684
  81      -3.135     2.893     0.243    -5.308    -3.901     3.735
  82       3.102    -7.045     3.943    -1.664     6.393    -1.031
  83      -4.347     2.021     2.326    -3.375     3.506    -5.575
  84       5.674    -6.559     0.885    -2.231    -3.009     1.501
  85      -1.817    -1.124     2.942     5.341     0.855     5.871
  86       6.174    -5.447    -0.728    -0.481     4.906    -0.641
  87      -5.221     4.072     1.150    -3.708    -3.242     3.182
  88      -0.378     2.971    -2.593     4.704    -0.507    -4.069
 ---------------------------------------------------------------------


 Total hyperfine coupling parameters after diagonalization (MHz)
 (convention: |A_zz| > |A_xx| > |A_yy|)
 ----------------------------------------------------------------------
  ion      A_xx      A_yy      A_zz     asymmetry (A_yy - A_xx)/ A_zz 
 ----------------------------------------------------------------------
   1       3.028     2.600     5.407      -0.079
   2       1.151     0.982     2.928      -0.058
   3      -0.419    -0.400     2.325       0.008
   4       1.828     1.544     4.099      -0.069
   5       2.773     2.452     5.170      -0.062
   6       1.139     0.867     3.077      -0.088
   7       1.433     1.146     3.622      -0.079
   8       2.296     1.888     4.518      -0.090
   9       1.625     1.305     3.723      -0.086
  10       2.318     2.108     4.578      -0.046
  11       1.039     0.885     3.694      -0.042
  12       2.803     2.360     5.414      -0.082
  13       1.051     0.767     3.574      -0.079
  14       1.248     1.093     3.140      -0.050
  15       1.795     1.636     4.137      -0.039
  16       0.132     0.060     3.043      -0.024
  17      12.719     8.516    13.007      -0.323
  18      14.600    10.556    15.248      -0.265
  19      14.550    10.307    14.852      -0.286
  20      15.791    11.293    15.938      -0.282
  21      17.178    12.593    17.255      -0.266
  22      14.644    10.448    15.081      -0.278
  23      13.501     9.273    13.673      -0.309
  24      13.681     9.677    13.858      -0.289
  25      95.201    92.451    96.173      -0.029
  26      93.301    90.817    95.339      -0.026
  27      95.543    92.052    98.076      -0.036
  28      95.715    92.798    96.785      -0.030
  29     103.016    98.140   104.524      -0.047
  30      95.200    94.802    98.498      -0.004
  31      98.315    97.365    98.934      -0.010
  32      94.055    92.595    94.725      -0.015
  33      94.424    92.273    98.085      -0.022
  34      97.427    95.588    99.305      -0.019
  35      99.327    97.622   103.724      -0.016
  36      95.992    94.333    97.365      -0.017
  37     100.162    97.957   101.365      -0.022
  38      98.727    98.033   101.130      -0.007
  39      97.539    95.038   100.127      -0.025
  40      97.596    96.631   100.972      -0.010
  41       3.877    -0.280    12.413      -0.335
  42       6.361     1.778    16.248      -0.282
  43       4.289    -0.251    13.281      -0.342
  44       3.912     0.914    13.865      -0.216
  45       5.176    -0.667    14.280      -0.409
  46       6.350     2.907    15.135      -0.227
  47       3.535    -0.089    12.379      -0.293
  48       4.242    -0.625    13.993      -0.348
  49       6.464     1.756    15.733      -0.299
  50       5.484     0.808    16.626      -0.281
  51       7.293     1.500    14.837      -0.390
  52       7.625     2.740    17.235      -0.283
  53       4.466     2.211    18.532      -0.122
  54       3.783    -0.996    12.486      -0.383
  55       7.187     3.076    14.645      -0.281
  56      10.347     2.464    23.028      -0.342
  57       5.007     0.745    14.228      -0.300
  58       5.853     2.506    16.159      -0.207
  59       9.446     3.849    23.685      -0.236
  60       5.239     1.247    15.813      -0.252
  61       3.445    -0.978    14.122      -0.313
  62       6.184     0.858    16.734      -0.318
  63       4.088     1.054    13.323      -0.228
  64       6.789     2.266    17.423      -0.260
  65       7.253     4.182    16.612      -0.185
  66       1.788    -0.653    12.622      -0.193
  67       6.576     2.063    17.246      -0.262
  68       4.916     2.410    13.391      -0.187
  69       6.139    -0.732    13.706      -0.501
  70       8.238     2.026    18.198      -0.341
  71       5.571     3.011    15.134      -0.169
  72       5.133     1.773    17.200      -0.195
  73       7.148     0.367    16.689      -0.406
  74       5.448     2.040    16.071      -0.212
  75       4.476    -0.232    14.641      -0.322
  76       5.536     0.166    15.461      -0.347
  77       8.818     3.449    20.563      -0.261
  78       5.212     0.446    13.738      -0.347
  79       1.125    -0.514    13.346      -0.123
  80       4.384     0.865    16.395      -0.215
  81       4.918     0.622    16.393      -0.262
  82       3.739    -0.745    16.704      -0.268
  83       4.275     1.617    17.143      -0.155
  84       9.158     2.623    17.329      -0.377
  85       8.974     1.442    18.186      -0.414
  86       3.417     1.102    15.396      -0.150
  87       5.102    -1.177    13.851      -0.453
  88       4.847     1.211    14.450      -0.252
 ---------------------------------------------------------------------



--------------------------------------------------------------------------------------------------------


 stress matrix after NEB project (eV)
    -43.56511      0.11243     -3.57891
      0.10245    -40.84461      7.30275
     -3.57030      7.27607    -55.07132
  FORCES: max atom, RMS     2.827759    1.153679
  FORCE total and by dimension   10.822471    2.160237
  Stress total and by dimension   82.042073   55.071324
     LOOP+:  cpu time  819.8139: real time  837.3001
    4ORBIT:  cpu time    0.0000: real time    0.0000
 


 total charge     
 
# of ion       s       p       d       tot
------------------------------------------
    1        0.054   5.996   0.000   6.050
    2        0.046   5.989   0.000   6.036
    3        0.052   5.995   0.000   6.047
    4        0.049   5.990   0.000   6.039
    5        0.050   5.991   0.000   6.041
    6        0.053   5.996   0.000   6.050
    7        0.044   5.986   0.000   6.030
    8        0.051   5.992   0.000   6.043
    9        0.048   5.990   0.000   6.038
   10        0.050   5.991   0.000   6.041
   11        0.048   5.992   0.000   6.040
   12        0.060   6.006   0.000   6.066
   13        0.049   5.991   0.000   6.040
   14        0.051   5.992   0.000   6.043
   15        0.047   5.988   0.000   6.036
   16        0.051   5.994   0.000   6.045
   17        0.154   6.137   0.091   6.383
   18        0.152   6.131   0.086   6.369
   19        0.152   6.132   0.087   6.371
   20        0.152   6.134   0.089   6.375
   21        0.151   6.131   0.087   6.369
   22        0.150   6.130   0.086   6.365
   23        0.147   6.125   0.081   6.353
   24        0.145   6.119   0.076   6.340
   25        0.384   6.473   4.845  11.702
   26        0.384   6.473   4.841  11.697
   27        0.392   6.489   4.868  11.749
   28        0.392   6.488   4.870  11.750
   29        0.367   6.437   4.825  11.629
   30        0.370   6.442   4.816  11.627
   31        0.373   6.449   4.834  11.656
   32        0.400   6.505   4.885  11.790
   33        0.375   6.448   4.829  11.651
   34        0.367   6.439   4.805  11.612
   35        0.371   6.444   4.813  11.629
   36        0.374   6.450   4.825  11.649
   37        0.374   6.451   4.835  11.660
   38        0.383   6.469   4.854  11.705
   39        0.368   6.438   4.815  11.620
   40        0.372   6.448   4.823  11.642
   41        1.596   3.505   0.000   5.101
   42        1.600   3.530   0.000   5.130
   43        1.596   3.508   0.000   5.103
   44        1.597   3.507   0.000   5.104
   45        1.598   3.519   0.000   5.117
   46        1.596   3.510   0.000   5.106
   47        1.596   3.524   0.000   5.120
   48        1.599   3.516   0.000   5.115
   49        1.597   3.500   0.000   5.097
   50        1.599   3.497   0.000   5.096
   51        1.599   3.544   0.000   5.143
   52        1.601   3.553   0.000   5.154
   53        1.602   3.488   0.000   5.090
   54        1.597   3.513   0.000   5.110
   55        1.596   3.522   0.000   5.118
   56        1.603   3.489   0.000   5.092
   57        1.600   3.520   0.000   5.120
   58        1.600   3.536   0.000   5.136
   59        1.607   3.495   0.000   5.102
   60        1.600   3.498   0.000   5.097
   61        1.597   3.503   0.000   5.101
   62        1.604   3.519   0.000   5.123
   63        1.599   3.522   0.000   5.120
   64        1.601   3.534   0.000   5.135
   65        1.597   3.499   0.000   5.096
   66        1.598   3.505   0.000   5.102
   67        1.599   3.519   0.000   5.119
   68        1.593   3.481   0.000   5.074
   69        1.599   3.510   0.000   5.109
   70        1.601   3.495   0.000   5.096
   71        1.596   3.499   0.000   5.095
   72        1.600   3.510   0.000   5.109
   73        1.602   3.499   0.000   5.101
   74        1.597   3.500   0.000   5.097
   75        1.598   3.505   0.000   5.104
   76        1.599   3.536   0.000   5.136
   77        1.606   3.526   0.000   5.132
   78        1.598   3.510   0.000   5.107
   79        1.599   3.472   0.000   5.071
   80        1.598   3.472   0.000   5.070
   81        1.600   3.472   0.000   5.072
   82        1.600   3.484   0.000   5.084
   83        1.601   3.485   0.000   5.085
   84        1.600   3.537   0.000   5.136
   85        1.601   3.512   0.000   5.113
   86        1.598   3.478   0.000   5.077
   87        1.598   3.527   0.000   5.125
   88        1.599   3.499   0.000   5.098
--------------------------------------------------
tot         84.805 416.644  78.066 579.515
 


 magnetization (x)
 
# of ion       s       p       d       tot
------------------------------------------
    1        0.003   0.001   0.000   0.003
    2        0.001   0.001   0.000   0.002
    3        0.000   0.000   0.000   0.000
    4        0.002   0.000   0.000   0.002
    5        0.003   0.000   0.000   0.003
    6        0.001   0.000   0.000   0.001
    7        0.002  -0.000   0.000   0.001
    8        0.002   0.000   0.000   0.002
    9        0.002   0.001   0.000   0.002
   10        0.002   0.000   0.000   0.003
   11        0.001   0.001   0.000   0.002
   12        0.003   0.001   0.000   0.003
   13        0.001  -0.000   0.000   0.001
   14        0.001   0.001   0.000   0.002
   15        0.002   0.000   0.000   0.002
   16        0.001   0.001   0.000   0.001
   17        0.006   0.002   0.001   0.009
   18        0.007   0.002   0.001   0.010
   19        0.007   0.003   0.001   0.011
   20        0.008   0.003   0.001   0.012
   21        0.009   0.003   0.001   0.013
   22        0.007   0.003   0.001   0.011
   23        0.007   0.002   0.001   0.010
   24        0.007   0.002   0.001   0.010
   25        0.015   0.030   2.736   2.781
   26        0.014   0.030   2.742   2.786
   27        0.015   0.031   2.718   2.764
   28        0.015   0.029   2.724   2.768
   29        0.017   0.031   2.763   2.811
   30        0.015   0.030   2.760   2.805
   31        0.016   0.030   2.750   2.796
   32        0.015   0.032   2.699   2.745
   33        0.014   0.028   2.755   2.798
   34        0.016   0.029   2.787   2.831
   35        0.016   0.030   2.786   2.833
   36        0.015   0.030   2.755   2.801
   37        0.016   0.030   2.752   2.798
   38        0.016   0.031   2.731   2.778
   39        0.015   0.030   2.766   2.812
   40        0.016   0.030   2.756   2.802
   41        0.002   0.022   0.000   0.024
   42        0.002   0.041   0.000   0.043
   43        0.002   0.026   0.000   0.028
   44        0.002   0.024   0.000   0.025
   45        0.002   0.031   0.000   0.032
   46        0.002   0.039   0.000   0.041
   47        0.001   0.022   0.000   0.023
   48        0.002   0.024   0.000   0.026
   49        0.002   0.031   0.000   0.033
   50        0.002   0.041   0.000   0.043
   51        0.002   0.046   0.000   0.048
   52        0.002   0.055   0.000   0.057
   53        0.002   0.033   0.000   0.035
   54        0.001   0.012   0.000   0.014
   55        0.002   0.039   0.000   0.041
   56        0.003   0.071   0.000   0.074
   57        0.002   0.026   0.000   0.028
   58        0.002   0.048   0.000   0.050
   59        0.003   0.062   0.000   0.065
   60        0.002   0.029   0.000   0.031
   61        0.002   0.026   0.000   0.028
   62        0.002   0.038   0.000   0.040
   63        0.002   0.022   0.000   0.023
   64        0.002   0.050   0.000   0.053
   65        0.002   0.038   0.000   0.041
   66        0.001   0.008   0.000   0.009
   67        0.002   0.047   0.000   0.049
   68        0.002   0.027   0.000   0.029
   69        0.002   0.022   0.000   0.024
   70        0.002   0.045   0.000   0.047
   71        0.002   0.032   0.000   0.034
   72        0.002   0.043   0.000   0.045
   73        0.002   0.039   0.000   0.041
   74        0.002   0.033   0.000   0.035
   75        0.002   0.033   0.000   0.035
   76        0.002   0.042   0.000   0.044
   77        0.003   0.062   0.000   0.065
   78        0.002   0.024   0.000   0.026
   79        0.002   0.001   0.000   0.003
   80        0.002   0.035   0.000   0.037
   81        0.002   0.022   0.000   0.024
   82        0.002   0.025   0.000   0.027
   83        0.002   0.031   0.000   0.033
   84        0.002   0.050   0.000   0.053
   85        0.002   0.054   0.000   0.056
   86        0.002   0.017   0.000   0.019
   87        0.002   0.032   0.000   0.033
   88        0.002   0.019   0.000   0.021
--------------------------------------------------
tot          0.426   2.147  43.990  46.563
 

 total amount of memory used by VASP MPI-rank0    94418. kBytes
=======================================================================

   base      :      30000. kBytes
   nonlr-proj:      13659. kBytes
   fftplans  :       1275. kBytes
   grid      :      22786. kBytes
   one-center:       2737. kBytes
   wavefun   :      23961. kBytes
 
  
  
 General timing and accounting informations for this job:
 ========================================================
  
                  Total CPU time used (sec):      840.919
                            User time (sec):      832.326
                          System time (sec):        8.593
                         Elapsed time (sec):      861.000
  
                   Maximum memory used (kb):      194384.
                   Average memory used (kb):           0.
  
                          Minor page faults:       304136
                          Major page faults:            0
                 Voluntary context switches:       287807
