 vasp.5.4.4.18Apr17-6-g9f103f2a35 (build Dec 02 2020 12:53:39) complex          
  
 executed on             LinuxIFC date 2021.08.03  01:18:09
 running on   96 total cores
 distrk:  each k-point on   96 cores,    1 groups
 distr:  one band on NCORES_PER_BAND=   1 cores,   96 groups


--------------------------------------------------------------------------------------------------------


 INCAR:
 POTCAR:    PAW_PBE Na_pv 19Sep2006               
 POTCAR:    PAW_PBE Mg_pv 13Apr2007               
 POTCAR:    PAW_PBE Mn_pv 02Aug2007               
 POTCAR:    PAW_PBE O 08Apr2002                   

 ----------------------------------------------------------------------------- 
|                                                                             |
|           W    W    AA    RRRRR   N    N  II  N    N   GGGG   !!!           |
|           W    W   A  A   R    R  NN   N  II  NN   N  G    G  !!!           |
|           W    W  A    A  R    R  N N  N  II  N N  N  G       !!!           |
|           W WW W  AAAAAA  RRRRR   N  N N  II  N  N N  G  GGG   !            |
|           WW  WW  A    A  R   R   N   NN  II  N   NN  G    G                |
|           W    W  A    A  R    R  N    N  II  N    N   GGGG   !!!           |
|                                                                             |
|      For optimal performance we recommend to set                            |
|        NCORE= 4 - approx SQRT( number of cores)                             |
|      NCORE specifies how many cores store one orbital (NPAR=cpu/NCORE).     |
|      This setting can  greatly improve the performance of VASP for DFT.     |
|      The default,   NCORE=1            might be grossly inefficient         |
|      on modern multi-core architectures or massively parallel machines.     |
|      Do your own testing !!!!                                               |
|      Unfortunately you need to use the default for GW and RPA calculations. |
|      (for HF NCORE is supported but not extensively tested yet)             |
|                                                                             |
 ----------------------------------------------------------------------------- 

 POTCAR:    PAW_PBE Na_pv 19Sep2006               
   VRHFIN =Na: p6s1                                                             
   LEXCH  = PE                                                                  
   EATOM  =   766.0439 eV,   56.3026 Ry                                         
                                                                                
   TITEL  = PAW_PBE Na_pv 19Sep2006                                             
   LULTRA =        F    use ultrasoft PP ?                                      
   IUNSCR =        1    unscreen: 0-lin 1-nonlin 2-no                           
   RPACOR =    1.800    partial core radius                                     
   POMASS =   22.990; ZVAL   =    7.000    mass and valenz                      
   RCORE  =    2.200    outmost cutoff radius                                   
   RWIGS  =    2.200; RWIGS  =    1.164    wigner-seitz radius (au A)           
   ENMAX  =  259.561; ENMIN  =  194.671 eV                                      
   ICORE  =        2    local potential                                         
   LCOR   =        T    correct aug charges                                     
   LPAW   =        T    paw PP                                                  
   EAUG   =  368.056                                                            
   DEXC   =    0.000                                                            
   RMAX   =    2.245    core radius for proj-oper                               
   RAUG   =    1.300    factor for augmentation sphere                          
   RDEP   =    2.259    radius for radial grids                                 
   RDEPT  =    1.738    core radius for aug-charge                              
                                                                                
   Atomic configuration                                                         
    5 entries                                                                   
     n  l   j            E        occ.                                          
     1  0  0.50     -1033.6933   2.0000                                         
     2  0  0.50       -56.7526   2.0000                                         
     2  1  1.50       -28.6721   6.0000                                         
     3  0  0.50        -2.7440   1.0000                                         
     3  2  1.50        -1.3606   0.0000                                         
   Description                                                                  
     l       E           TYP  RCUT    TYP  RCUT                                 
     1    -28.6720912     23  2.000                                             
     1      6.8029130     23  2.000                                             
     0     -2.7439560     23  2.200                                             
     0     34.0145650     23  2.200                                             
     2     -1.3605826     23  2.200                                             
  local pseudopotential read in
  partial core-charges read in
  partial kinetic energy density read in
  atomic valenz-charges read in
  non local Contribution for L=           1  read in
    real space projection operators read in
  non local Contribution for L=           1  read in
    real space projection operators read in
  non local Contribution for L=           0  read in
    real space projection operators read in
  non local Contribution for L=           0  read in
    real space projection operators read in
    PAW grid and wavefunctions read in
 
   number of l-projection  operators is LMAX  =           4
   number of lm-projection operators is LMMAX =           8
 
 POTCAR:    PAW_PBE Mg_pv 13Apr2007               
   VRHFIN =Mg: p6s2                                                             
   LEXCH  = PE                                                                  
   EATOM  =  1056.7344 eV,   77.6678 Ry                                         
                                                                                
   TITEL  = PAW_PBE Mg_pv 13Apr2007                                             
   LULTRA =        F    use ultrasoft PP ?                                      
   IUNSCR =        1    unscreen: 0-lin 1-nonlin 2-no                           
   RPACOR =    1.500    partial core radius                                     
   POMASS =   24.305; ZVAL   =    8.000    mass and valenz                      
   RCORE  =    2.000    outmost cutoff radius                                   
   RWIGS  =    2.000; RWIGS  =    1.058    wigner-seitz radius (au A)           
   ENMAX  =  403.929; ENMIN  =  302.947 eV                                      
   RCLOC  =    1.506    cutoff for local pot                                    
   LCOR   =        T    correct aug charges                                     
   LPAW   =        T    paw PP                                                  
   EAUG   =  758.780                                                            
   DEXC   =    0.000                                                            
   RMAX   =    2.045    core radius for proj-oper                               
   RAUG   =    1.300    factor for augmentation sphere                          
   RDEP   =    2.025    radius for radial grids                                 
   RDEPT  =    1.557    core radius for aug-charge                              
                                                                                
   Atomic configuration                                                         
    5 entries                                                                   
     n  l   j            E        occ.                                          
     1  0  0.50     -1259.6230   2.0000                                         
     2  0  0.50       -79.8442   2.0000                                         
     2  1  1.50       -46.6121   6.0000                                         
     3  0  0.50        -4.7055   2.0000                                         
     3  2  1.50        -1.3606   0.0000                                         
   Description                                                                  
     l       E           TYP  RCUT    TYP  RCUT                                 
     1    -46.6121073     23  1.600                                             
     1      2.7211652     23  1.600                                             
     0     -4.7054661     23  2.000                                             
     0     61.2262170     23  2.000                                             
     2     -1.3605826     23  2.000                                             
  local pseudopotential read in
  partial core-charges read in
  partial kinetic energy density read in
  atomic valenz-charges read in
  non local Contribution for L=           1  read in
    real space projection operators read in
  non local Contribution for L=           1  read in
    real space projection operators read in
  non local Contribution for L=           0  read in
    real space projection operators read in
  non local Contribution for L=           0  read in
    real space projection operators read in
  non local Contribution for L=           2  read in
    real space projection operators read in
    PAW grid and wavefunctions read in
 
   number of l-projection  operators is LMAX  =           5
   number of lm-projection operators is LMMAX =          13
 
 POTCAR:    PAW_PBE Mn_pv 02Aug2007               
   VRHFIN =Mn: 3p4s3d                                                           
   LEXCH  = PE                                                                  
   EATOM  =  2025.2664 eV,  148.8529 Ry                                         
                                                                                
   TITEL  = PAW_PBE Mn_pv 02Aug2007                                             
   LULTRA =        F    use ultrasoft PP ?                                      
   IUNSCR =        1    unscreen: 0-lin 1-nonlin 2-no                           
   RPACOR =    2.080    partial core radius                                     
   POMASS =   54.938; ZVAL   =   13.000    mass and valenz                      
   RCORE  =    2.300    outmost cutoff radius                                   
   RWIGS  =    2.500; RWIGS  =    1.323    wigner-seitz radius (au A)           
   ENMAX  =  269.864; ENMIN  =  202.398 eV                                      
   ICORE  =        3    local potential                                         
   LCOR   =        T    correct aug charges                                     
   LPAW   =        T    paw PP                                                  
   EAUG   =  569.085                                                            
   DEXC   =    0.000                                                            
   RMAX   =    2.343    core radius for proj-oper                               
   RAUG   =    1.300    factor for augmentation sphere                          
   RDEP   =    2.338    radius for radial grids                                 
   RDEPT  =    1.798    core radius for aug-charge                              
                                                                                
   Atomic configuration                                                         
    8 entries                                                                   
     n  l   j            E        occ.                                          
     1  0  0.50     -6424.8287   2.0000                                         
     2  0  0.50      -739.1154   2.0000                                         
     2  1  1.50      -625.3949   6.0000                                         
     3  0  0.50       -81.6100   2.0000                                         
     3  1  1.50       -50.4667   6.0000                                         
     3  2  2.50        -3.3745   6.0000                                         
     4  0  0.50        -4.1331   1.0000                                         
     4  3  2.50        -1.3606   0.0000                                         
   Description                                                                  
     l       E           TYP  RCUT    TYP  RCUT                                 
     1    -50.4666628     23  2.000                                             
     1     -1.3605826     23  2.000                                             
     2     -3.3744729     23  2.300                                             
     2     -4.7350555     23  2.300                                             
     0     -4.1331431     23  2.300                                             
     0      7.6656591     23  2.300                                             
     3      9.5240782     23  2.300                                             
  local pseudopotential read in
  partial core-charges read in
  partial kinetic energy density read in
  atomic valenz-charges read in
  non local Contribution for L=           1  read in
    real space projection operators read in
  non local Contribution for L=           1  read in
    real space projection operators read in
  non local Contribution for L=           2  read in
    real space projection operators read in
  non local Contribution for L=           2  read in
    real space projection operators read in
  non local Contribution for L=           0  read in
    real space projection operators read in
  non local Contribution for L=           0  read in
    real space projection operators read in
    PAW grid and wavefunctions read in
 
   number of l-projection  operators is LMAX  =           6
   number of lm-projection operators is LMMAX =          18
 
 POTCAR:    PAW_PBE O 08Apr2002                   
   VRHFIN =O: s2p4                                                              
   LEXCH  = PE                                                                  
   EATOM  =   432.3788 eV,   31.7789 Ry                                         
                                                                                
   TITEL  = PAW_PBE O 08Apr2002                                                 
   LULTRA =        F    use ultrasoft PP ?                                      
   IUNSCR =        1    unscreen: 0-lin 1-nonlin 2-no                           
   RPACOR =    1.200    partial core radius                                     
   POMASS =   16.000; ZVAL   =    6.000    mass and valenz                      
   RCORE  =    1.520    outmost cutoff radius                                   
   RWIGS  =    1.550; RWIGS  =    0.820    wigner-seitz radius (au A)           
   ENMAX  =  400.000; ENMIN  =  300.000 eV                                      
   ICORE  =        2    local potential                                         
   LCOR   =        T    correct aug charges                                     
   LPAW   =        T    paw PP                                                  
   EAUG   =  605.392                                                            
   DEXC   =    0.000                                                            
   RMAX   =    1.553    core radius for proj-oper                               
   RAUG   =    1.300    factor for augmentation sphere                          
   RDEP   =    1.550    radius for radial grids                                 
   RDEPT  =    1.329    core radius for aug-charge                              
                                                                                
   Atomic configuration                                                         
    4 entries                                                                   
     n  l   j            E        occ.                                          
     1  0  0.50      -514.6923   2.0000                                         
     2  0  0.50       -23.9615   2.0000                                         
     2  1  0.50        -9.0305   4.0000                                         
     3  2  1.50        -9.5241   0.0000                                         
   Description                                                                  
     l       E           TYP  RCUT    TYP  RCUT                                 
     0    -23.9615318     23  1.200                                             
     0     -9.5240782     23  1.200                                             
     1     -9.0304911     23  1.520                                             
     1      8.1634956     23  1.520                                             
     2     -9.5240782      7  1.500                                             
  local pseudopotential read in
  partial core-charges read in
  partial kinetic energy density read in
  kinetic energy density of atom read in
  atomic valenz-charges read in
  non local Contribution for L=           0  read in
    real space projection operators read in
  non local Contribution for L=           0  read in
    real space projection operators read in
  non local Contribution for L=           1  read in
    real space projection operators read in
  non local Contribution for L=           1  read in
    real space projection operators read in
    PAW grid and wavefunctions read in
 
   number of l-projection  operators is LMAX  =           4
   number of lm-projection operators is LMMAX =           8
 
 Optimization of the real space projectors (new method)

 maximal supplied QI-value         = 17.01
 optimisation between [QCUT,QGAM] = [ 10.20, 20.41] = [ 29.16,116.64] Ry 
 Optimized for a Real-space Cutoff    1.30 Angstroem

   l    n(q)    QCUT    max X(q) W(low)/X(q) W(high)/X(q)  e(spline) 
   1      7    10.205     4.940    0.23E-03    0.84E-03    0.11E-06
   1      7    10.205     6.253    0.40E-03    0.13E-02    0.18E-06
   0      8    10.205    37.438    0.23E-03    0.37E-03    0.42E-07
   0      8    10.205     9.606    0.16E-03    0.26E-03    0.31E-07
 Optimization of the real space projectors (new method)

 maximal supplied QI-value         = 18.90
 optimisation between [QCUT,QGAM] = [ 10.20, 20.41] = [ 29.16,116.64] Ry 
 Optimized for a Real-space Cutoff    1.26 Angstroem

   l    n(q)    QCUT    max X(q) W(low)/X(q) W(high)/X(q)  e(spline) 
   1      7    10.205     2.974    0.63E-04    0.14E-03    0.13E-06
   1      7    10.205     4.279    0.11E-03    0.45E-03    0.24E-06
   0      8    10.205    16.381    0.44E-03    0.15E-03    0.55E-07
   0      8    10.205     5.611    0.31E-03    0.11E-03    0.40E-07
   2      7    10.205     4.652    0.50E-03    0.47E-03    0.57E-07
 Optimization of the real space projectors (new method)

 maximal supplied QI-value         = 16.25
 optimisation between [QCUT,QGAM] = [ 10.24, 20.48] = [ 29.35,117.42] Ry 
 Optimized for a Real-space Cutoff    1.34 Angstroem

   l    n(q)    QCUT    max X(q) W(low)/X(q) W(high)/X(q)  e(spline) 
   1      8    10.239     3.658    0.23E-03    0.30E-03    0.98E-07
   1      8    10.239     5.612    0.32E-03    0.65E-03    0.21E-06
   2      7    10.239    55.373    0.42E-03    0.45E-03    0.65E-07
   2      7    10.239    50.863    0.43E-03    0.48E-03    0.67E-07
   0      8    10.239    79.536    0.11E-03    0.21E-03    0.56E-07
   0      8    10.239    38.668    0.96E-04    0.19E-03    0.52E-07
 Optimization of the real space projectors (new method)

 maximal supplied QI-value         = 24.76
 optimisation between [QCUT,QGAM] = [ 10.15, 20.30] = [ 28.85,115.39] Ry 
 Optimized for a Real-space Cutoff    1.38 Angstroem

   l    n(q)    QCUT    max X(q) W(low)/X(q) W(high)/X(q)  e(spline) 
   0      8    10.150    20.381    0.22E-03    0.32E-03    0.29E-06
   0      8    10.150    15.268    0.23E-03    0.35E-03    0.30E-06
   1      8    10.150     5.964    0.46E-03    0.53E-03    0.21E-06
   1      8    10.150     5.382    0.38E-03    0.45E-03    0.19E-06
  PAW_PBE Na_pv 19Sep2006               :
 energy of atom  1       EATOM= -766.0439
 kinetic energy error for atom=    0.0103 (will be added to EATOM!!)
  PAW_PBE Mg_pv 13Apr2007               :
 energy of atom  2       EATOM=-1056.7344
 kinetic energy error for atom=    0.0820 (will be added to EATOM!!)
  PAW_PBE Mn_pv 02Aug2007               :
 energy of atom  3       EATOM=-2025.2664
 kinetic energy error for atom=    0.0284 (will be added to EATOM!!)
  PAW_PBE O 08Apr2002                   :
 energy of atom  4       EATOM= -432.3788
 kinetic energy error for atom=    0.1156 (will be added to EATOM!!)
 
 
 POSCAR: Na Mg Mn  O                             
  positions in cartesian coordinates
  No initial velocities read in

 METAGGA = SCAN     LMAXTAU =  6    LMIXTAU =  F

 exchange correlation table for  LEXCH =        8
   RHO(1)=    0.500       N(1)  =     2000
   RHO(2)=  100.500       N(2)  =     4000

 VTST: version 3.2, (02/03/18)

 CHAIN: initializing optimizer
 
 OPT: Using VASP Dynamics algorithm
 CHAIN: Read ICHAIN            0
 
 POSCAR: Na Mg Mn  O                             
  positions in cartesian coordinates
  No initial velocities read in
 


--------------------------------------------------------------------------------------------------------


 ion  position               nearest neighbor table
   1  0.371  0.034  0.255-  76 2.22  51 2.24  42 2.34
   2  0.214  0.375  0.746-  58 2.23  61 2.33
   3  0.346  0.728  0.753-  70 2.30  84 2.35  73 2.37
   4  0.884  0.244  0.754-  60 2.20  57 2.32  59 2.36
   5  0.191  0.578  0.247-  66 2.28  77 2.28  37 2.78  39 2.89
   6  0.506  0.394  0.264-  50 2.18  87 2.26
   7  0.506  0.081  0.734-  44 2.23  46 2.28  49 2.34  81 2.35
   8  0.716  0.890  0.752-  82 2.34  59 2.34  56 2.35
   9  0.130  0.247  0.256-  55 2.23  63 2.28  64 2.29  54 2.31
  10  0.007  0.902  0.246-  54 2.33  63 2.34  67 2.34
  11  0.609  0.740  0.258-  88 2.22  79 2.25  87 2.29  78 2.35
  12  0.662  0.481  0.745-  45 2.16  48 2.17  68 2.29  35 2.84  33 2.98
  13  0.157  0.030  0.750-  69 2.24  72 2.27  27 2.88  25 2.92
  14  0.019  0.597  0.744-  70 2.20  68 2.31  73 2.33
  15  0.870  0.544  0.237-  66 2.19  43 2.34
  16  0.693  0.068  0.249-  51 2.32  79 2.36  88 2.36  62 2.36  42 2.37  31 2.80  29 2.89
  17  0.853  0.392  0.998-  60 1.97  53 2.01  71 2.05  43 2.10  66 2.14  49 2.18  30 2.77
  18  0.525  0.231  0.488-  46 2.02  52 2.04  50 2.06  45 2.07  51 2.11  44 2.13
  19  0.357  0.400  0.003-  83 2.00  78 2.04  48 2.07  55 2.09  41 2.13  61 2.14  37 2.82  38 2.82

  20  0.030  0.237  0.500-  63 2.03  58 2.03  57 2.10  56 2.13  62 2.15  64 2.17
  21  0.345  0.886  0.009-  42 2.01  73 2.04  67 2.05  77 2.06  47 2.18  84 2.19  37 2.83  34 2.83

  22  0.030  0.733  0.498-  70 1.99  69 2.05  75 2.08  76 2.11  74 2.16  68 2.19  39 2.82  36 2.86

  23  0.844  0.891  0.000-  59 2.00  85 2.01  65 2.02  72 2.04  79 2.06  54 2.17  38 2.81  29 2.82

  24  0.531  0.737  0.500-  86 1.99  87 2.03  88 2.03  80 2.05  81 2.10  82 2.23  35 2.85  31 2.85
                            36 2.86
  25  0.180  0.066  0.008-  54 1.83  72 1.88  61 1.90  41 1.96  47 1.96  67 2.03  30 2.89  26 2.91
                            13 2.92  34 2.94
  26  0.515  0.224  0.004-  41 1.85  47 1.94  48 1.95  43 1.98  42 2.02  49 2.12  25 2.91  33 2.92
                            29 2.93
  27  0.195  0.071  0.495-  69 1.84  58 1.89  44 1.90  76 1.91  63 1.93  50 1.94  32 2.86  13 2.88
                            40 2.90  36 2.96
  28  0.855  0.396  0.499-  52 1.87  62 1.88  75 1.89  68 1.92  46 2.00  57 2.04  31 2.87  35 2.92
                            39 2.93
  29  0.684  0.055  0.991-  49 1.89  42 1.94  53 1.95  59 1.95  79 1.96  84 1.97  23 2.82  38 2.86
                            30 2.87  16 2.89  26 2.93
  30  0.014  0.233  0.003-  53 1.82  60 1.86  55 1.89  61 1.94  59 1.97  54 1.99  17 2.77  37 2.84
                            29 2.87  25 2.89
  31  0.690  0.066  0.498-  56 1.87  62 1.88  51 1.89  88 1.90  81 1.95  46 1.99  16 2.80  24 2.85
                            28 2.87  36 2.87  40 2.88
  32  0.362  0.401  0.499-  45 1.86  64 1.87  87 1.91  50 1.91  58 1.92  80 2.02  35 2.83  27 2.86
                            39 2.94
  33  0.687  0.561  0.003-  48 1.87  78 1.88  85 1.88  43 1.93  71 1.94  65 1.95  38 2.88  34 2.88
                            26 2.92  12 2.98
  34  0.019  0.728  0.995-  71 1.90  72 1.90  73 1.95  65 1.97  66 1.99  67 2.02  21 2.83  33 2.88
                            25 2.94  37 2.96
  35  0.688  0.567  0.501-  82 1.88  52 1.89  45 1.89  87 1.91  68 1.95  74 1.95  32 2.83  12 2.84
                            24 2.85  28 2.92  40 2.93
  36  0.360  0.895  0.501-  86 1.85  44 1.93  81 1.93  51 1.94  76 1.96  70 2.03  39 2.83  22 2.86
                            24 2.86  31 2.87  27 2.96
  37  0.192  0.559  0.001-  77 1.84  83 1.86  55 1.90  73 1.93  66 1.96  60 2.04   5 2.78  19 2.82
                            21 2.83  30 2.84  38 2.86  34 2.96
  38  0.521  0.725  0.998-  84 1.88  85 1.88  77 1.92  78 1.97  83 1.97  79 1.97  23 2.81  19 2.82
                            37 2.86  29 2.86  33 2.88
  39  0.193  0.570  0.505-  86 1.88  75 1.94  64 1.94  57 1.95  80 1.96  70 2.04  22 2.82  36 2.83
                             5 2.89  28 2.93  32 2.94
  40  0.860  0.904  0.494-  56 1.92  69 1.94  88 1.94  63 1.96  82 1.99  74 2.00  31 2.88  27 2.90
                            35 2.93
  41  0.360  0.218  0.098-  26 1.85  25 1.96  19 2.13
  42  0.528  0.056  0.093-  29 1.94  21 2.01  26 2.02   1 2.34  16 2.37
  43  0.678  0.395  0.098-  33 1.93  26 1.98  17 2.10  15 2.34
  44  0.343  0.052  0.588-  27 1.90  36 1.93  18 2.13   7 2.23
  45  0.522  0.405  0.585-  32 1.86  35 1.89  18 2.07  12 2.16
  46  0.686  0.230  0.596-  31 1.99  28 2.00  18 2.02   7 2.28
  47  0.344  0.072  0.909-  26 1.94  25 1.96  21 2.18
  48  0.538  0.399  0.912-  33 1.87  26 1.95  19 2.07  12 2.17
  49  0.675  0.203  0.893-  29 1.89  26 2.12  17 2.18   7 2.34
  50  0.349  0.239  0.400-  32 1.91  27 1.94  18 2.06   6 2.18
  51  0.527  0.045  0.402-  31 1.89  36 1.94  18 2.11   1 2.24  16 2.32
  52  0.709  0.418  0.411-  28 1.87  35 1.89  18 2.04
  53  0.850  0.215  0.086-  30 1.82  29 1.95  17 2.01
  54  0.033  0.076  0.098-  25 1.83  30 1.99  23 2.17   9 2.31  10 2.33
  55  0.171  0.391  0.094-  30 1.89  37 1.90  19 2.09   9 2.23
  56  0.839  0.052  0.589-  31 1.87  40 1.92  20 2.13   8 2.35
  57  0.029  0.412  0.603-  39 1.95  28 2.04  20 2.10   4 2.32
  58  0.205  0.233  0.589-  27 1.89  32 1.92  20 2.03   2 2.23
  59  0.857  0.065  0.903-  29 1.95  30 1.97  23 2.00   8 2.34   4 2.36
  60  0.018  0.385  0.906-  30 1.86  17 1.97  37 2.04   4 2.20
  61  0.169  0.216  0.910-  25 1.90  30 1.94  19 2.14   2 2.33
  62  0.839  0.231  0.408-  31 1.88  28 1.88  20 2.15  16 2.36
  63  0.030  0.067  0.403-  27 1.93  40 1.96  20 2.03   9 2.28  10 2.34
  64  0.220  0.425  0.407-  32 1.87  39 1.94  20 2.17   9 2.29
  65  0.855  0.725  0.094-  33 1.95  34 1.97  23 2.02
  66  0.036  0.574  0.097-  37 1.96  34 1.99  17 2.14  15 2.19   5 2.28
  67  0.174  0.892  0.104-  34 2.02  25 2.03  21 2.05  10 2.34
  68  0.840  0.546  0.596-  28 1.92  35 1.95  22 2.19  12 2.29  14 2.31
  69  0.035  0.917  0.580-  27 1.84  40 1.94  22 2.05  13 2.24
  70  0.190  0.737  0.607-  22 1.99  36 2.03  39 2.04  14 2.20   3 2.30
  71  0.853  0.570  0.908-  34 1.90  33 1.94  17 2.05
  72  0.031  0.902  0.917-  25 1.88  34 1.90  23 2.04  13 2.27
  73  0.179  0.714  0.907-  37 1.93  34 1.95  21 2.04  14 2.33   3 2.37
  74  0.843  0.728  0.399-  35 1.95  40 2.00  22 2.16
  75  0.021  0.547  0.409-  28 1.89  39 1.94  22 2.08
  76  0.209  0.918  0.404-  27 1.91  36 1.96  22 2.11   1 2.22
  77  0.352  0.705  0.092-  37 1.84  38 1.92  21 2.06   5 2.28
  78  0.536  0.570  0.096-  33 1.88  38 1.97  19 2.04  11 2.35
  79  0.673  0.895  0.098-  29 1.96  38 1.97  23 2.06  11 2.25  16 2.36
  80  0.356  0.567  0.598-  39 1.96  32 2.02  24 2.05
  81  0.526  0.912  0.599-  36 1.93  31 1.95  24 2.10   7 2.35
  82  0.719  0.731  0.601-  35 1.88  40 1.99  24 2.23   8 2.34
  83  0.347  0.563  0.907-  37 1.86  38 1.97  19 2.00
  84  0.523  0.879  0.901-  38 1.88  29 1.97  21 2.19   3 2.35
  85  0.675  0.712  0.912-  38 1.88  33 1.88  23 2.01
  86  0.351  0.732  0.417-  36 1.85  39 1.88  24 1.99
  87  0.525  0.560  0.408-  35 1.91  32 1.91  24 2.03   6 2.26  11 2.29
  88  0.700  0.913  0.404-  31 1.90  40 1.94  24 2.03  11 2.22  16 2.36
 
  LATTYP: Found a hexagonal cell.
 ALAT       =    10.0190000534
 C/A-ratio  =     1.1196726572
  
  Lattice vectors:
  
 A1 = (  10.0190000534,   0.0000000000,   0.0000000000)
 A2 = (  -5.0095000267,   8.6767085668,   0.0000000000)
 A3 = (   0.0000000000,   0.0000000000,  11.2180004120)


Analysis of symmetry for initial positions (statically):
=====================================================================
 Subroutine PRICEL returns:
 Original cell was already a primitive cell.
 

 Routine SETGRP: Setting up the symmetry group for a 
 hexagonal supercell.


 Subroutine GETGRP returns: Found  1 space group operations
 (whereof  1 operations were pure point group operations)
 out of a pool of 24 trial point group operations.


The static configuration has the point symmetry C_1 .


Analysis of symmetry for dynamics (positions and initial velocities):
=====================================================================
 Subroutine PRICEL returns:
 Original cell was already a primitive cell.
 

 Routine SETGRP: Setting up the symmetry group for a 
 hexagonal supercell.


 Subroutine GETGRP returns: Found  1 space group operations
 (whereof  1 operations were pure point group operations)
 out of a pool of 24 trial point group operations.


The dynamic configuration has the point symmetry C_1 .


Analysis of structural, dynamic, and magnetic symmetry:
=====================================================================
 Subroutine PRICEL returns:
 Original cell was already a primitive cell.
 

 Routine SETGRP: Setting up the symmetry group for a 
 hexagonal supercell.


 Subroutine GETGRP returns: Found  1 space group operations
 (whereof  1 operations were pure point group operations)
 out of a pool of 24 trial point group operations.


The magnetic configuration has the point symmetry C_1 .


 Subroutine INISYM returns: Found  1 space group operations
 (whereof  1 operations are pure point group operations),
 and found     1 'primitive' translations

 
 

Automatic generation of k-mesh.
 generate k-points for:    2    2    2
Space group operators:
 irot       det(A)        alpha          n_x          n_y          n_z        tau_x        tau_y        tau_z
    1     1.000000     0.000000     1.000000     0.000000     0.000000     0.000000     0.000000     0.000000
 
 Subroutine IBZKPT returns following result:
 ===========================================
 
 Found      8 irreducible k-points:
 
 Following reciprocal coordinates:
            Coordinates               Weight
  0.000000  0.000000  0.000000      1.000000
  0.500000 -0.000000 -0.000000      1.000000
  0.000000  0.500000  0.000000      1.000000
  0.500000  0.500000 -0.000000      1.000000
  0.000000  0.000000  0.500000      1.000000
  0.500000 -0.000000  0.500000      1.000000
  0.000000  0.500000  0.500000      1.000000
  0.500000  0.500000  0.500000      1.000000
 
 Following cartesian coordinates:
            Coordinates               Weight
  0.000000  0.000000  0.000000      1.000000
  0.049905  0.028813 -0.000000      1.000000
  0.000000  0.057626  0.000000      1.000000
  0.049905  0.086438 -0.000000      1.000000
  0.000000  0.000000  0.044571      1.000000
  0.049905  0.028813  0.044571      1.000000
  0.000000  0.057626  0.044571      1.000000
  0.049905  0.086438  0.044571      1.000000
 


--------------------------------------------------------------------------------------------------------




 Dimension of arrays:
   k-points           NKPTS =      8   k-points in BZ     NKDIM =      8   number of bands    NBANDS=    480
   number of dos      NEDOS =    301   number of ions     NIONS =     88
   non local maximal  LDIM  =      6   non local SUM 2l+1 LMDIM =     18
   total plane-waves  NPLWV = 140000
   max r-space proj   IRMAX =   1632   max aug-charges    IRDMAX=   4555
   dimension x,y,z NGX =    50 NGY =   50 NGZ =   56
   dimension x,y,z NGXF=   100 NGYF=  100 NGZF=  112
   support grid    NGXF=   100 NGYF=  100 NGZF=  112
   ions per type =              16   8  16  48
   NGX,Y,Z   is equivalent  to a cutoff of   8.30,  8.30,  8.30 a.u.
   NGXF,Y,Z  is equivalent  to a cutoff of  16.59, 16.59, 16.60 a.u.

 SYSTEM =  unknown system                          
 POSCAR =  Na Mg Mn  O                             

 Startparameter for this run:
   NWRITE =      2    write-flag & timer
   PREC   = normal    normal or accurate (medium, high low for compatibility)
   ISTART =      0    job   : 0-new  1-cont  2-samecut
   ICHARG =      1    charge: 1-file 2-atom 10-const
   ISPIN  =      2    spin polarized calculation?
   LNONCOLLINEAR =      F non collinear calculations
   LSORBIT =      F    spin-orbit coupling
   INIWAV =      1    electr: 0-lowe 1-rand  2-diag
   LASPH  =      T    aspherical Exc in radial PAW
   METAGGA=      F    non-selfconsistent MetaGGA calc.

 Electronic Relaxation 1
   ENCUT  =  400.0 eV  29.40 Ry    5.42 a.u.  16.34 16.34 18.29*2*pi/ulx,y,z
   ENINI  =  400.0     initial cutoff
   ENAUG  =  758.8 eV  augmentation charge cutoff
   NELM   =    200;   NELMIN=  6; NELMDL=-12     # of ELM steps 
   EDIFF  = 0.1E-04   stopping-criterion for ELM
   LREAL  =      T    real-space projection
   NLSPLINE    = F    spline interpolate recip. space projectors
   LCOMPAT=      F    compatible to vasp.4.4
   GGA_COMPAT  = T    GGA compatible to vasp.4.4-vasp.4.6
   LMAXPAW     = -100 max onsite density
   LMAXMIX     =    4 max onsite mixed and CHGCAR
   VOSKOWN=      0    Vosko Wilk Nusair interpolation
   ROPT   =   -0.00050  -0.00050  -0.00050  -0.00050
 Ionic relaxation
   EDIFFG = 0.1E-03   stopping-criterion for IOM
   NSW    =      1    number of steps for IOM
   NBLOCK =      1;   KBLOCK =      1    inner block; outer block 
   IBRION =     -1    ionic relax: 0-MD 1-quasi-New 2-CG
   NFREE  =      0    steps in history (QN), initial steepest desc. (CG)
   ISIF   =      2    stress and relaxation
   IWAVPR =     10    prediction:  0-non 1-charg 2-wave 3-comb
   ISYM   =      2    0-nonsym 1-usesym 2-fastsym
   LCORR  =      T    Harris-Foulkes like correction to forces

   POTIM  = 0.5000    time-step for ionic-motion
   TEIN   =    0.0    initial temperature
   TEBEG  =    0.0;   TEEND  =   0.0 temperature during run
   SMASS  =  -3.00    Nose mass-parameter (am)
   estimated Nose-frequenzy (Omega)   =  0.10E-29 period in steps =****** mass=  -0.229E-26a.u.
   SCALEE = 1.0000    scale energy and forces
   NPACO  =    256;   APACO  = 16.0  distance and # of slots for P.C.
   PSTRESS=    0.0 pullay stress

  Mass of Ions in am
   POMASS =  22.99 24.30 54.94 16.00
  Ionic Valenz
   ZVAL   =   7.00  8.00 13.00  6.00
  Atomic Wigner-Seitz radii
   RWIGS  =  -1.00 -1.00 -1.00 -1.00
  virtual crystal weights 
   VCA    =   1.00  1.00  1.00  1.00
   NELECT =     672.0000    total number of electrons
   NUPDOWN=      48.0000    fix difference up-down

 DOS related values:
   EMIN   =  10.00;   EMAX   =-10.00  energy-range for DOS
   EFERMI =   0.00
   ISMEAR =     0;   SIGMA  =   0.05  broadening in eV -4-tet -1-fermi 0-gaus

 Electronic relaxation 2 (details)
   IALGO  =     48    algorithm
   LDIAG  =      T    sub-space diagonalisation (order eigenvalues)
   LSUBROT=      F    optimize rotation matrix (better conditioning)
   TURBO    =      0    0=normal 1=particle mesh
   IRESTART =      0    0=no restart 2=restart with 2 vectors
   NREBOOT  =      0    no. of reboots
   NMIN     =      0    reboot dimension
   EREF     =   0.00    reference energy to select bands
   IMIX   =      4    mixing-type and parameters
     AMIX     =   0.40;   BMIX     =  1.00
     AMIX_MAG =   1.60;   BMIX_MAG =  1.00
     AMIN     =   0.10
     WC   =   100.;   INIMIX=   1;  MIXPRE=   1;  MAXMIX= -45

 Intra band minimization:
   WEIMIN = 0.0000     energy-eigenvalue tresh-hold
   EBREAK =  0.52E-08  absolut break condition
   DEPER  =   0.30     relativ break condition  

   TIME   =   0.40     timestep for ELM

  volume/ion in A,a.u.               =      11.08        74.78
  Fermi-wavevector in a.u.,A,eV,Ry     =   1.445993  2.732531 28.448379  2.090897
  Thomas-Fermi vector in A             =   2.564112
 
 Write flags
   LWAVE        =      F    write WAVECAR
   LDOWNSAMPLE  =      F    k-point downsampling of WAVECAR
   LCHARG       =      F    write CHGCAR
   LVTOT        =      F    write LOCPOT, total local potential
   LVHAR        =      F    write LOCPOT, Hartree potential only
   LELF         =      F    write electronic localiz. function (ELF)
   LORBIT       =     11    0 simple, 1 ext, 2 COOP (PROOUT), +10 PAW based schemes


 Dipole corrections
   LMONO  =      F    monopole corrections only (constant potential shift)
   LDIPOL =      F    correct potential (dipole corrections)
   IDIPOL =      0    1-x, 2-y, 3-z, 4-all directions 
   EPSILON=  1.0000000 bulk dielectric constant

 Exchange correlation treatment:
   GGA     =    --    GGA type
   LEXCH   =     8    internal setting for exchange type
   VOSKOWN=      0    Vosko Wilk Nusair interpolation
   LHFCALC =     F    Hartree Fock is set to
   LHFONE  =     F    Hartree Fock one center treatment
   AEXX    =    0.0000 exact exchange contribution

 Linear response parameters
   LEPSILON=     F    determine dielectric tensor
   LRPA    =     F    only Hartree local field effects (RPA)
   LNABLA  =     F    use nabla operator in PAW spheres
   LVEL    =     F    velocity operator in full k-point grid
   LINTERFAST=   F  fast interpolation
   KINTER  =     0    interpolate to denser k-point grid
   CSHIFT  =0.1000    complex shift for real part using Kramers Kronig
   OMEGAMAX=  -1.0    maximum frequency
   DEG_THRESHOLD= 0.2000000E-02 threshold for treating states as degnerate
   RTIME   =   -0.100 relaxation time in fs
  (WPLASMAI=    0.000 imaginary part of plasma frequency in eV, 0.658/RTIME)
   DFIELD  = 0.0000000 0.0000000 0.0000000 field for delta impulse in time
 
 Orbital magnetization related:
   ORBITALMAG=     F  switch on orbital magnetization
   LCHIMAG   =     F  perturbation theory with respect to B field
   DQ        =  0.001000  dq finite difference perturbation B field
   LLRAUG    =     F  two centre corrections for induced B field



--------------------------------------------------------------------------------------------------------


 Static calculation
 charge density and potential will be updated during run
 spin polarized calculation
 RMM-DIIS sequential band-by-band
 perform sub-space diagonalisation
    before iterative eigenvector-optimisation
 modified Broyden-mixing scheme, WC =      100.0
 initial mixing is a Kerker type mixing with AMIX =  0.4000 and BMIX =      1.0000
 Hartree-type preconditioning will be used
 using additional bands          144
 real space projection scheme for non local part
 use partial core corrections
 calculate Harris-corrections to forces 
   (improved forces if not selfconsistent)
 use gradient corrections 
 use of overlap-Matrix (Vanderbilt PP)
 Gauss-broadening in eV      SIGMA  =   0.05


--------------------------------------------------------------------------------------------------------


  energy-cutoff  :      400.00
  volume of cell :      975.20
      direct lattice vectors                 reciprocal lattice vectors
    10.019000053  0.000000000  0.000000000     0.099810360  0.057625538 -0.000000000
    -5.009500027  8.676708567  0.000000000     0.000000000  0.115251076  0.000000000
     0.000000000  0.000000000 11.218000412     0.000000000  0.000000000  0.089142446

  length of vectors
    10.019000053 10.019000053 11.218000412     0.115251076  0.115251076  0.089142446


 
 k-points in units of 2pi/SCALE and weight: read from INCAR                         
   0.00000000  0.00000000  0.00000000       0.125
   0.04990518  0.02881277 -0.00000000       0.125
   0.00000000  0.05762554  0.00000000       0.125
   0.04990518  0.08643831 -0.00000000       0.125
   0.00000000  0.00000000  0.04457122       0.125
   0.04990518  0.02881277  0.04457122       0.125
   0.00000000  0.05762554  0.04457122       0.125
   0.04990518  0.08643831  0.04457122       0.125
 
 k-points in reciprocal lattice and weights: read from INCAR                         
   0.00000000  0.00000000  0.00000000       0.125
   0.50000000 -0.00000000 -0.00000000       0.125
   0.00000000  0.50000000  0.00000000       0.125
   0.50000000  0.50000000 -0.00000000       0.125
   0.00000000  0.00000000  0.50000000       0.125
   0.50000000 -0.00000000  0.50000000       0.125
   0.00000000  0.50000000  0.50000000       0.125
   0.50000000  0.50000000  0.50000000       0.125
 
 position of ions in fractional coordinates (direct lattice) 
   0.37093786  0.03368130  0.25459172
   0.21410443  0.37485018  0.74612049
   0.34646602  0.72798540  0.75267068
   0.88445756  0.24360521  0.75381883
   0.19062659  0.57828084  0.24743536
   0.50642578  0.39363808  0.26406667
   0.50604532  0.08081208  0.73425742
   0.71589741  0.88958502  0.75224190
   0.13000513  0.24711477  0.25613299
   0.00732565  0.90184559  0.24640933
   0.60880020  0.73986811  0.25843732
   0.66167315  0.48144590  0.74476464
   0.15716213  0.02990469  0.74954713
   0.01924901  0.59707664  0.74365214
   0.87021754  0.54359306  0.23670261
   0.69338529  0.06840546  0.24889819
   0.85322461  0.39164736  0.99781637
   0.52522142  0.23128125  0.48803617
   0.35735937  0.39994083  0.00251378
   0.02990037  0.23728353  0.50033961
   0.34494301  0.88560656  0.00947584
   0.03048836  0.73273638  0.49801656
   0.84444770  0.89124694  0.00003969
   0.53065624  0.73722425  0.49972007
   0.18044057  0.06645855  0.00790184
   0.51510423  0.22394437  0.00385994
   0.19455153  0.07125697  0.49529148
   0.85499121  0.39628045  0.49925297
   0.68362945  0.05488042  0.99108892
   0.01384204  0.23253288  0.00252269
   0.69048981  0.06587832  0.49845603
   0.36200301  0.40075219  0.49897752
   0.68749621  0.56052591  0.00290858
   0.01888270  0.72762269  0.99541459
   0.68834389  0.56658697  0.50094222
   0.35951812  0.89521850  0.50071134
   0.19167296  0.55943794  0.00058827
   0.52093607  0.72533956  0.99810730
   0.19251537  0.56958350  0.50486983
   0.86013624  0.90379779  0.49433676
   0.36029207  0.21751797  0.09795150
   0.52787686  0.05584157  0.09314940
   0.67786417  0.39513947  0.09775004
   0.34293301  0.05209019  0.58793633
   0.52245322  0.40540949  0.58546084
   0.68646283  0.22962394  0.59571757
   0.34402793  0.07152528  0.90917272
   0.53750348  0.39898540  0.91213225
   0.67504425  0.20335130  0.89286857
   0.34930486  0.23907683  0.40001425
   0.52683281  0.04455393  0.40201550
   0.70854636  0.41780935  0.41118915
   0.84981462  0.21530745  0.08565876
   0.03339917  0.07627236  0.09835354
   0.17090798  0.39144567  0.09381708
   0.83927990  0.05216395  0.58940718
   0.02914877  0.41216320  0.60310124
   0.20470958  0.23311374  0.58923514
   0.85680588  0.06527959  0.90344978
   0.01783411  0.38538577  0.90648062
   0.16854352  0.21559788  0.91046529
   0.83850408  0.23131698  0.40795951
   0.02974632  0.06659915  0.40311551
   0.22022600  0.42539748  0.40663307
   0.85483271  0.72451321  0.09354697
   0.03581244  0.57398839  0.09694241
   0.17384547  0.89231417  0.10425744
   0.83981869  0.54613105  0.59579780
   0.03458670  0.91726603  0.57984220
   0.18986532  0.73680820  0.60675430
   0.85335111  0.56992810  0.90785342
   0.03081842  0.90166679  0.91715097
   0.17932057  0.71446908  0.90708679
   0.84299031  0.72759157  0.39893295
   0.02141970  0.54666812  0.40878765
   0.20889182  0.91807509  0.40414511
   0.35152336  0.70486751  0.09170975
   0.53633066  0.57027385  0.09575147
   0.67327413  0.89498223  0.09838117
   0.35606823  0.56657083  0.59794524
   0.52611141  0.91247735  0.59877694
   0.71888812  0.73073562  0.60053394
   0.34682617  0.56344753  0.90749685
   0.52320975  0.87903494  0.90101619
   0.67455980  0.71164082  0.91188266
   0.35149830  0.73186854  0.41748617
   0.52529818  0.56026199  0.40789622
   0.69987270  0.91313197  0.40423693
 
 position of ions in cartesian coordinates  (Angst):
   3.54769992  0.29224283  2.85601000
   0.26730032  3.25246573  8.36998000
  -0.17559984  6.31651713  8.44346000
   7.64104003  2.11369143  8.45634000
  -0.98701003  5.01757430  2.77573000
   3.10195000  3.41548287  2.96230000
   4.66524000  0.70118287  8.23690000
   2.71619995  7.71867000  8.43865000
   0.06459992  2.14414283  2.87330000
  -4.44439989  7.82505140  2.76422000
   2.39319995  6.41962000  2.89915000
   4.21750011  4.17736573  8.35477000
   1.42479981  0.25947430  8.40842000
  -2.79819963  5.18066000  8.34229000
   5.99558008  4.71659857  2.65533000
   6.60435005  0.59353427  2.79214000
   6.58650000  3.39821000 11.19350441
   4.10359000  2.00676000  5.47479000
   1.57688000  3.47017000  0.02819959
  -0.88910005  2.05884000  5.61281000
  -0.98046200  7.68415000  0.10630000
  -3.36518005  6.35774000  5.58675000
   3.99582000  7.73309000  0.00044522
   1.62352000  6.39668000  5.60586000
   1.47490997  0.57664143  0.08864280
   4.03898000  1.94310000  0.04330080
   1.59225000  0.61827600  5.55618000
   6.58099000  3.43841000  5.60062000
   6.57436003  0.47618143 11.11803591
  -1.02619005  2.01762000  0.02829959
   6.58800000  0.57160700  5.59168000
   1.61934000  3.47721000  5.59753000
   4.08007000  4.86352000  0.03262850
  -3.45584005  6.31337000 11.16656131
   4.05820000  4.91611000  5.61957000
  -0.88258500  7.76755000  5.61698000
  -0.88213300  4.85408000  0.00659923
   1.58567000  6.29356000 11.19676811
  -0.92451700  4.94211000  5.66363000
   4.09013000  7.84199000  5.54547000
   2.52011000  1.88734000  1.09882000
   5.00906000  0.48452100  1.04495000
   4.81207000  3.42851000  1.09656000
   3.17490003  0.45197143  6.59547000
   3.20356000  3.51762000  6.56770000
   5.72737000  1.99238000  6.68276000
   3.08851000  0.62060400 10.19910000
   3.38653000  3.46188000 10.23230000
   5.74458000  1.76442000 10.01620000
   2.30203000  2.07440000  4.48736000
   5.05514503  0.38658143  4.50981000
   5.00591000  3.62521000  4.61272000
   7.43571000  1.86816000  0.96092000
  -0.04746005  0.66179300  1.10333000
  -0.24862005  3.39646000  1.05244000
   8.14743003  0.45261143  6.61197000
  -1.77269005  3.57622000  6.76559000
   0.88320200  2.02266000  6.61004000
   8.25732000  0.56641200 10.13490000
  -1.75191005  3.34388000 10.16890000
   0.60859995  1.87068000 10.21360000
   7.24219000  2.00707000  4.57649000
  -0.03560003  0.57786143  4.52215000
   0.07541560  3.69105000  4.56161000
   4.93512000  6.28639000  1.04941000
  -2.51659005  4.98033000  1.08750000
  -2.72829005  7.74235000  1.16956000
   5.67830000  4.73862000  6.68366000
  -4.24852005  7.95885000  6.50467000
  -1.78878000  6.39307000  6.80657000
   5.69467000  4.94510000 10.18430000
  -4.20813005  7.82350000 10.28860000
  -1.78252005  6.19924000 10.17570000
   4.80105000  6.31310000  4.47523000
  -2.52393005  4.74328000  4.58578000
  -2.50621000  7.96587000  4.53370000
  -0.00912123  6.11593000  1.02880000
   2.51671000  4.94810000  1.07414000
   2.26212000  7.76550000  1.10364000
   0.72921100  4.91597000  6.70775000
   0.70005500  7.91730000  6.71708000
   3.54192000  6.34038000  6.73679000
   0.65226100  4.88887000 10.18030000
   0.83851300  7.62713000 10.10760000
   3.19345000  6.17470000 10.22950000
  -0.14463400  6.35021000  4.68336000
   2.45633000  4.86123000  4.57578000
   2.43769000  7.92298000  4.53473000
 


--------------------------------------------------------------------------------------------------------


 k-point  1 :   0.0000 0.0000 0.0000  plane waves:   17725
 k-point  2 :   0.5000-0.0000-0.0000  plane waves:   17736
 k-point  3 :   0.0000 0.5000 0.0000  plane waves:   17736
 k-point  4 :   0.5000 0.5000-0.0000  plane waves:   17736
 k-point  5 :   0.0000 0.0000 0.5000  plane waves:   17676
 k-point  6 :   0.5000-0.0000 0.5000  plane waves:   17700
 k-point  7 :   0.0000 0.5000 0.5000  plane waves:   17700
 k-point  8 :   0.5000 0.5000 0.5000  plane waves:   17700

 maximum and minimum number of plane-waves per node :     17736    17676

 maximum number of plane-waves:     17736
 maximum index in each direction: 
   IXMAX=   16   IYMAX=   16   IZMAX=   18
   IXMIN=  -16   IYMIN=  -16   IZMIN=  -18


 serial   3D FFT for wavefunctions
 parallel 3D FFT for charge:
    minimum data exchange during FFTs selected (reduces bandwidth)


 total amount of memory used by VASP MPI-rank0    94430. kBytes
=======================================================================

   base      :      30000. kBytes
   nonlr-proj:      13671. kBytes
   fftplans  :       1275. kBytes
   grid      :      22786. kBytes
   one-center:       2737. kBytes
   wavefun   :      23961. kBytes
 
     INWAV:  cpu time    0.0000: real time    0.0001
 Broyden mixing: mesh for mixing (old mesh)
   NGX = 33   NGY = 33   NGZ = 37
  (NGX  =100   NGY  =100   NGZ  =112)
  gives a total of  40293 points

 initial charge density was supplied:
 charge density of overlapping atoms calculated
 number of electron     672.0000000 magnetization      48.0000000
 keeping initial charge density in first step


--------------------------------------------------------------------------------------------------------


 Maximum index for non-local projection operator         1547
 Maximum index for augmentation-charges          501 (set IRDMAX)


--------------------------------------------------------------------------------------------------------


 First call to EWALD:  gamma=   0.179
 Maximum number of real-space cells 3x 3x 2
 Maximum number of reciprocal cells 3x 3x 3

    FEWALD:  cpu time    0.0028: real time    0.0028


--------------------------------------- Iteration      1(   1)  ---------------------------------------


    POTLOK:  cpu time    0.1925: real time    0.1938
    SETDIJ:  cpu time    4.6233: real time    4.6244
    EDDIAG:  cpu time    4.3923: real time    4.7942
  RMM-DIIS:  cpu time    9.0193: real time    9.0251
    ORTHCH:  cpu time    1.1580: real time    1.2413
       DOS:  cpu time    0.0024: real time    0.0025
    --------------------------------------------
      LOOP:  cpu time   19.3878: real time   19.8813

 eigenvalue-minimisations  :  7680
 total energy-change (2. order) : 0.1575025E+04  (-0.3498683E+05)
 number of electron     672.0000000 magnetization      48.0000000
 augmentation part      672.0000000 magnetization      48.0000000

 Free energy of the ion-electron system (eV)
  ---------------------------------------------------
  alpha Z        PSCENC =      2652.81237852
  Ewald energy   TEWEN  =    -41999.59175691
  -Hartree energ DENC   =    -25622.33367067
  -exchange      EXHF   =         0.00000000
  -V(xc)+E(xc)   XCENC  =      3605.35094701
  PAW double counting   =     55594.23204139   -59034.67079123
  entropy T*S    EENTRO =        -0.05540345
  eigenvalues    EBANDS =     -7482.91726282
  atomic energy  EATOM  =     73862.19814772
  Solvation  Ediel_sol  =         0.00000000
  ---------------------------------------------------
  free energy    TOTEN  =      1575.02462955 eV

  energy without entropy =     1575.08003300  energy(sigma->0) =     1575.05233128


--------------------------------------------------------------------------------------------------------




--------------------------------------- Iteration      1(   2)  ---------------------------------------


    EDDIAG:  cpu time    4.3680: real time    4.7719
  RMM-DIIS:  cpu time    9.0092: real time    9.0435
    ORTHCH:  cpu time    1.1529: real time    1.2388
       DOS:  cpu time    0.0020: real time    0.0020
    --------------------------------------------
      LOOP:  cpu time   14.5321: real time   15.0562

 eigenvalue-minimisations  :  7680
 total energy-change (2. order) :-0.2316662E+04  (-0.8041049E+04)
 number of electron     672.0000000 magnetization      48.0000000
 augmentation part      672.0000000 magnetization      48.0000000

 Free energy of the ion-electron system (eV)
  ---------------------------------------------------
  alpha Z        PSCENC =      2652.81237852
  Ewald energy   TEWEN  =    -41999.59175691
  -Hartree energ DENC   =    -25622.33367067
  -exchange      EXHF   =         0.00000000
  -V(xc)+E(xc)   XCENC  =      3605.35094701
  PAW double counting   =     55594.23204139   -59034.67079123
  entropy T*S    EENTRO =        -0.04458147
  eigenvalues    EBANDS =     -9799.59001012
  atomic energy  EATOM  =     73862.19814772
  Solvation  Ediel_sol  =         0.00000000
  ---------------------------------------------------
  free energy    TOTEN  =      -741.63729577 eV

  energy without entropy =     -741.59271430  energy(sigma->0) =     -741.61500503


--------------------------------------------------------------------------------------------------------




--------------------------------------- Iteration      1(   3)  ---------------------------------------


    EDDIAG:  cpu time    4.4049: real time    4.8144
  RMM-DIIS:  cpu time    9.0370: real time    9.0447
    ORTHCH:  cpu time    1.1571: real time    1.2414
       DOS:  cpu time    0.0019: real time    0.0019
    --------------------------------------------
      LOOP:  cpu time   14.6009: real time   15.1024

 eigenvalue-minimisations  :  7680
 total energy-change (2. order) : 0.9227858E+02  (-0.1422844E+04)
 number of electron     672.0000000 magnetization      48.0000000
 augmentation part      672.0000000 magnetization      48.0000000

 Free energy of the ion-electron system (eV)
  ---------------------------------------------------
  alpha Z        PSCENC =      2652.81237852
  Ewald energy   TEWEN  =    -41999.59175691
  -Hartree energ DENC   =    -25622.33367067
  -exchange      EXHF   =         0.00000000
  -V(xc)+E(xc)   XCENC  =      3605.35094701
  PAW double counting   =     55594.23204139   -59034.67079123
  entropy T*S    EENTRO =        -0.04092671
  eigenvalues    EBANDS =     -9707.31508485
  atomic energy  EATOM  =     73862.19814772
  Solvation  Ediel_sol  =         0.00000000
  ---------------------------------------------------
  free energy    TOTEN  =      -649.35871574 eV

  energy without entropy =     -649.31778903  energy(sigma->0) =     -649.33825238


--------------------------------------------------------------------------------------------------------




--------------------------------------- Iteration      1(   4)  ---------------------------------------


    EDDIAG:  cpu time    4.3732: real time    4.7766
  RMM-DIIS:  cpu time    9.0084: real time    9.0467
    ORTHCH:  cpu time    1.1549: real time    1.2408
       DOS:  cpu time    0.0017: real time    0.0017
    --------------------------------------------
      LOOP:  cpu time   14.5382: real time   15.0658

 eigenvalue-minimisations  :  7680
 total energy-change (2. order) :-0.4626853E+03  (-0.4287349E+03)
 number of electron     672.0000000 magnetization      48.0000000
 augmentation part      672.0000000 magnetization      48.0000000

 Free energy of the ion-electron system (eV)
  ---------------------------------------------------
  alpha Z        PSCENC =      2652.81237852
  Ewald energy   TEWEN  =    -41999.59175691
  -Hartree energ DENC   =    -25622.33367067
  -exchange      EXHF   =         0.00000000
  -V(xc)+E(xc)   XCENC  =      3605.35094701
  PAW double counting   =     55594.23204139   -59034.67079123
  entropy T*S    EENTRO =        -0.00000000
  eigenvalues    EBANDS =    -10170.04134671
  atomic energy  EATOM  =     73862.19814772
  Solvation  Ediel_sol  =         0.00000000
  ---------------------------------------------------
  free energy    TOTEN  =     -1112.04405088 eV

  energy without entropy =    -1112.04405088  energy(sigma->0) =    -1112.04405088


--------------------------------------------------------------------------------------------------------




--------------------------------------- Iteration      1(   5)  ---------------------------------------


    EDDIAG:  cpu time    4.4171: real time    4.8258
  RMM-DIIS:  cpu time    9.0396: real time    9.0465
    ORTHCH:  cpu time    1.1617: real time    1.2444
       DOS:  cpu time    0.0014: real time    0.0014
    --------------------------------------------
      LOOP:  cpu time   14.6198: real time   15.1180

 eigenvalue-minimisations  :  7680
 total energy-change (2. order) :-0.1038298E+03  (-0.1594485E+03)
 number of electron     672.0000000 magnetization      48.0000000
 augmentation part      672.0000000 magnetization      48.0000000

 Free energy of the ion-electron system (eV)
  ---------------------------------------------------
  alpha Z        PSCENC =      2652.81237852
  Ewald energy   TEWEN  =    -41999.59175691
  -Hartree energ DENC   =    -25622.33367067
  -exchange      EXHF   =         0.00000000
  -V(xc)+E(xc)   XCENC  =      3605.35094701
  PAW double counting   =     55594.23204139   -59034.67079123
  entropy T*S    EENTRO =        -0.00000000
  eigenvalues    EBANDS =    -10273.87116282
  atomic energy  EATOM  =     73862.19814772
  Solvation  Ediel_sol  =         0.00000000
  ---------------------------------------------------
  free energy    TOTEN  =     -1215.87386700 eV

  energy without entropy =    -1215.87386700  energy(sigma->0) =    -1215.87386700


--------------------------------------------------------------------------------------------------------




--------------------------------------- Iteration      1(   6)  ---------------------------------------


    EDDIAG:  cpu time    4.3891: real time    4.7971
  RMM-DIIS:  cpu time    9.0268: real time    9.0545
    ORTHCH:  cpu time    1.1564: real time    1.2425
       DOS:  cpu time    0.0013: real time    0.0013
    --------------------------------------------
      LOOP:  cpu time   14.5736: real time   15.0954

 eigenvalue-minimisations  :  7680
 total energy-change (2. order) :-0.9058119E+01  (-0.7909336E+02)
 number of electron     672.0000000 magnetization      48.0000000
 augmentation part      672.0000000 magnetization      48.0000000

 Free energy of the ion-electron system (eV)
  ---------------------------------------------------
  alpha Z        PSCENC =      2652.81237852
  Ewald energy   TEWEN  =    -41999.59175691
  -Hartree energ DENC   =    -25622.33367067
  -exchange      EXHF   =         0.00000000
  -V(xc)+E(xc)   XCENC  =      3605.35094701
  PAW double counting   =     55594.23204139   -59034.67079123
  entropy T*S    EENTRO =        -0.00000000
  eigenvalues    EBANDS =    -10282.92928200
  atomic energy  EATOM  =     73862.19814772
  Solvation  Ediel_sol  =         0.00000000
  ---------------------------------------------------
  free energy    TOTEN  =     -1224.93198617 eV

  energy without entropy =    -1224.93198617  energy(sigma->0) =    -1224.93198617


--------------------------------------------------------------------------------------------------------




--------------------------------------- Iteration      1(   7)  ---------------------------------------


    EDDIAG:  cpu time    4.4362: real time    4.8348
  RMM-DIIS:  cpu time    9.0180: real time    9.0517
    ORTHCH:  cpu time    1.1640: real time    1.2459
       DOS:  cpu time    0.0026: real time    0.0026
    --------------------------------------------
      LOOP:  cpu time   14.6208: real time   15.1350

 eigenvalue-minimisations  :  7680
 total energy-change (2. order) :-0.1896752E+01  (-0.4842059E+02)
 number of electron     672.0000000 magnetization      48.0000000
 augmentation part      672.0000000 magnetization      48.0000000

 Free energy of the ion-electron system (eV)
  ---------------------------------------------------
  alpha Z        PSCENC =      2652.81237852
  Ewald energy   TEWEN  =    -41999.59175691
  -Hartree energ DENC   =    -25622.33367067
  -exchange      EXHF   =         0.00000000
  -V(xc)+E(xc)   XCENC  =      3605.35094701
  PAW double counting   =     55594.23204139   -59034.67079123
  entropy T*S    EENTRO =        -0.00000000
  eigenvalues    EBANDS =    -10284.82603356
  atomic energy  EATOM  =     73862.19814772
  Solvation  Ediel_sol  =         0.00000000
  ---------------------------------------------------
  free energy    TOTEN  =     -1226.82873774 eV

  energy without entropy =    -1226.82873774  energy(sigma->0) =    -1226.82873774


--------------------------------------------------------------------------------------------------------




--------------------------------------- Iteration      1(   8)  ---------------------------------------


    EDDIAG:  cpu time    4.3736: real time    4.7856
  RMM-DIIS:  cpu time    9.0227: real time    9.0561
    ORTHCH:  cpu time    1.1837: real time    1.2662
       DOS:  cpu time    0.0021: real time    0.0021
    --------------------------------------------
      LOOP:  cpu time   14.5821: real time   15.1100

 eigenvalue-minimisations  :  7680
 total energy-change (2. order) : 0.5058956E+01  (-0.3009384E+02)
 number of electron     672.0000000 magnetization      48.0000000
 augmentation part      672.0000000 magnetization      48.0000000

 Free energy of the ion-electron system (eV)
  ---------------------------------------------------
  alpha Z        PSCENC =      2652.81237852
  Ewald energy   TEWEN  =    -41999.59175691
  -Hartree energ DENC   =    -25622.33367067
  -exchange      EXHF   =         0.00000000
  -V(xc)+E(xc)   XCENC  =      3605.35094701
  PAW double counting   =     55594.23204139   -59034.67079123
  entropy T*S    EENTRO =        -0.00000000
  eigenvalues    EBANDS =    -10279.76707762
  atomic energy  EATOM  =     73862.19814772
  Solvation  Ediel_sol  =         0.00000000
  ---------------------------------------------------
  free energy    TOTEN  =     -1221.76978179 eV

  energy without entropy =    -1221.76978179  energy(sigma->0) =    -1221.76978179


--------------------------------------------------------------------------------------------------------




--------------------------------------- Iteration      1(   9)  ---------------------------------------


    EDDIAG:  cpu time    4.3671: real time    4.7771
  RMM-DIIS:  cpu time   18.9922: real time   19.0626
    ORTHCH:  cpu time    1.1541: real time    1.2394
       DOS:  cpu time    0.0013: real time    0.0013
    --------------------------------------------
      LOOP:  cpu time   24.5148: real time   25.0804

 eigenvalue-minimisations  : 21791
 total energy-change (2. order) : 0.9323772E+01  (-0.1330992E+02)
 number of electron     672.0000000 magnetization      48.0000000
 augmentation part      672.0000000 magnetization      48.0000000

 Free energy of the ion-electron system (eV)
  ---------------------------------------------------
  alpha Z        PSCENC =      2652.81237852
  Ewald energy   TEWEN  =    -41999.59175691
  -Hartree energ DENC   =    -25622.33367067
  -exchange      EXHF   =         0.00000000
  -V(xc)+E(xc)   XCENC  =      3605.35094701
  PAW double counting   =     55594.23204139   -59034.67079123
  entropy T*S    EENTRO =        -0.00000000
  eigenvalues    EBANDS =    -10270.44330564
  atomic energy  EATOM  =     73862.19814772
  Solvation  Ediel_sol  =         0.00000000
  ---------------------------------------------------
  free energy    TOTEN  =     -1212.44600981 eV

  energy without entropy =    -1212.44600981  energy(sigma->0) =    -1212.44600981


--------------------------------------------------------------------------------------------------------




--------------------------------------- Iteration      1(  10)  ---------------------------------------


    EDDIAG:  cpu time    4.3721: real time    4.7890
  RMM-DIIS:  cpu time   17.5261: real time   17.5518
    ORTHCH:  cpu time    1.1583: real time    1.2421
       DOS:  cpu time    0.0016: real time    0.0016
    --------------------------------------------
      LOOP:  cpu time   23.0580: real time   23.5845

 eigenvalue-minimisations  : 19585
 total energy-change (2. order) :-0.1937907E+01  (-0.5368413E+00)
 number of electron     672.0000000 magnetization      48.0000000
 augmentation part      672.0000000 magnetization      48.0000000

 Free energy of the ion-electron system (eV)
  ---------------------------------------------------
  alpha Z        PSCENC =      2652.81237852
  Ewald energy   TEWEN  =    -41999.59175691
  -Hartree energ DENC   =    -25622.33367067
  -exchange      EXHF   =         0.00000000
  -V(xc)+E(xc)   XCENC  =      3605.35094701
  PAW double counting   =     55594.23204139   -59034.67079123
  entropy T*S    EENTRO =        -0.00000004
  eigenvalues    EBANDS =    -10272.38121212
  atomic energy  EATOM  =     73862.19814772
  Solvation  Ediel_sol  =         0.00000000
  ---------------------------------------------------
  free energy    TOTEN  =     -1214.38391633 eV

  energy without entropy =    -1214.38391629  energy(sigma->0) =    -1214.38391631


--------------------------------------------------------------------------------------------------------




--------------------------------------- Iteration      1(  11)  ---------------------------------------


    EDDIAG:  cpu time    4.4218: real time    4.8158
  RMM-DIIS:  cpu time   19.7067: real time   19.7186
    ORTHCH:  cpu time    1.1610: real time    1.2433
       DOS:  cpu time    0.0012: real time    0.0012
    --------------------------------------------
      LOOP:  cpu time   25.2906: real time   25.7789

 eigenvalue-minimisations  : 22587
 total energy-change (2. order) : 0.7191535E-01  (-0.4372081E-01)
 number of electron     672.0000000 magnetization      48.0000000
 augmentation part      672.0000000 magnetization      48.0000000

 Free energy of the ion-electron system (eV)
  ---------------------------------------------------
  alpha Z        PSCENC =      2652.81237852
  Ewald energy   TEWEN  =    -41999.59175691
  -Hartree energ DENC   =    -25622.33367067
  -exchange      EXHF   =         0.00000000
  -V(xc)+E(xc)   XCENC  =      3605.35094701
  PAW double counting   =     55594.23204139   -59034.67079123
  entropy T*S    EENTRO =        -0.00000003
  eigenvalues    EBANDS =    -10272.30929678
  atomic energy  EATOM  =     73862.19814772
  Solvation  Ediel_sol  =         0.00000000
  ---------------------------------------------------
  free energy    TOTEN  =     -1214.31200099 eV

  energy without entropy =    -1214.31200096  energy(sigma->0) =    -1214.31200097


--------------------------------------------------------------------------------------------------------




--------------------------------------- Iteration      1(  12)  ---------------------------------------


    EDDIAG:  cpu time    4.3844: real time    4.7927
  RMM-DIIS:  cpu time   21.4189: real time   21.4572
    ORTHCH:  cpu time    1.1574: real time    1.2410
       DOS:  cpu time    0.0015: real time    0.0015
    CHARGE:  cpu time    1.7778: real time    1.7787
    MIXING:  cpu time    0.0009: real time    0.0011
    --------------------------------------------
      LOOP:  cpu time   28.7409: real time   29.2721

 eigenvalue-minimisations  : 24410
 total energy-change (2. order) :-0.1034093E-02  (-0.4395448E-02)
 number of electron     672.0000103 magnetization      47.9999988
 augmentation part      238.9849677 magnetization      29.0195169

 Broyden mixing:
  rms(total) = 0.12488E+02    rms(broyden)= 0.12479E+02
  rms(prec ) = 0.14359E+02
  weight for this iteration     100.00

 Free energy of the ion-electron system (eV)
  ---------------------------------------------------
  alpha Z        PSCENC =      2652.81237852
  Ewald energy   TEWEN  =    -41999.59175691
  -Hartree energ DENC   =    -25622.33367067
  -exchange      EXHF   =         0.00000000
  -V(xc)+E(xc)   XCENC  =      3605.35094701
  PAW double counting   =     55594.23204139   -59034.67079123
  entropy T*S    EENTRO =        -0.00000003
  eigenvalues    EBANDS =    -10272.31033088
  atomic energy  EATOM  =     73862.19814772
  Solvation  Ediel_sol  =         0.00000000
  ---------------------------------------------------
  free energy    TOTEN  =     -1214.31303508 eV

  energy without entropy =    -1214.31303505  energy(sigma->0) =    -1214.31303507


--------------------------------------------------------------------------------------------------------




--------------------------------------- Iteration      1(  13)  ---------------------------------------


    POTLOK:  cpu time    0.1679: real time    0.1688
    SETDIJ:  cpu time    4.9636: real time    4.9656
    EDDIAG:  cpu time    4.4530: real time    4.9015
  RMM-DIIS:  cpu time   17.3348: real time   17.3464
    ORTHCH:  cpu time    1.1556: real time    1.2398
       DOS:  cpu time    0.0016: real time    0.0016
    CHARGE:  cpu time    1.7840: real time    1.7850
    MIXING:  cpu time    0.0009: real time    0.0010
    --------------------------------------------
      LOOP:  cpu time   29.8614: real time   30.4097

 eigenvalue-minimisations  : 18753
 total energy-change (2. order) : 0.2264672E+03  (-0.1228679E+03)
 number of electron     672.0000040 magnetization      47.9999986
 augmentation part      269.3419960 magnetization      26.1938790

 Broyden mixing:
  rms(total) = 0.14102E+02    rms(broyden)= 0.14098E+02
  rms(prec ) = 0.15916E+02
  weight for this iteration     100.00

 eigenvalues of (default mixing * dielectric matrix)
  average eigenvalue GAMMA=   0.3151
  0.3151

 Free energy of the ion-electron system (eV)
  ---------------------------------------------------
  alpha Z        PSCENC =      2652.81237852
  Ewald energy   TEWEN  =    -41999.59175691
  -Hartree energ DENC   =    -24942.03753997
  -exchange      EXHF   =         0.00000000
  -V(xc)+E(xc)   XCENC  =      3695.34160663
  PAW double counting   =     59821.76004253   -63246.44955526
  entropy T*S    EENTRO =        -0.08842705
  eigenvalues    EBANDS =    -10831.79068341
  atomic energy  EATOM  =     73862.19814772
  Solvation  Ediel_sol  =         0.00000000
  ---------------------------------------------------
  free energy    TOTEN  =      -987.84578720 eV

  energy without entropy =     -987.75736015  energy(sigma->0) =     -987.80157367


--------------------------------------------------------------------------------------------------------




--------------------------------------- Iteration      1(  14)  ---------------------------------------


    POTLOK:  cpu time    0.1731: real time    0.1738
    SETDIJ:  cpu time    4.9479: real time    4.9502
    EDDIAG:  cpu time    4.4921: real time    4.9154
  RMM-DIIS:  cpu time   17.6925: real time   17.7039
    ORTHCH:  cpu time    1.1611: real time    1.2416
       DOS:  cpu time    0.0011: real time    0.0011
    CHARGE:  cpu time    1.7868: real time    1.7875
    MIXING:  cpu time    0.0009: real time    0.0009
    --------------------------------------------
      LOOP:  cpu time   30.2555: real time   30.7743

 eigenvalue-minimisations  : 19361
 total energy-change (2. order) : 0.7186851E+02  (-0.1795905E+02)
 number of electron     672.0000079 magnetization      47.9999978
 augmentation part      246.4789399 magnetization      32.1366395

 Broyden mixing:
  rms(total) = 0.52458E+01    rms(broyden)= 0.52413E+01
  rms(prec ) = 0.56946E+01
  weight for this iteration     100.00

 eigenvalues of (default mixing * dielectric matrix)
  average eigenvalue GAMMA=   0.7258
  1.0964  0.3553

 Free energy of the ion-electron system (eV)
  ---------------------------------------------------
  alpha Z        PSCENC =      2652.81237852
  Ewald energy   TEWEN  =    -41999.59175691
  -Hartree energ DENC   =    -25555.52705717
  -exchange      EXHF   =         0.00000000
  -V(xc)+E(xc)   XCENC  =      3672.07516615
  PAW double counting   =     63182.88273618   -66664.55829857
  entropy T*S    EENTRO =        -0.00000000
  eigenvalues    EBANDS =    -10066.26858995
  atomic energy  EATOM  =     73862.19814772
  Solvation  Ediel_sol  =         0.00000000
  ---------------------------------------------------
  free energy    TOTEN  =      -915.97727403 eV

  energy without entropy =     -915.97727403  energy(sigma->0) =     -915.97727403


--------------------------------------------------------------------------------------------------------




--------------------------------------- Iteration      1(  15)  ---------------------------------------


    POTLOK:  cpu time    0.1669: real time    0.1675
    SETDIJ:  cpu time    4.9582: real time    4.9604
    EDDIAG:  cpu time    4.4024: real time    4.8146
  RMM-DIIS:  cpu time   17.9241: real time   17.9340
    ORTHCH:  cpu time    1.1538: real time    1.2382
       DOS:  cpu time    0.0015: real time    0.0015
    CHARGE:  cpu time    1.7821: real time    1.7829
    MIXING:  cpu time    0.0009: real time    0.0009
    --------------------------------------------
      LOOP:  cpu time   30.3901: real time   30.8999

 eigenvalue-minimisations  : 20197
 total energy-change (2. order) : 0.1459532E+02  (-0.2167281E+01)
 number of electron     672.0000069 magnetization      47.9999972
 augmentation part      249.6729726 magnetization      33.8261487

 Broyden mixing:
  rms(total) = 0.22168E+01    rms(broyden)= 0.22164E+01
  rms(prec ) = 0.23008E+01
  weight for this iteration     100.00

 eigenvalues of (default mixing * dielectric matrix)
  average eigenvalue GAMMA=   0.9217
  1.6477  0.3794  0.7382

 Free energy of the ion-electron system (eV)
  ---------------------------------------------------
  alpha Z        PSCENC =      2652.81237852
  Ewald energy   TEWEN  =    -41999.59175691
  -Hartree energ DENC   =    -25470.36877600
  -exchange      EXHF   =         0.00000000
  -V(xc)+E(xc)   XCENC  =      3705.57862627
  PAW double counting   =     67212.84431309   -70734.60496484
  entropy T*S    EENTRO =        -0.00000000
  eigenvalues    EBANDS =    -10130.24991929
  atomic energy  EATOM  =     73862.19814772
  Solvation  Ediel_sol  =         0.00000000
  ---------------------------------------------------
  free energy    TOTEN  =      -901.38195143 eV

  energy without entropy =     -901.38195143  energy(sigma->0) =     -901.38195143


--------------------------------------------------------------------------------------------------------




--------------------------------------- Iteration      1(  16)  ---------------------------------------


    POTLOK:  cpu time    0.1681: real time    0.1689
    SETDIJ:  cpu time    5.0178: real time    5.0199
    EDDIAG:  cpu time    4.4259: real time    4.8391
  RMM-DIIS:  cpu time   17.4169: real time   17.4271
    ORTHCH:  cpu time    1.1570: real time    1.2417
       DOS:  cpu time    0.0011: real time    0.0011
    CHARGE:  cpu time    1.7830: real time    1.7842
    MIXING:  cpu time    0.0010: real time    0.0010
    --------------------------------------------
      LOOP:  cpu time   29.9707: real time   30.4830

 eigenvalue-minimisations  : 19131
 total energy-change (2. order) :-0.1470422E+01  (-0.6501635E+00)
 number of electron     672.0000069 magnetization      47.9999970
 augmentation part      251.0893322 magnetization      33.9337588

 Broyden mixing:
  rms(total) = 0.15277E+01    rms(broyden)= 0.15273E+01
  rms(prec ) = 0.16119E+01
  weight for this iteration     100.00

 eigenvalues of (default mixing * dielectric matrix)
  average eigenvalue GAMMA=   0.9622
  2.0655  0.8939  0.3857  0.5038

 Free energy of the ion-electron system (eV)
  ---------------------------------------------------
  alpha Z        PSCENC =      2652.81237852
  Ewald energy   TEWEN  =    -41999.59175691
  -Hartree energ DENC   =    -25419.83163139
  -exchange      EXHF   =         0.00000000
  -V(xc)+E(xc)   XCENC  =      3706.35024103
  PAW double counting   =     70017.15274071   -73567.60547122
  entropy T*S    EENTRO =        -0.00000000
  eigenvalues    EBANDS =    -10154.33702234
  atomic energy  EATOM  =     73862.19814772
  Solvation  Ediel_sol  =         0.00000000
  ---------------------------------------------------
  free energy    TOTEN  =      -902.85237388 eV

  energy without entropy =     -902.85237388  energy(sigma->0) =     -902.85237388


--------------------------------------------------------------------------------------------------------




--------------------------------------- Iteration      1(  17)  ---------------------------------------


    POTLOK:  cpu time    0.1712: real time    0.1725
    SETDIJ:  cpu time    5.0230: real time    5.0252
    EDDIAG:  cpu time    4.5460: real time    4.9409
  RMM-DIIS:  cpu time   18.2685: real time   18.2778
    ORTHCH:  cpu time    1.1575: real time    1.2395
       DOS:  cpu time    0.0014: real time    0.0014
    CHARGE:  cpu time    1.7848: real time    1.7875
    MIXING:  cpu time    0.0020: real time    0.0020
    --------------------------------------------
      LOOP:  cpu time   30.9542: real time   31.4468

 eigenvalue-minimisations  : 20306
 total energy-change (2. order) : 0.1058776E+00  (-0.7902805E-01)
 number of electron     672.0000066 magnetization      47.9999968
 augmentation part      251.1104573 magnetization      33.9399216

 Broyden mixing:
  rms(total) = 0.80235E+00    rms(broyden)= 0.80218E+00
  rms(prec ) = 0.90779E+00
  weight for this iteration     100.00

 eigenvalues of (default mixing * dielectric matrix)
  average eigenvalue GAMMA=   0.9839
  2.2163  1.1051  0.3750  0.6779  0.5452

 Free energy of the ion-electron system (eV)
  ---------------------------------------------------
  alpha Z        PSCENC =      2652.81237852
  Ewald energy   TEWEN  =    -41999.59175691
  -Hartree energ DENC   =    -25409.20533707
  -exchange      EXHF   =         0.00000000
  -V(xc)+E(xc)   XCENC  =      3703.97852682
  PAW double counting   =     70969.36278280   -74529.19284560
  entropy T*S    EENTRO =        -0.00000000
  eigenvalues    EBANDS =    -10153.10839255
  atomic energy  EATOM  =     73862.19814772
  Solvation  Ediel_sol  =         0.00000000
  ---------------------------------------------------
  free energy    TOTEN  =      -902.74649626 eV

  energy without entropy =     -902.74649626  energy(sigma->0) =     -902.74649626


--------------------------------------------------------------------------------------------------------




--------------------------------------- Iteration      1(  18)  ---------------------------------------


    POTLOK:  cpu time    0.1716: real time    0.1726
    SETDIJ:  cpu time    4.9786: real time    5.0058
    EDDIAG:  cpu time    4.4129: real time    4.8102
  RMM-DIIS:  cpu time   17.6753: real time   17.6850
    ORTHCH:  cpu time    1.1596: real time    1.2428
       DOS:  cpu time    0.0011: real time    0.0011
    CHARGE:  cpu time    1.7991: real time    1.8048
    MIXING:  cpu time    0.0013: real time    0.0013
    --------------------------------------------
      LOOP:  cpu time   30.1994: real time   30.7237

 eigenvalue-minimisations  : 19324
 total energy-change (2. order) : 0.4335449E+00  (-0.6743688E-01)
 number of electron     672.0000069 magnetization      47.9999967
 augmentation part      250.5932438 magnetization      33.9040196

 Broyden mixing:
  rms(total) = 0.29199E+00    rms(broyden)= 0.29173E+00
  rms(prec ) = 0.30994E+00
  weight for this iteration     100.00

 eigenvalues of (default mixing * dielectric matrix)
  average eigenvalue GAMMA=   1.0154
  2.4486  1.3576  0.8495  0.3769  0.5864  0.4735

[...]
   4      -0.821    -0.681     1.502     0.163     0.400    -0.205
   5      -0.981    -0.909     1.890     0.018    -0.042     0.096
   6      -0.835    -0.779     1.613     0.121    -0.433     0.307
   7      -0.623    -0.876     1.498    -0.038     0.014     0.525
   8      -0.850    -0.693     1.543    -0.099    -0.427    -0.274
   9      -0.699    -0.659     1.358    -0.137     0.330     0.193
  10      -0.835    -0.697     1.532     0.084    -0.422     0.221
  11      -0.644    -0.650     1.294    -0.123     0.267     0.174
  12      -0.881    -0.928     1.809    -0.045     0.022    -0.135
  13      -0.920    -0.891     1.811     0.039     0.007    -0.082
  14      -0.574    -0.899     1.473    -0.062    -0.085     0.477
  15      -0.601    -0.838     1.439    -0.017     0.077    -0.469
  16      -0.941    -0.938     1.879     0.049     0.027    -0.015
  17       1.440     1.441    -2.881    -0.344    -0.062    -0.025
  18       1.437     1.442    -2.879    -0.103     0.009     0.043
  19       1.582     1.353    -2.935    -0.023     0.057    -0.109
  20       1.507     1.324    -2.831     0.069    -0.008     0.135
  21       1.283     1.522    -2.805    -0.014    -0.001     0.099
  22       1.300     1.571    -2.871    -0.158     0.087    -0.023
  23       1.494     1.436    -2.930     0.072     0.121     0.039
  24       1.495     1.393    -2.887    -0.042    -0.081    -0.029
  25      -0.237     0.656    -0.419     0.129     0.416    -0.903
  26       0.717    -0.530    -0.187    -0.463     0.832     0.434
  27      -0.578    -0.727     1.305     0.660     0.441     0.884
  28      -1.079     1.111    -0.032     0.333     0.965     0.397
  29       0.427     0.734    -1.160    -0.588    -0.102     1.206
  30      -1.227     1.144     0.083    -0.447     0.192     0.653
  31      -0.076     0.868    -0.792     0.400    -0.461     0.156
  32      -0.084     0.063     0.021     0.128    -0.855     0.834
  33       0.710    -1.207     0.497     0.363     0.665    -0.498
  34      -0.390    -1.352     1.742     1.081     0.041    -1.109
  35       1.035    -0.740    -0.294     0.452    -0.890    -0.008
  36      -1.051     1.448    -0.396     1.494     1.215     0.054
  37      -0.586     0.855    -0.268    -0.512    -0.513     0.356
  38      -0.543     1.369    -0.826     0.399     0.194     0.045
  39      -1.593     1.480     0.113    -1.207     1.450     0.126
  40      -0.170    -0.195     0.365     1.055    -0.575     0.325
  41      -5.876     5.998    -0.123    -4.432     4.584    -2.782
  42      -2.698     2.811    -0.113     4.502     3.023     3.479
  43       4.963    -5.816     0.853    -0.528    -4.680     0.527
  44      -3.414     3.817    -0.403     5.367    -2.653    -4.261
  45      -3.573     0.366     3.208    -6.287    -3.697     4.327
  46       4.160    -4.928     0.767     1.118     5.597     0.040
  47      -2.306     2.373    -0.066    -5.944     1.072    -6.102
  48       7.136    -6.503    -0.633    -0.851    -4.916     0.703
  49      -1.383     1.114     0.269     6.524     0.242     5.136
  50       4.478    -4.293    -0.185     1.238     3.332    -1.500
  51      -0.922     1.048    -0.125    -5.965    -1.659     3.531
  52      -5.132     4.094     1.038     5.129    -2.950    -2.701
  53      -3.498     2.689     0.808    -6.242     2.125    -3.848
  54      -4.472     3.734     0.738     4.757     3.892     3.174
  55       4.010    -5.202     1.191    -2.574    -4.418     0.669
  56      -3.721     3.486     0.235     6.004    -1.279    -3.092
  57      -0.997     2.058    -1.062    -4.443    -1.177     3.174
  58       4.512    -5.643     1.131    -1.052     4.179     0.147
  59      -3.884     1.716     2.168    -2.514     3.092    -3.984
  60       3.556    -4.090     0.533     0.477    -3.211     3.006
  61      -1.190     1.886    -0.696     5.870     1.399     4.261
  62       6.518    -8.408     1.889    -0.273     4.720     1.058
  63      -3.300     1.531     1.769    -4.414    -2.135     3.907
  64      -1.958     2.746    -0.789     6.167    -1.030    -3.856
  65      -2.982     2.298     0.684    -4.161     3.909    -3.223
  66      -3.147     4.315    -1.168     3.690     1.086     3.762
  67       4.491    -4.042    -0.449     1.248    -4.941    -1.057
  68      -2.669     3.972    -1.303     5.525    -1.647    -4.648
  69      -4.299     1.835     2.464    -5.652    -2.884     5.820
  70       3.590    -4.785     1.195     0.102     5.019    -0.524
  71      -2.311    -0.428     2.739    -5.587     2.378    -4.490
  72       6.041    -7.897     1.856     2.162    -4.309    -1.755
  73      -4.647     3.733     0.914     4.482     1.069     3.757
  74       6.469    -5.575    -0.895     0.604     4.263    -0.850
  75      -2.653     2.343     0.310    -5.984    -2.603     3.590
  76      -2.775     2.834    -0.059     5.733    -2.219    -3.396
  77      -1.074     1.930    -0.856    -6.869     1.095    -5.245
  78      -3.090     2.789     0.300     4.607     2.993     3.772
  79       5.751    -4.778    -0.972    -0.269    -3.467    -1.059
  80      -3.915     2.808     1.107     4.171    -3.531    -3.082
  81      -3.196     3.911    -0.715    -4.712    -2.482     1.848
  82      10.273    -7.261    -3.012    -1.309     2.933     0.491
  83      -3.683     2.632     1.051    -4.486     3.781    -3.383
  84       5.478    -6.241     0.763     0.987    -4.780     1.557
  85      -4.283     2.628     1.656     5.967     3.058     4.391
  86       4.800    -8.089     3.289    -0.937     5.718    -0.012
  87      -2.605     1.739     0.866    -4.673    -2.754     4.393
  88      -2.398     1.855     0.543     4.637    -3.132    -4.708
 ---------------------------------------------------------------------


 Total hyperfine coupling parameters after diagonalization (MHz)
 (convention: |A_zz| > |A_xx| > |A_yy|)
 ----------------------------------------------------------------------
  ion      A_xx      A_yy      A_zz     asymmetry (A_yy - A_xx)/ A_zz 
 ----------------------------------------------------------------------
   1       1.756     1.361     3.945      -0.100
   2       1.678     1.342     3.699      -0.091
   3       2.279     1.903     4.678      -0.080
   4       2.474     2.040     4.630      -0.094
   5      -0.210    -0.131     2.670       0.030
   6       2.555     2.200     4.957      -0.072
   7       1.779     1.406     4.007      -0.093
   8       2.115     1.763     4.406      -0.080
   9       2.135     1.797     4.101      -0.082
  10       1.844     1.536     4.125      -0.075
  11       1.274     0.984     3.142      -0.093
  12       0.812     0.709     3.483      -0.030
  13       0.854     0.771     3.532      -0.023
  14       1.532     1.109     3.675      -0.115
  15       1.717     1.390     3.856      -0.085
  16       0.406     0.308     3.176      -0.031
  17      13.469     9.489    14.156      -0.281
  18      14.564    10.349    14.771      -0.285
  19      14.680    10.389    14.913      -0.288
  20      13.976     9.836    14.202      -0.292
  21      12.949     8.860    13.193      -0.310
  22      13.045     8.943    13.460      -0.305
  23      14.051     9.731    14.210      -0.304
  24      13.865     9.598    13.997      -0.305
  25      95.182    94.090    96.400      -0.011
  26      98.722    97.502    99.959      -0.012
  27      94.771    93.824    97.020      -0.010
  28      95.091    93.194    96.262      -0.020
  29      96.032    94.114    97.476      -0.020
  30      93.513    92.249    95.121      -0.013
  31      94.410    93.284    95.369      -0.012
  32      94.894    93.518    95.916      -0.014
  33      94.738    93.064    95.819      -0.017
  34      97.095    94.659    99.082      -0.025
  35      95.095    94.704    97.230      -0.004
  36      96.004    93.557    98.198      -0.025
  37      95.509    94.723    96.908      -0.008
  38      98.122    97.705   100.092      -0.004
  39      97.895    94.443    99.153      -0.035
  40     102.269   100.301   102.715      -0.019
  41       8.707     0.274    18.548      -0.455
  42       3.817     0.768    14.139      -0.216
  43       4.698     1.034    14.952      -0.245
  44       3.903     0.573    16.140      -0.206
  45       8.191     1.612    19.670      -0.334
  46       2.911     0.866    14.454      -0.141
  47       4.600    -0.791    16.594      -0.325
  48       4.597     0.998    17.180      -0.209
  49       7.613     0.095    16.873      -0.446
  50       6.360     1.871    13.460      -0.334
  51       4.395    -0.100    13.987      -0.321
  52       5.825    -1.381    14.641      -0.492
  53       8.054     2.233    18.546      -0.314
  54       6.792     0.608    16.608      -0.372
  55       5.414     1.303    14.931      -0.275
  56       7.379     1.349    16.756      -0.360
  57       5.329     2.955    14.087      -0.169
  58       6.319     2.071    15.261      -0.278
  59       4.387     1.097    13.753      -0.239
  60       8.185     2.014    13.740      -0.449
  61       5.323     1.218    15.889      -0.258
  62       9.217     1.567    19.592      -0.390
  63       5.474     1.197    14.682      -0.291
  64       4.709     0.073    15.189      -0.305
  65       4.226    -0.016    13.828      -0.307
  66       2.649     0.723    13.039      -0.148
  67      -0.692     0.209    11.408       0.079
  68       2.577    -0.182    15.188      -0.182
  69       4.247    -0.695    17.459      -0.283
  70       3.730     1.497    13.950      -0.160
  71       6.289     0.491    16.250      -0.357
  72       6.947    -0.586    16.960      -0.444
  73       6.257     0.834    15.316      -0.354
  74       5.137     1.721    16.063      -0.213
  75       5.934     1.320    16.641      -0.277
  76       4.022    -0.322    14.398      -0.302
  77       7.355     1.627    19.034      -0.301
  78       4.211     0.845    14.811      -0.227
  79       4.583     1.398    13.821      -0.230
  80       3.749    -1.510    12.696      -0.414
  81       7.035     2.340    15.542      -0.302
  82       7.180     3.182    21.634      -0.185
  83       6.670     1.718    16.507      -0.300
  84       7.402     1.939    17.346      -0.315
  85       7.362     1.494    18.880      -0.311
  86       8.510     2.001    20.016      -0.325
  87       3.755     0.906    14.817      -0.192
  88       3.916     1.897    16.007      -0.126
 ---------------------------------------------------------------------



--------------------------------------------------------------------------------------------------------


 stress matrix after NEB project (eV)
    -48.00142      2.28270     -0.67365
      2.27706    -46.95709     -0.64283
     -0.68777     -0.62616    -67.07187
  FORCES: max atom, RMS     2.767493    1.101541
  FORCE total and by dimension   10.333371    2.154947
  Stress total and by dimension   94.972986   67.071873
     LOOP+:  cpu time  792.2872: real time  807.0247
    4ORBIT:  cpu time    0.0000: real time    0.0000
 


 total charge     
 
# of ion       s       p       d       tot
------------------------------------------
    1        0.053   5.997   0.000   6.050
    2        0.049   5.991   0.000   6.040
    3        0.053   5.995   0.000   6.049
    4        0.053   5.996   0.000   6.049
    5        0.050   5.995   0.000   6.046
    6        0.053   5.996   0.000   6.049
    7        0.053   5.996   0.000   6.048
    8        0.047   5.989   0.000   6.036
    9        0.055   5.997   0.000   6.052
   10        0.052   5.994   0.000   6.045
   11        0.054   5.997   0.000   6.051
   12        0.054   5.999   0.000   6.053
   13        0.047   5.991   0.000   6.038
   14        0.054   5.997   0.000   6.051
   15        0.050   5.993   0.000   6.042
   16        0.052   5.997   0.000   6.050
   17        0.147   6.126   0.082   6.355
   18        0.147   6.125   0.081   6.354
   19        0.145   6.121   0.079   6.345
   20        0.143   6.117   0.075   6.334
   21        0.144   6.120   0.078   6.343
   22        0.142   6.117   0.076   6.335
   23        0.151   6.132   0.087   6.369
   24        0.149   6.128   0.083   6.360
   25        0.379   6.459   4.838  11.676
   26        0.353   6.399   4.783  11.534
   27        0.391   6.486   4.860  11.737
   28        0.374   6.450   4.825  11.648
   29        0.366   6.436   4.812  11.614
   30        0.388   6.479   4.860  11.728
   31        0.387   6.479   4.858  11.724
   32        0.381   6.471   4.842  11.694
   33        0.387   6.479   4.849  11.715
   34        0.360   6.421   4.792  11.573
   35        0.383   6.471   4.848  11.702
   36        0.368   6.441   4.818  11.628
   37        0.384   6.467   4.857  11.708
   38        0.373   6.451   4.832  11.655
   39        0.364   6.430   4.808  11.602
   40        0.356   6.413   4.785  11.554
   41        1.599   3.496   0.000   5.095
   42        1.597   3.495   0.000   5.092
   43        1.597   3.486   0.000   5.083
   44        1.600   3.505   0.000   5.105
   45        1.605   3.520   0.000   5.125
   46        1.599   3.478   0.000   5.077
   47        1.598   3.468   0.000   5.066
   48        1.603   3.501   0.000   5.104
   49        1.598   3.460   0.000   5.057
   50        1.597   3.520   0.000   5.117
   51        1.599   3.515   0.000   5.115
   52        1.600   3.523   0.000   5.123
   53        1.604   3.511   0.000   5.115
   54        1.599   3.513   0.000   5.112
   55        1.599   3.523   0.000   5.122
   56        1.599   3.509   0.000   5.108
   57        1.593   3.490   0.000   5.083
   58        1.598   3.526   0.000   5.125
   59        1.598   3.504   0.000   5.102
   60        1.598   3.529   0.000   5.127
   61        1.598   3.499   0.000   5.097
   62        1.603   3.495   0.000   5.098
   63        1.597   3.516   0.000   5.113
   64        1.599   3.503   0.000   5.103
   65        1.598   3.496   0.000   5.095
   66        1.597   3.496   0.000   5.093
   67        1.596   3.469   0.000   5.065
   68        1.600   3.495   0.000   5.094
   69        1.605   3.509   0.000   5.114
   70        1.599   3.480   0.000   5.079
   71        1.597   3.509   0.000   5.107
   72        1.603   3.507   0.000   5.110
   73        1.597   3.510   0.000   5.107
   74        1.597   3.463   0.000   5.060
   75        1.598   3.506   0.000   5.104
   76        1.598   3.499   0.000   5.097
   77        1.604   3.510   0.000   5.114
   78        1.598   3.511   0.000   5.109
   79        1.598   3.494   0.000   5.092
   80        1.598   3.476   0.000   5.074
   81        1.597   3.500   0.000   5.096
   82        1.602   3.457   0.000   5.059
   83        1.600   3.517   0.000   5.117
   84        1.598   3.492   0.000   5.090
   85        1.602   3.516   0.000   5.118
   86        1.605   3.519   0.000   5.123
   87        1.599   3.531   0.000   5.131
   88        1.599   3.524   0.000   5.123
--------------------------------------------------
tot         84.753 416.210  77.907 578.869
 


 magnetization (x)
 
# of ion       s       p       d       tot
------------------------------------------
    1        0.002   0.000   0.000   0.002
    2        0.002   0.000   0.000   0.002
    3        0.002   0.000   0.000   0.002
    4        0.002   0.000   0.000   0.002
    5        0.001   0.000   0.000   0.001
    6        0.002   0.000   0.000   0.003
    7        0.002   0.000   0.000   0.002
    8        0.002   0.000   0.000   0.002
    9        0.002   0.001   0.000   0.002
   10        0.002   0.000   0.000   0.002
   11        0.001   0.000   0.000   0.002
   12        0.001   0.001   0.000   0.002
   13        0.001   0.001   0.000   0.002
   14        0.001   0.000   0.000   0.001
   15        0.002   0.000   0.000   0.002
   16        0.001   0.000   0.000   0.001
   17        0.007   0.002   0.001   0.010
   18        0.007   0.002   0.001   0.010
   19        0.008   0.002   0.001   0.011
   20        0.007   0.002   0.001   0.010
   21        0.007   0.002   0.001   0.010
   22        0.007   0.002   0.001   0.010
   23        0.007   0.002   0.001   0.010
   24        0.007   0.002   0.001   0.009
   25        0.015   0.030   2.745   2.790
   26        0.015   0.028   2.812   2.855
   27        0.015   0.031   2.727   2.773
   28        0.015   0.030   2.754   2.799
   29        0.015   0.029   2.775   2.819
   30        0.015   0.030   2.719   2.764
   31        0.015   0.031   2.729   2.775
   32        0.015   0.030   2.738   2.784
   33        0.015   0.030   2.736   2.781
   34        0.015   0.029   2.792   2.836
   35        0.015   0.032   2.727   2.774
   36        0.015   0.030   2.767   2.812
   37        0.015   0.029   2.732   2.777
   38        0.016   0.031   2.750   2.796
   39        0.015   0.029   2.793   2.837
   40        0.016   0.030   2.812   2.859
   41        0.002   0.041   0.000   0.043
   42        0.002   0.016   0.000   0.018
   43        0.002   0.029   0.000   0.031
   44        0.002   0.034   0.000   0.036
   45        0.002   0.060   0.000   0.063
   46        0.002   0.013   0.000   0.015
   47        0.002   0.026   0.000   0.028
   48        0.002   0.024   0.000   0.026
   49        0.002   0.035   0.000   0.037
   50        0.002   0.030   0.000   0.032
   51        0.002   0.026   0.000   0.028
   52        0.002   0.033   0.000   0.035
   53        0.003   0.046   0.000   0.049
   54        0.002   0.047   0.000   0.049
   55        0.002   0.039   0.000   0.041
   56        0.002   0.044   0.000   0.046
   57        0.002   0.027   0.000   0.029
   58        0.002   0.043   0.000   0.045
   59        0.002   0.021   0.000   0.022
   60        0.002   0.039   0.000   0.041
   61        0.002   0.035   0.000   0.037
   62        0.002   0.061   0.000   0.064
   63        0.002   0.026   0.000   0.028
   64        0.002   0.030   0.000   0.032
   65        0.002   0.017   0.000   0.018
   66        0.002   0.017   0.000   0.019
   67        0.001  -0.007   0.000  -0.006
   68        0.002   0.021   0.000   0.023
   69        0.002   0.032   0.000   0.034
   70        0.002   0.009   0.000   0.011
   71        0.002   0.045   0.000   0.046
   72        0.002   0.036   0.000   0.038
   73        0.002   0.033   0.000   0.035
   74        0.002   0.021   0.000   0.024
   75        0.002   0.039   0.000   0.041
   76        0.002   0.022   0.000   0.024
   77        0.002   0.045   0.000   0.047
   78        0.002   0.028   0.000   0.030
   79        0.002   0.021   0.000   0.022
   80        0.002   0.005   0.000   0.007
   81        0.002   0.034   0.000   0.036
   82        0.003   0.041   0.000   0.044
   83        0.002   0.039   0.000   0.041
   84        0.002   0.044   0.000   0.046
   85        0.002   0.054   0.000   0.056
   86        0.003   0.058   0.000   0.061
   87        0.002   0.030   0.000   0.032
   88        0.002   0.033   0.000   0.034
--------------------------------------------------
tot          0.419   2.041  44.118  46.578
 

 total amount of memory used by VASP MPI-rank0    94430. kBytes
=======================================================================

   base      :      30000. kBytes
   nonlr-proj:      13671. kBytes
   fftplans  :       1275. kBytes
   grid      :      22786. kBytes
   one-center:       2737. kBytes
   wavefun   :      23961. kBytes
 
  
  
 General timing and accounting informations for this job:
 ========================================================
  
                  Total CPU time used (sec):      813.167
                            User time (sec):      805.438
                          System time (sec):        7.729
                         Elapsed time (sec):      830.398
  
                   Maximum memory used (kb):      193892.
                   Average memory used (kb):           0.
  
                          Minor page faults:       290628
                          Major page faults:            0
                 Voluntary context switches:       254775
