 vasp.5.4.4.18Apr17-6-g9f103f2a35 (build Dec 02 2020 12:53:39) complex          
  
 executed on             LinuxIFC date 2021.08.04  06:41:04
 running on  112 total cores
 distrk:  each k-point on  112 cores,    1 groups
 distr:  one band on NCORES_PER_BAND=   1 cores,  112 groups


--------------------------------------------------------------------------------------------------------


 INCAR:
 POTCAR:    PAW_PBE Na_pv 19Sep2006               
 POTCAR:    PAW_PBE Mg_pv 13Apr2007               
 POTCAR:    PAW_PBE Mn_pv 02Aug2007               
 POTCAR:    PAW_PBE O 08Apr2002                   

 ----------------------------------------------------------------------------- 
|                                                                             |
|           W    W    AA    RRRRR   N    N  II  N    N   GGGG   !!!           |
|           W    W   A  A   R    R  NN   N  II  NN   N  G    G  !!!           |
|           W    W  A    A  R    R  N N  N  II  N N  N  G       !!!           |
|           W WW W  AAAAAA  RRRRR   N  N N  II  N  N N  G  GGG   !            |
|           WW  WW  A    A  R   R   N   NN  II  N   NN  G    G                |
|           W    W  A    A  R    R  N    N  II  N    N   GGGG   !!!           |
|                                                                             |
|      For optimal performance we recommend to set                            |
|        NCORE= 4 - approx SQRT( number of cores)                             |
|      NCORE specifies how many cores store one orbital (NPAR=cpu/NCORE).     |
|      This setting can  greatly improve the performance of VASP for DFT.     |
|      The default,   NCORE=1            might be grossly inefficient         |
|      on modern multi-core architectures or massively parallel machines.     |
|      Do your own testing !!!!                                               |
|      Unfortunately you need to use the default for GW and RPA calculations. |
|      (for HF NCORE is supported but not extensively tested yet)             |
|                                                                             |
 ----------------------------------------------------------------------------- 

 POTCAR:    PAW_PBE Na_pv 19Sep2006               
   VRHFIN =Na: p6s1                                                             
   LEXCH  = PE                                                                  
   EATOM  =   766.0439 eV,   56.3026 Ry                                         
                                                                                
   TITEL  = PAW_PBE Na_pv 19Sep2006                                             
   LULTRA =        F    use ultrasoft PP ?                                      
   IUNSCR =        1    unscreen: 0-lin 1-nonlin 2-no                           
   RPACOR =    1.800    partial core radius                                     
   POMASS =   22.990; ZVAL   =    7.000    mass and valenz                      
   RCORE  =    2.200    outmost cutoff radius                                   
   RWIGS  =    2.200; RWIGS  =    1.164    wigner-seitz radius (au A)           
   ENMAX  =  259.561; ENMIN  =  194.671 eV                                      
   ICORE  =        2    local potential                                         
   LCOR   =        T    correct aug charges                                     
   LPAW   =        T    paw PP                                                  
   EAUG   =  368.056                                                            
   DEXC   =    0.000                                                            
   RMAX   =    2.245    core radius for proj-oper                               
   RAUG   =    1.300    factor for augmentation sphere                          
   RDEP   =    2.259    radius for radial grids                                 
   RDEPT  =    1.738    core radius for aug-charge                              
                                                                                
   Atomic configuration                                                         
    5 entries                                                                   
     n  l   j            E        occ.                                          
     1  0  0.50     -1033.6933   2.0000                                         
     2  0  0.50       -56.7526   2.0000                                         
     2  1  1.50       -28.6721   6.0000                                         
     3  0  0.50        -2.7440   1.0000                                         
     3  2  1.50        -1.3606   0.0000                                         
   Description                                                                  
     l       E           TYP  RCUT    TYP  RCUT                                 
     1    -28.6720912     23  2.000                                             
     1      6.8029130     23  2.000                                             
     0     -2.7439560     23  2.200                                             
     0     34.0145650     23  2.200                                             
     2     -1.3605826     23  2.200                                             
  local pseudopotential read in
  partial core-charges read in
  partial kinetic energy density read in
  atomic valenz-charges read in
  non local Contribution for L=           1  read in
    real space projection operators read in
  non local Contribution for L=           1  read in
    real space projection operators read in
  non local Contribution for L=           0  read in
    real space projection operators read in
  non local Contribution for L=           0  read in
    real space projection operators read in
    PAW grid and wavefunctions read in
 
   number of l-projection  operators is LMAX  =           4
   number of lm-projection operators is LMMAX =           8
 
 POTCAR:    PAW_PBE Mg_pv 13Apr2007               
   VRHFIN =Mg: p6s2                                                             
   LEXCH  = PE                                                                  
   EATOM  =  1056.7344 eV,   77.6678 Ry                                         
                                                                                
   TITEL  = PAW_PBE Mg_pv 13Apr2007                                             
   LULTRA =        F    use ultrasoft PP ?                                      
   IUNSCR =        1    unscreen: 0-lin 1-nonlin 2-no                           
   RPACOR =    1.500    partial core radius                                     
   POMASS =   24.305; ZVAL   =    8.000    mass and valenz                      
   RCORE  =    2.000    outmost cutoff radius                                   
   RWIGS  =    2.000; RWIGS  =    1.058    wigner-seitz radius (au A)           
   ENMAX  =  403.929; ENMIN  =  302.947 eV                                      
   RCLOC  =    1.506    cutoff for local pot                                    
   LCOR   =        T    correct aug charges                                     
   LPAW   =        T    paw PP                                                  
   EAUG   =  758.780                                                            
   DEXC   =    0.000                                                            
   RMAX   =    2.045    core radius for proj-oper                               
   RAUG   =    1.300    factor for augmentation sphere                          
   RDEP   =    2.025    radius for radial grids                                 
   RDEPT  =    1.557    core radius for aug-charge                              
                                                                                
   Atomic configuration                                                         
    5 entries                                                                   
     n  l   j            E        occ.                                          
     1  0  0.50     -1259.6230   2.0000                                         
     2  0  0.50       -79.8442   2.0000                                         
     2  1  1.50       -46.6121   6.0000                                         
     3  0  0.50        -4.7055   2.0000                                         
     3  2  1.50        -1.3606   0.0000                                         
   Description                                                                  
     l       E           TYP  RCUT    TYP  RCUT                                 
     1    -46.6121073     23  1.600                                             
     1      2.7211652     23  1.600                                             
     0     -4.7054661     23  2.000                                             
     0     61.2262170     23  2.000                                             
     2     -1.3605826     23  2.000                                             
  local pseudopotential read in
  partial core-charges read in
  partial kinetic energy density read in
  atomic valenz-charges read in
  non local Contribution for L=           1  read in
    real space projection operators read in
  non local Contribution for L=           1  read in
    real space projection operators read in
  non local Contribution for L=           0  read in
    real space projection operators read in
  non local Contribution for L=           0  read in
    real space projection operators read in
  non local Contribution for L=           2  read in
    real space projection operators read in
    PAW grid and wavefunctions read in
 
   number of l-projection  operators is LMAX  =           5
   number of lm-projection operators is LMMAX =          13
 
 POTCAR:    PAW_PBE Mn_pv 02Aug2007               
   VRHFIN =Mn: 3p4s3d                                                           
   LEXCH  = PE                                                                  
   EATOM  =  2025.2664 eV,  148.8529 Ry                                         
                                                                                
   TITEL  = PAW_PBE Mn_pv 02Aug2007                                             
   LULTRA =        F    use ultrasoft PP ?                                      
   IUNSCR =        1    unscreen: 0-lin 1-nonlin 2-no                           
   RPACOR =    2.080    partial core radius                                     
   POMASS =   54.938; ZVAL   =   13.000    mass and valenz                      
   RCORE  =    2.300    outmost cutoff radius                                   
   RWIGS  =    2.500; RWIGS  =    1.323    wigner-seitz radius (au A)           
   ENMAX  =  269.864; ENMIN  =  202.398 eV                                      
   ICORE  =        3    local potential                                         
   LCOR   =        T    correct aug charges                                     
   LPAW   =        T    paw PP                                                  
   EAUG   =  569.085                                                            
   DEXC   =    0.000                                                            
   RMAX   =    2.343    core radius for proj-oper                               
   RAUG   =    1.300    factor for augmentation sphere                          
   RDEP   =    2.338    radius for radial grids                                 
   RDEPT  =    1.798    core radius for aug-charge                              
                                                                                
   Atomic configuration                                                         
    8 entries                                                                   
     n  l   j            E        occ.                                          
     1  0  0.50     -6424.8287   2.0000                                         
     2  0  0.50      -739.1154   2.0000                                         
     2  1  1.50      -625.3949   6.0000                                         
     3  0  0.50       -81.6100   2.0000                                         
     3  1  1.50       -50.4667   6.0000                                         
     3  2  2.50        -3.3745   6.0000                                         
     4  0  0.50        -4.1331   1.0000                                         
     4  3  2.50        -1.3606   0.0000                                         
   Description                                                                  
     l       E           TYP  RCUT    TYP  RCUT                                 
     1    -50.4666628     23  2.000                                             
     1     -1.3605826     23  2.000                                             
     2     -3.3744729     23  2.300                                             
     2     -4.7350555     23  2.300                                             
     0     -4.1331431     23  2.300                                             
     0      7.6656591     23  2.300                                             
     3      9.5240782     23  2.300                                             
  local pseudopotential read in
  partial core-charges read in
  partial kinetic energy density read in
  atomic valenz-charges read in
  non local Contribution for L=           1  read in
    real space projection operators read in
  non local Contribution for L=           1  read in
    real space projection operators read in
  non local Contribution for L=           2  read in
    real space projection operators read in
  non local Contribution for L=           2  read in
    real space projection operators read in
  non local Contribution for L=           0  read in
    real space projection operators read in
  non local Contribution for L=           0  read in
    real space projection operators read in
    PAW grid and wavefunctions read in
 
   number of l-projection  operators is LMAX  =           6
   number of lm-projection operators is LMMAX =          18
 
 POTCAR:    PAW_PBE O 08Apr2002                   
   VRHFIN =O: s2p4                                                              
   LEXCH  = PE                                                                  
   EATOM  =   432.3788 eV,   31.7789 Ry                                         
                                                                                
   TITEL  = PAW_PBE O 08Apr2002                                                 
   LULTRA =        F    use ultrasoft PP ?                                      
   IUNSCR =        1    unscreen: 0-lin 1-nonlin 2-no                           
   RPACOR =    1.200    partial core radius                                     
   POMASS =   16.000; ZVAL   =    6.000    mass and valenz                      
   RCORE  =    1.520    outmost cutoff radius                                   
   RWIGS  =    1.550; RWIGS  =    0.820    wigner-seitz radius (au A)           
   ENMAX  =  400.000; ENMIN  =  300.000 eV                                      
   ICORE  =        2    local potential                                         
   LCOR   =        T    correct aug charges                                     
   LPAW   =        T    paw PP                                                  
   EAUG   =  605.392                                                            
   DEXC   =    0.000                                                            
   RMAX   =    1.553    core radius for proj-oper                               
   RAUG   =    1.300    factor for augmentation sphere                          
   RDEP   =    1.550    radius for radial grids                                 
   RDEPT  =    1.329    core radius for aug-charge                              
                                                                                
   Atomic configuration                                                         
    4 entries                                                                   
     n  l   j            E        occ.                                          
     1  0  0.50      -514.6923   2.0000                                         
     2  0  0.50       -23.9615   2.0000                                         
     2  1  0.50        -9.0305   4.0000                                         
     3  2  1.50        -9.5241   0.0000                                         
   Description                                                                  
     l       E           TYP  RCUT    TYP  RCUT                                 
     0    -23.9615318     23  1.200                                             
     0     -9.5240782     23  1.200                                             
     1     -9.0304911     23  1.520                                             
     1      8.1634956     23  1.520                                             
     2     -9.5240782      7  1.500                                             
  local pseudopotential read in
  partial core-charges read in
  partial kinetic energy density read in
  kinetic energy density of atom read in
  atomic valenz-charges read in
  non local Contribution for L=           0  read in
    real space projection operators read in
  non local Contribution for L=           0  read in
    real space projection operators read in
  non local Contribution for L=           1  read in
    real space projection operators read in
  non local Contribution for L=           1  read in
    real space projection operators read in
    PAW grid and wavefunctions read in
 
   number of l-projection  operators is LMAX  =           4
   number of lm-projection operators is LMMAX =           8
 
 Optimization of the real space projectors (new method)

 maximal supplied QI-value         = 17.01
 optimisation between [QCUT,QGAM] = [ 10.20, 20.41] = [ 29.16,116.64] Ry 
 Optimized for a Real-space Cutoff    1.30 Angstroem

   l    n(q)    QCUT    max X(q) W(low)/X(q) W(high)/X(q)  e(spline) 
   1      7    10.205     4.940    0.23E-03    0.84E-03    0.11E-06
   1      7    10.205     6.253    0.40E-03    0.13E-02    0.18E-06
   0      8    10.205    37.438    0.23E-03    0.37E-03    0.42E-07
   0      8    10.205     9.606    0.16E-03    0.26E-03    0.31E-07
 Optimization of the real space projectors (new method)

 maximal supplied QI-value         = 18.90
 optimisation between [QCUT,QGAM] = [ 10.20, 20.41] = [ 29.16,116.64] Ry 
 Optimized for a Real-space Cutoff    1.26 Angstroem

   l    n(q)    QCUT    max X(q) W(low)/X(q) W(high)/X(q)  e(spline) 
   1      7    10.205     2.974    0.63E-04    0.14E-03    0.13E-06
   1      7    10.205     4.279    0.11E-03    0.45E-03    0.24E-06
   0      8    10.205    16.381    0.44E-03    0.15E-03    0.55E-07
   0      8    10.205     5.611    0.31E-03    0.11E-03    0.40E-07
   2      7    10.205     4.652    0.50E-03    0.47E-03    0.57E-07
 Optimization of the real space projectors (new method)

 maximal supplied QI-value         = 16.25
 optimisation between [QCUT,QGAM] = [ 10.24, 20.48] = [ 29.35,117.42] Ry 
 Optimized for a Real-space Cutoff    1.34 Angstroem

   l    n(q)    QCUT    max X(q) W(low)/X(q) W(high)/X(q)  e(spline) 
   1      8    10.239     3.658    0.23E-03    0.30E-03    0.98E-07
   1      8    10.239     5.612    0.32E-03    0.65E-03    0.21E-06
   2      7    10.239    55.373    0.42E-03    0.45E-03    0.65E-07
   2      7    10.239    50.863    0.43E-03    0.48E-03    0.67E-07
   0      8    10.239    79.536    0.11E-03    0.21E-03    0.56E-07
   0      8    10.239    38.668    0.96E-04    0.19E-03    0.52E-07
 Optimization of the real space projectors (new method)

 maximal supplied QI-value         = 24.76
 optimisation between [QCUT,QGAM] = [ 10.15, 20.30] = [ 28.85,115.39] Ry 
 Optimized for a Real-space Cutoff    1.38 Angstroem

   l    n(q)    QCUT    max X(q) W(low)/X(q) W(high)/X(q)  e(spline) 
   0      8    10.150    20.381    0.22E-03    0.32E-03    0.29E-06
   0      8    10.150    15.268    0.23E-03    0.35E-03    0.30E-06
   1      8    10.150     5.964    0.46E-03    0.53E-03    0.21E-06
   1      8    10.150     5.382    0.38E-03    0.45E-03    0.19E-06
  PAW_PBE Na_pv 19Sep2006               :
 energy of atom  1       EATOM= -766.0439
 kinetic energy error for atom=    0.0103 (will be added to EATOM!!)
  PAW_PBE Mg_pv 13Apr2007               :
 energy of atom  2       EATOM=-1056.7344
 kinetic energy error for atom=    0.0820 (will be added to EATOM!!)
  PAW_PBE Mn_pv 02Aug2007               :
 energy of atom  3       EATOM=-2025.2664
 kinetic energy error for atom=    0.0284 (will be added to EATOM!!)
  PAW_PBE O 08Apr2002                   :
 energy of atom  4       EATOM= -432.3788
 kinetic energy error for atom=    0.1156 (will be added to EATOM!!)
 
 
 POSCAR: Na Mg Mn  O                             
  positions in cartesian coordinates
  No initial velocities read in

 METAGGA = SCAN     LMAXTAU =  6    LMIXTAU =  F

 exchange correlation table for  LEXCH =        8
   RHO(1)=    0.500       N(1)  =     2000
   RHO(2)=  100.500       N(2)  =     4000

 VTST: version 3.2, (02/03/18)

 CHAIN: initializing optimizer
 
 OPT: Using VASP Dynamics algorithm
 CHAIN: Read ICHAIN            0
 
 POSCAR: Na Mg Mn  O                             
  positions in cartesian coordinates
  No initial velocities read in
 


--------------------------------------------------------------------------------------------------------


 ion  position               nearest neighbor table
   1  0.988  0.341  0.236-  55 2.34  53 2.35
   2  0.342  0.723  0.761-  84 2.21  83 2.35  73 2.37  81 2.38
   3  0.604  0.291  0.745-  45 2.16  48 2.24  49 2.30  46 2.35
   4  0.142  0.339  0.748-  61 2.29  57 2.30  60 2.30  12 2.74
   5  0.807  0.515  0.250-  43 2.31  52 2.35
   6  0.528  0.899  0.249-  51 2.22  42 2.33  79 2.35
   7  0.855  0.702  0.742-  69 2.24  71 2.26  82 2.33
   8  0.186  0.015  0.741-  44 2.21  58 2.27  47 2.34  69 2.37  27 2.78  25 2.92
   9  0.157  0.160  0.254-  54 2.25  63 2.33
  10  0.156  0.699  0.269-  76 2.15
  11  0.354  0.524  0.259-  87 2.33
  12  0.003  0.515  0.747-  60 2.29  70 2.33   4 2.74
  13  0.658  0.987  0.748-  84 2.26  81 2.28  59 2.34  29 2.81  31 2.84
  14  0.495  0.511  0.755-  48 2.27  85 2.33  80 2.34
  15  0.863  0.876  0.243-  63 2.25  65 2.36  40 2.91
  16  0.481  0.214  0.268-  50 2.16
  17  0.821  0.363  0.995-  49 1.99  43 2.04  66 2.12  71 2.12  53 2.14  60 2.15  33 2.79  26 2.82

  18  0.509  0.184  0.507-  45 1.98  52 2.00  50 2.03  51 2.04  46 2.08  44 2.12  28 2.74  27 2.84

  19  0.327  0.364  0.991-  55 1.97  83 2.03  61 2.06  41 2.11  48 2.13  78 2.13  37 2.85  25 2.85

  20  0.999  0.171  0.507-  56 1.97  57 1.99  62 2.04  58 2.07  64 2.10  63 2.19  40 2.79
  21  0.329  0.866  0.001-  67 2.03  42 2.04  47 2.04  73 2.06  84 2.11  77 2.20
  22  0.010  0.678  0.499-  70 1.94  76 1.98  75 2.01  69 2.08  74 2.09  68 2.12  36 2.81  39 2.81

  23  0.841  0.866  0.987-  59 2.02  72 2.02  65 2.05  85 2.10  54 2.14  79 2.16  34 2.83  25 2.84

  24  0.496  0.676  0.503-  81 2.01  86 2.01  88 2.05  80 2.07  87 2.08  82 2.10  35 2.83
  25  0.167  0.036  0.999-  54 1.86  47 1.92  41 1.95  72 1.95  61 1.97  67 1.99  23 2.84  26 2.85
                            19 2.85  30 2.91   8 2.92  34 2.93
  26  0.496  0.198  0.999-  41 1.83  47 1.86  48 1.92  43 1.95  42 1.96  49 2.00  17 2.82  25 2.85
                            33 2.89  29 2.90
  27  0.183  0.018  0.494-  50 1.80  76 1.89  63 1.91  44 1.91  58 2.00  69 2.06   8 2.78  36 2.81
                            18 2.84  32 2.85  40 2.97
  28  0.825  0.343  0.504-  46 1.85  52 1.87  68 1.89  57 1.97  75 1.99  62 2.03  18 2.74  31 2.88
                            39 2.89  35 2.92
  29  0.663  0.032  0.995-  49 1.84  53 1.86  42 1.89  84 1.95  59 1.96  79 2.00  13 2.81  30 2.88
                            26 2.90  38 2.93
  30  0.995  0.199  0.993-  53 1.84  59 1.89  54 1.92  61 1.93  55 1.93  60 1.97  29 2.88  37 2.88
                            25 2.91
  31  0.667  0.011  0.496-  88 1.85  56 1.91  62 1.92  51 1.94  81 1.98  46 1.99  13 2.84  28 2.88
                            36 2.90  40 2.91
  32  0.338  0.346  0.508-  80 1.80  87 1.85  50 1.89  45 1.95  58 1.95  64 2.00  35 2.85  27 2.85
                            39 2.92
  33  0.669  0.532  0.998-  78 1.91  43 1.92  85 1.93  65 1.94  71 1.96  48 1.98  17 2.79  38 2.82
                            34 2.87  26 2.89
  34  0.999  0.699  0.001-  66 1.84  67 1.88  71 1.93  72 1.94  73 1.94  65 1.99  23 2.83  33 2.87
                            37 2.90  25 2.93
  35  0.666  0.520  0.502-  82 1.87  74 1.89  87 1.90  68 1.95  45 1.96  52 1.98  24 2.83  32 2.85
                            40 2.85  28 2.92
  36  0.333  0.845  0.510-  44 1.82  81 1.90  76 1.91  51 1.93  70 1.98  86 1.98  22 2.81  27 2.81
                            31 2.90  39 2.99
  37  0.165  0.531  1.000-  60 1.85  77 1.94  66 1.94  73 1.95  55 1.96  83 2.00  19 2.85  30 2.88
                            34 2.90  38 2.96
  38  0.506  0.695  0.995-  79 1.88  85 1.90  78 1.92  84 1.93  83 1.97  77 2.08  33 2.82  29 2.93
                            37 2.96
  39  0.157  0.501  0.500-  75 1.87  64 1.90  57 1.93  70 1.93  86 1.93  80 2.10  22 2.81  28 2.89
                            32 2.92  36 2.99
  40  0.840  0.849  0.501-  74 1.87  56 1.90  63 1.90  82 1.94  69 1.96  88 2.02  20 2.79  35 2.85
                            15 2.91  31 2.91  27 2.97
  41  0.341  0.193  0.090-  26 1.83  25 1.95  19 2.11
  42  0.511  0.039  0.090-  29 1.89  26 1.96  21 2.04   6 2.33
  43  0.653  0.366  0.095-  33 1.92  26 1.95  17 2.04   5 2.31
  44  0.324  0.995  0.595-  36 1.82  27 1.91  18 2.12   8 2.21
  45  0.508  0.353  0.598-  32 1.95  35 1.96  18 1.98   3 2.16
  46  0.688  0.181  0.600-  28 1.85  31 1.99  18 2.08   3 2.35
  47  0.335  0.046  0.910-  26 1.86  25 1.92  21 2.04   8 2.34
  48  0.511  0.361  0.900-  26 1.92  33 1.98  19 2.13   3 2.24  14 2.27
  49  0.657  0.183  0.906-  29 1.84  17 1.99  26 2.00   3 2.30
  50  0.333  0.184  0.418-  27 1.80  32 1.89  18 2.03  16 2.16
  51  0.493  0.003  0.413-  36 1.93  31 1.94  18 2.04   6 2.22
  52  0.676  0.355  0.412-  28 1.87  35 1.98  18 2.00   5 2.35
  53  0.831  0.178  0.082-  30 1.84  29 1.86  17 2.14   1 2.35
  54  0.018  0.052  0.088-  25 1.86  30 1.92  23 2.14   9 2.25
  55  0.159  0.358  0.087-  30 1.93  37 1.96  19 1.97   1 2.34
  56  0.821  0.001  0.588-  40 1.90  31 1.91  20 1.97
  57  0.994  0.342  0.593-  39 1.93  28 1.97  20 1.99   4 2.30
  58  0.179  0.175  0.601-  32 1.95  27 2.00  20 2.07   8 2.27
  59  0.834  0.041  0.903-  30 1.89  29 1.96  23 2.02  13 2.34
  60  0.017  0.378  0.904-  37 1.85  30 1.97  17 2.15  12 2.29   4 2.30
  61  0.150  0.188  0.898-  30 1.93  25 1.97  19 2.06   4 2.29
  62  0.831  0.175  0.407-  31 1.92  28 2.03  20 2.04
  63  0.009  0.989  0.404-  40 1.90  27 1.91  20 2.19  15 2.25   9 2.33
  64  0.175  0.352  0.409-  39 1.90  32 2.00  20 2.10
  65  0.828  0.694  0.094-  33 1.94  34 1.99  23 2.05  15 2.36
  66  0.006  0.546  0.087-  34 1.84  37 1.94  17 2.12
  67  0.151  0.860  0.093-  34 1.88  25 1.99  21 2.03
  68  0.821  0.501  0.594-  28 1.89  35 1.95  22 2.12
  69  0.006  0.853  0.596-  40 1.96  27 2.06  22 2.08   7 2.24   8 2.37
  70  0.166  0.667  0.594-  39 1.93  22 1.94  36 1.98  12 2.33
  71  0.838  0.552  0.899-  34 1.93  33 1.96  17 2.12   7 2.26
  72  0.018  0.865  0.902-  34 1.94  25 1.95  23 2.02
  73  0.155  0.689  0.906-  34 1.94  37 1.95  21 2.06   2 2.37
  74  0.826  0.683  0.415-  40 1.87  35 1.89  22 2.09
  75  0.001  0.501  0.409-  39 1.87  28 1.99  22 2.01
  76  0.181  0.852  0.412-  27 1.89  36 1.91  22 1.98  10 2.15
  77  0.329  0.678  0.102-  37 1.94  38 2.08  21 2.20
  78  0.513  0.539  0.092-  33 1.91  38 1.92  19 2.13
  79  0.653  0.858  0.089-  38 1.88  29 2.00  23 2.16   6 2.35
  80  0.330  0.490  0.599-  32 1.80  24 2.07  39 2.10  14 2.34
  81  0.501  0.851  0.594-  36 1.90  31 1.98  24 2.01  13 2.28   2 2.38
  82  0.682  0.682  0.595-  35 1.87  40 1.94  24 2.10   7 2.33
  83  0.334  0.541  0.898-  38 1.97  37 2.00  19 2.03   2 2.35
  84  0.505  0.858  0.904-  38 1.93  29 1.95  21 2.11   2 2.21  13 2.26
  85  0.656  0.682  0.899-  38 1.90  33 1.93  23 2.10  14 2.33
  86  0.321  0.673  0.415-  39 1.93  36 1.98  24 2.01
  87  0.493  0.493  0.413-  32 1.85  35 1.90  24 2.08  11 2.33
  88  0.669  0.854  0.410-  31 1.85  40 2.02  24 2.05
 
  LATTYP: Found a hexagonal cell.
 ALAT       =    10.0190000534
 C/A-ratio  =     1.1196726572
  
  Lattice vectors:
  
 A1 = (  10.0190000534,   0.0000000000,   0.0000000000)
 A2 = (  -5.0095000267,   8.6767085668,   0.0000000000)
 A3 = (   0.0000000000,   0.0000000000,  11.2180004120)


Analysis of symmetry for initial positions (statically):
=====================================================================
 Subroutine PRICEL returns:
 Original cell was already a primitive cell.
 

 Routine SETGRP: Setting up the symmetry group for a 
 hexagonal supercell.


 Subroutine GETGRP returns: Found  1 space group operations
 (whereof  1 operations were pure point group operations)
 out of a pool of 24 trial point group operations.


The static configuration has the point symmetry C_1 .


Analysis of symmetry for dynamics (positions and initial velocities):
=====================================================================
 Subroutine PRICEL returns:
 Original cell was already a primitive cell.
 

 Routine SETGRP: Setting up the symmetry group for a 
 hexagonal supercell.


 Subroutine GETGRP returns: Found  1 space group operations
 (whereof  1 operations were pure point group operations)
 out of a pool of 24 trial point group operations.


The dynamic configuration has the point symmetry C_1 .


Analysis of structural, dynamic, and magnetic symmetry:
=====================================================================
 Subroutine PRICEL returns:
 Original cell was already a primitive cell.
 

 Routine SETGRP: Setting up the symmetry group for a 
 hexagonal supercell.


 Subroutine GETGRP returns: Found  1 space group operations
 (whereof  1 operations were pure point group operations)
 out of a pool of 24 trial point group operations.


The magnetic configuration has the point symmetry C_1 .


 Subroutine INISYM returns: Found  1 space group operations
 (whereof  1 operations are pure point group operations),
 and found     1 'primitive' translations

 
 

Automatic generation of k-mesh.
 generate k-points for:    2    2    2
Space group operators:
 irot       det(A)        alpha          n_x          n_y          n_z        tau_x        tau_y        tau_z
    1     1.000000     0.000000     1.000000     0.000000     0.000000     0.000000     0.000000     0.000000
 
 Subroutine IBZKPT returns following result:
 ===========================================
 
 Found      8 irreducible k-points:
 
 Following reciprocal coordinates:
            Coordinates               Weight
  0.000000  0.000000  0.000000      1.000000
  0.500000 -0.000000 -0.000000      1.000000
  0.000000  0.500000  0.000000      1.000000
  0.500000  0.500000 -0.000000      1.000000
  0.000000  0.000000  0.500000      1.000000
  0.500000 -0.000000  0.500000      1.000000
  0.000000  0.500000  0.500000      1.000000
  0.500000  0.500000  0.500000      1.000000
 
 Following cartesian coordinates:
            Coordinates               Weight
  0.000000  0.000000  0.000000      1.000000
  0.049905  0.028813 -0.000000      1.000000
  0.000000  0.057626  0.000000      1.000000
  0.049905  0.086438 -0.000000      1.000000
  0.000000  0.000000  0.044571      1.000000
  0.049905  0.028813  0.044571      1.000000
  0.000000  0.057626  0.044571      1.000000
  0.049905  0.086438  0.044571      1.000000
 


--------------------------------------------------------------------------------------------------------




 Dimension of arrays:
   k-points           NKPTS =      8   k-points in BZ     NKDIM =      8   number of bands    NBANDS=    448
   number of dos      NEDOS =    301   number of ions     NIONS =     88
   non local maximal  LDIM  =      6   non local SUM 2l+1 LMDIM =     18
   total plane-waves  NPLWV = 140000
   max r-space proj   IRMAX =   1632   max aug-charges    IRDMAX=   4555
   dimension x,y,z NGX =    50 NGY =   50 NGZ =   56
   dimension x,y,z NGXF=   100 NGYF=  100 NGZF=  112
   support grid    NGXF=   100 NGYF=  100 NGZF=  112
   ions per type =              16   8  16  48
   NGX,Y,Z   is equivalent  to a cutoff of   8.30,  8.30,  8.30 a.u.
   NGXF,Y,Z  is equivalent  to a cutoff of  16.59, 16.59, 16.60 a.u.

 SYSTEM =  unknown system                          
 POSCAR =  Na Mg Mn  O                             

 Startparameter for this run:
   NWRITE =      2    write-flag & timer
   PREC   = normal    normal or accurate (medium, high low for compatibility)
   ISTART =      0    job   : 0-new  1-cont  2-samecut
   ICHARG =      1    charge: 1-file 2-atom 10-const
   ISPIN  =      2    spin polarized calculation?
   LNONCOLLINEAR =      F non collinear calculations
   LSORBIT =      F    spin-orbit coupling
   INIWAV =      1    electr: 0-lowe 1-rand  2-diag
   LASPH  =      T    aspherical Exc in radial PAW
   METAGGA=      F    non-selfconsistent MetaGGA calc.

 Electronic Relaxation 1
   ENCUT  =  400.0 eV  29.40 Ry    5.42 a.u.  16.34 16.34 18.29*2*pi/ulx,y,z
   ENINI  =  400.0     initial cutoff
   ENAUG  =  758.8 eV  augmentation charge cutoff
   NELM   =    200;   NELMIN=  6; NELMDL=-12     # of ELM steps 
   EDIFF  = 0.1E-04   stopping-criterion for ELM
   LREAL  =      T    real-space projection
   NLSPLINE    = F    spline interpolate recip. space projectors
   LCOMPAT=      F    compatible to vasp.4.4
   GGA_COMPAT  = T    GGA compatible to vasp.4.4-vasp.4.6
   LMAXPAW     = -100 max onsite density
   LMAXMIX     =    4 max onsite mixed and CHGCAR
   VOSKOWN=      0    Vosko Wilk Nusair interpolation
   ROPT   =   -0.00050  -0.00050  -0.00050  -0.00050
 Ionic relaxation
   EDIFFG = 0.1E-03   stopping-criterion for IOM
   NSW    =      1    number of steps for IOM
   NBLOCK =      1;   KBLOCK =      1    inner block; outer block 
   IBRION =     -1    ionic relax: 0-MD 1-quasi-New 2-CG
   NFREE  =      0    steps in history (QN), initial steepest desc. (CG)
   ISIF   =      2    stress and relaxation
   IWAVPR =     10    prediction:  0-non 1-charg 2-wave 3-comb
   ISYM   =      2    0-nonsym 1-usesym 2-fastsym
   LCORR  =      T    Harris-Foulkes like correction to forces

   POTIM  = 0.5000    time-step for ionic-motion
   TEIN   =    0.0    initial temperature
   TEBEG  =    0.0;   TEEND  =   0.0 temperature during run
   SMASS  =  -3.00    Nose mass-parameter (am)
   estimated Nose-frequenzy (Omega)   =  0.10E-29 period in steps =****** mass=  -0.229E-26a.u.
   SCALEE = 1.0000    scale energy and forces
   NPACO  =    256;   APACO  = 16.0  distance and # of slots for P.C.
   PSTRESS=    0.0 pullay stress

  Mass of Ions in am
   POMASS =  22.99 24.30 54.94 16.00
  Ionic Valenz
   ZVAL   =   7.00  8.00 13.00  6.00
  Atomic Wigner-Seitz radii
   RWIGS  =  -1.00 -1.00 -1.00 -1.00
  virtual crystal weights 
   VCA    =   1.00  1.00  1.00  1.00
   NELECT =     672.0000    total number of electrons
   NUPDOWN=      48.0000    fix difference up-down

 DOS related values:
   EMIN   =  10.00;   EMAX   =-10.00  energy-range for DOS
   EFERMI =   0.00
   ISMEAR =     0;   SIGMA  =   0.05  broadening in eV -4-tet -1-fermi 0-gaus

 Electronic relaxation 2 (details)
   IALGO  =     48    algorithm
   LDIAG  =      T    sub-space diagonalisation (order eigenvalues)
   LSUBROT=      F    optimize rotation matrix (better conditioning)
   TURBO    =      0    0=normal 1=particle mesh
   IRESTART =      0    0=no restart 2=restart with 2 vectors
   NREBOOT  =      0    no. of reboots
   NMIN     =      0    reboot dimension
   EREF     =   0.00    reference energy to select bands
   IMIX   =      4    mixing-type and parameters
     AMIX     =   0.40;   BMIX     =  1.00
     AMIX_MAG =   1.60;   BMIX_MAG =  1.00
     AMIN     =   0.10
     WC   =   100.;   INIMIX=   1;  MIXPRE=   1;  MAXMIX= -45

 Intra band minimization:
   WEIMIN = 0.0000     energy-eigenvalue tresh-hold
   EBREAK =  0.56E-08  absolut break condition
   DEPER  =   0.30     relativ break condition  

   TIME   =   0.40     timestep for ELM

  volume/ion in A,a.u.               =      11.08        74.78
  Fermi-wavevector in a.u.,A,eV,Ry     =   1.445993  2.732531 28.448379  2.090897
  Thomas-Fermi vector in A             =   2.564112
 
 Write flags
   LWAVE        =      F    write WAVECAR
   LDOWNSAMPLE  =      F    k-point downsampling of WAVECAR
   LCHARG       =      F    write CHGCAR
   LVTOT        =      F    write LOCPOT, total local potential
   LVHAR        =      F    write LOCPOT, Hartree potential only
   LELF         =      F    write electronic localiz. function (ELF)
   LORBIT       =     11    0 simple, 1 ext, 2 COOP (PROOUT), +10 PAW based schemes


 Dipole corrections
   LMONO  =      F    monopole corrections only (constant potential shift)
   LDIPOL =      F    correct potential (dipole corrections)
   IDIPOL =      0    1-x, 2-y, 3-z, 4-all directions 
   EPSILON=  1.0000000 bulk dielectric constant

 Exchange correlation treatment:
   GGA     =    --    GGA type
   LEXCH   =     8    internal setting for exchange type
   VOSKOWN=      0    Vosko Wilk Nusair interpolation
   LHFCALC =     F    Hartree Fock is set to
   LHFONE  =     F    Hartree Fock one center treatment
   AEXX    =    0.0000 exact exchange contribution

 Linear response parameters
   LEPSILON=     F    determine dielectric tensor
   LRPA    =     F    only Hartree local field effects (RPA)
   LNABLA  =     F    use nabla operator in PAW spheres
   LVEL    =     F    velocity operator in full k-point grid
   LINTERFAST=   F  fast interpolation
   KINTER  =     0    interpolate to denser k-point grid
   CSHIFT  =0.1000    complex shift for real part using Kramers Kronig
   OMEGAMAX=  -1.0    maximum frequency
   DEG_THRESHOLD= 0.2000000E-02 threshold for treating states as degnerate
   RTIME   =   -0.100 relaxation time in fs
  (WPLASMAI=    0.000 imaginary part of plasma frequency in eV, 0.658/RTIME)
   DFIELD  = 0.0000000 0.0000000 0.0000000 field for delta impulse in time
 
 Orbital magnetization related:
   ORBITALMAG=     F  switch on orbital magnetization
   LCHIMAG   =     F  perturbation theory with respect to B field
   DQ        =  0.001000  dq finite difference perturbation B field
   LLRAUG    =     F  two centre corrections for induced B field



--------------------------------------------------------------------------------------------------------


 Static calculation
 charge density and potential will be updated during run
 spin polarized calculation
 RMM-DIIS sequential band-by-band
 perform sub-space diagonalisation
    before iterative eigenvector-optimisation
 modified Broyden-mixing scheme, WC =      100.0
 initial mixing is a Kerker type mixing with AMIX =  0.4000 and BMIX =      1.0000
 Hartree-type preconditioning will be used
 using additional bands          112
 real space projection scheme for non local part
 use partial core corrections
 calculate Harris-corrections to forces 
   (improved forces if not selfconsistent)
 use gradient corrections 
 use of overlap-Matrix (Vanderbilt PP)
 Gauss-broadening in eV      SIGMA  =   0.05


--------------------------------------------------------------------------------------------------------


  energy-cutoff  :      400.00
  volume of cell :      975.20
      direct lattice vectors                 reciprocal lattice vectors
    10.019000053  0.000000000  0.000000000     0.099810360  0.057625538 -0.000000000
    -5.009500027  8.676708567  0.000000000     0.000000000  0.115251076  0.000000000
     0.000000000  0.000000000 11.218000412     0.000000000  0.000000000  0.089142446

  length of vectors
    10.019000053 10.019000053 11.218000412     0.115251076  0.115251076  0.089142446


 
 k-points in units of 2pi/SCALE and weight: read from INCAR                         
   0.00000000  0.00000000  0.00000000       0.125
   0.04990518  0.02881277 -0.00000000       0.125
   0.00000000  0.05762554  0.00000000       0.125
   0.04990518  0.08643831 -0.00000000       0.125
   0.00000000  0.00000000  0.04457122       0.125
   0.04990518  0.02881277  0.04457122       0.125
   0.00000000  0.05762554  0.04457122       0.125
   0.04990518  0.08643831  0.04457122       0.125
 
 k-points in reciprocal lattice and weights: read from INCAR                         
   0.00000000  0.00000000  0.00000000       0.125
   0.50000000 -0.00000000 -0.00000000       0.125
   0.00000000  0.50000000  0.00000000       0.125
   0.50000000  0.50000000 -0.00000000       0.125
   0.00000000  0.00000000  0.50000000       0.125
   0.50000000 -0.00000000  0.50000000       0.125
   0.00000000  0.50000000  0.50000000       0.125
   0.50000000  0.50000000  0.50000000       0.125
 
 position of ions in fractional coordinates (direct lattice) 
   0.98814550  0.34069864  0.23566589
   0.34155327  0.72277111  0.76119716
   0.60447857  0.29108108  0.74546351
   0.14185262  0.33854905  0.74815740
   0.80715686  0.51522599  0.24974237
   0.52786599  0.89903710  0.24924941
   0.85525765  0.70191165  0.74220179
   0.18648522  0.01485488  0.74092527
   0.15652667  0.16028362  0.25399981
   0.15649438  0.69939457  0.26905062
   0.35445479  0.52396498  0.25887858
   0.00331319  0.51547954  0.74688801
   0.65838136  0.98738857  0.74804686
   0.49471106  0.51055189  0.75466658
   0.86301511  0.87554613  0.24278926
   0.48121515  0.21379470  0.26804688
   0.82119671  0.36252918  0.99480432
   0.50941775  0.18404560  0.50707611
   0.32708948  0.36449536  0.99093418
   0.99907901  0.17079403  0.50666160
   0.32900064  0.86636539  0.00144342
   0.00971330  0.67777775  0.49905596
   0.84085765  0.86635847  0.98727554
   0.49616486  0.67624030  0.50339185
   0.16742961  0.03610487  0.99932962
   0.49590999  0.19836554  0.99932310
   0.18291261  0.01809592  0.49358707
   0.82476498  0.34293649  0.50440451
   0.66322729  0.03184634  0.99532738
   0.99479757  0.19870784  0.99307360
   0.66746657  0.01146772  0.49554464
   0.33774002  0.34604597  0.50842127
   0.66850184  0.53168779  0.99819528
   0.99911633  0.69897127  0.00144462
   0.66606513  0.52027678  0.50203600
   0.33341459  0.84545539  0.50978871
   0.16526266  0.53056524  0.99962074
   0.50605576  0.69469661  0.99546159
   0.15738767  0.50148279  0.50036636
   0.84023052  0.84900282  0.50111248
   0.34115388  0.19288766  0.09039757
   0.51128057  0.03901987  0.08987252
   0.65271824  0.36614114  0.09486004
   0.32368197  0.99511121  0.59489122
   0.50767977  0.35273053  0.59836600
   0.68773400  0.18088772  0.59980565
   0.33510127  0.04560727  0.91024243
   0.51149829  0.36086264  0.89958991
   0.65747199  0.18292881  0.90606165
   0.33309139  0.18447203  0.41801300
   0.49288712  0.00278694  0.41264306
   0.67585508  0.35523148  0.41236048
   0.83099498  0.17783587  0.08202407
   0.01829268  0.05152299  0.08754020
   0.15928142  0.35784422  0.08662747
   0.82141383  0.00105702  0.58835797
   0.99370998  0.34168487  0.59309768
   0.17911640  0.17519777  0.60115081
   0.83400375  0.04117448  0.90320910
   0.01706410  0.37786909  0.90425206
   0.14954730  0.18756652  0.89819929
   0.83055102  0.17514937  0.40692100
   0.00851833  0.98924148  0.40425654
   0.17546806  0.35229603  0.40886520
   0.82756800  0.69438543  0.09412462
   0.00595178  0.54616448  0.08696532
   0.15117796  0.86014414  0.09316634
   0.82075583  0.50118429  0.59367532
   0.00630671  0.85317836  0.59558030
   0.16566860  0.66716312  0.59377784
   0.83824805  0.55243183  0.89882329
   0.01809416  0.86529701  0.90152430
   0.15546035  0.68919798  0.90587445
   0.82622519  0.68272087  0.41494561
   0.00107820  0.50051353  0.40937866
   0.18087507  0.85190484  0.41232482
   0.32883770  0.67791375  0.10199679
   0.51281997  0.53942575  0.09198520
   0.65344638  0.85753255  0.08884159
   0.32983309  0.49017781  0.59932963
   0.50075352  0.85090100  0.59413084
   0.68190867  0.68213654  0.59547332
   0.33435697  0.54101736  0.89753964
   0.50541743  0.85787369  0.90446600
   0.65562862  0.68216651  0.89931357
   0.32058353  0.67284846  0.41456675
   0.49252667  0.49271679  0.41341236
   0.66920010  0.85390675  0.41004990
 
 position of ions in cartesian coordinates  (Angst):
   8.19349992  2.95614283  2.64370000
  -0.19869971  6.27127430  8.53911000
   4.59810019  2.52562570  8.36261000
  -0.27474003  2.93749143  8.39283000
   5.50588005  4.47046573  2.80161000
   0.78496300  7.80068287  2.79608000
   5.05259995  6.09028287  8.32602000
   1.79397997  0.12889143  8.31170000
   0.76529989  1.39073427  2.84937000
  -1.93569987  6.06844283  3.01821000
   0.92647997  4.54629143  2.90410000
  -2.54909995  4.47266573  8.37859000
   1.64999984  8.56728287  8.39159000
   2.39890037  4.42991000  8.46585000
   4.26050008  7.59685857  2.72361000
   3.75029005  1.85503427  3.00695000
   6.41148000  3.14556000 11.15971531
   4.18188000  1.59691000  5.68838000
   1.45117000  3.16262000 11.11630000
   9.15418000  1.48193000  5.68373000
  -1.04380000  7.51720000  0.01619230
  -3.29801005  5.88088000  5.59841000
   4.08453000  7.51714000 11.07525741
   1.58345000  5.86754000  5.64705000
   1.49660997  0.31327143 11.21048013
   3.97481000  1.72116000 11.21040694
   1.74195000  0.15701300  5.53706000
   6.54538000  2.97556000  5.65841000
   6.48534003  0.27632143 11.16558301
   8.97145000  1.72413000 11.14030000
   6.62990000  0.09950210  5.55902000
   1.65030000  3.00254000  5.70347000
   4.03423000  4.61330000 11.19775511
   6.50865000  6.06477000  0.01620570
   4.06698000  4.51429000  5.63184000
  -0.89482800  7.33577000  5.71881000
  -1.00210000  4.60356000 11.21374584
   1.59009000  6.02768000 11.16708851
  -0.93531100  4.35122000  5.61311000
   4.16519000  7.36655000  5.62148000
   2.45175000  1.67363000  1.01408000
   4.92705000  0.33856400  1.00819000
   4.70540000  3.17690000  1.06414000
  -1.74204000  8.63429000  6.67349000
   3.31944000  3.06054000  6.71247000
   5.98425000  1.56951000  6.72862000
   3.12891000  0.39572100 10.21110000
   3.31696000  3.13110000 10.09160000
   5.67083000  1.58722000 10.16420000
   2.41313000  1.60061000  4.68927000
   4.92427493  0.02418143  4.62903000
   4.99186000  3.08224000  4.62586000
   7.43487000  1.54303000  0.92014600
  -0.07483005  0.44705000  0.98202600
  -0.19678005  3.10491000  0.97178700
   8.22445003  0.00917143  6.60020000
   8.24431000  2.96470000  6.65337000
   0.91691400  1.52014000  6.74371000
   8.14962000  0.35725900 10.13220000
  -1.72197005  3.27866000 10.14390000
   0.55869995  1.62746000 10.07600000
   7.44388000  1.51972000  4.56484000
  -4.87026005  8.58336000  4.53495000
  -0.00681245  3.05677000  4.58665000
   4.81288000  6.02498000  1.05589000
  -2.67638005  4.73891000  0.97557700
  -2.79424005  7.46322000  1.04514000
   5.71247000  4.34863000  6.65985000
  -4.21081005  7.40278000  6.68122000
  -1.68232000  5.78878000  6.66100000
   5.63100000  4.79329000 10.08300000
  -4.15342005  7.50793000 10.11330000
  -1.89498005  5.97997000 10.16210000
   4.85786000  5.92377000  4.65486000
  -2.49652005  4.34281000  4.59241000
  -2.45543000  7.39173000  4.62546000
  -0.10138400  5.88206000  1.14420000
   2.43569000  4.68044000  1.03189000
   2.25107000  7.44056000  0.99662500
   0.84905200  4.25313000  6.72328000
   0.75446100  7.38302000  6.66496000
   3.41488000  5.91870000  6.68002000
   0.63969600  4.69425000 10.06860000
   0.76625900  7.44352000 10.14630000
   3.15143000  5.91896000 10.08850000
  -0.15870800  5.83811000  4.65061000
   2.46636000  4.27516000  4.63766000
   2.42707000  7.40910000  4.59994000
 


--------------------------------------------------------------------------------------------------------


 k-point  1 :   0.0000 0.0000 0.0000  plane waves:   17725
 k-point  2 :   0.5000-0.0000-0.0000  plane waves:   17736
 k-point  3 :   0.0000 0.5000 0.0000  plane waves:   17736
 k-point  4 :   0.5000 0.5000-0.0000  plane waves:   17736
 k-point  5 :   0.0000 0.0000 0.5000  plane waves:   17676
 k-point  6 :   0.5000-0.0000 0.5000  plane waves:   17700
 k-point  7 :   0.0000 0.5000 0.5000  plane waves:   17700
 k-point  8 :   0.5000 0.5000 0.5000  plane waves:   17700

 maximum and minimum number of plane-waves per node :     17736    17676

 maximum number of plane-waves:     17736
 maximum index in each direction: 
   IXMAX=   16   IYMAX=   16   IZMAX=   18
   IXMIN=  -16   IYMIN=  -16   IZMIN=  -18


 serial   3D FFT for wavefunctions
 parallel 3D FFT for charge:
    minimum data exchange during FFTs selected (reduces bandwidth)


 total amount of memory used by VASP MPI-rank0    88184. kBytes
=======================================================================

   base      :      30000. kBytes
   nonlr-proj:      13675. kBytes
   fftplans  :        992. kBytes
   grid      :      21513. kBytes
   one-center:       2737. kBytes
   wavefun   :      19267. kBytes
 
     INWAV:  cpu time    0.0000: real time    0.0001
 Broyden mixing: mesh for mixing (old mesh)
   NGX = 33   NGY = 33   NGZ = 37
  (NGX  =100   NGY  =100   NGZ  =112)
  gives a total of  40293 points

 initial charge density was supplied:
 charge density of overlapping atoms calculated
 number of electron     672.0000000 magnetization      48.0000000
 keeping initial charge density in first step


--------------------------------------------------------------------------------------------------------


 Maximum index for non-local projection operator         1551
 Maximum index for augmentation-charges          288 (set IRDMAX)


--------------------------------------------------------------------------------------------------------


 First call to EWALD:  gamma=   0.179
 Maximum number of real-space cells 3x 3x 2
 Maximum number of reciprocal cells 3x 3x 3

    FEWALD:  cpu time    0.0024: real time    0.0029


--------------------------------------- Iteration      1(   1)  ---------------------------------------


    POTLOK:  cpu time    0.2040: real time    0.2059
    SETDIJ:  cpu time    3.0747: real time    3.0770
    EDDIAG:  cpu time    3.7126: real time    3.7242
  RMM-DIIS:  cpu time    6.5945: real time    6.6362
    ORTHCH:  cpu time    1.1290: real time    1.1322
       DOS:  cpu time    0.0019: real time    0.0020
    --------------------------------------------
      LOOP:  cpu time   14.7167: real time   14.7775

 eigenvalue-minimisations  :  7168
 total energy-change (2. order) : 0.1883740E+04  (-0.3594307E+05)
 number of electron     672.0000000 magnetization      48.0000000
 augmentation part      672.0000000 magnetization      48.0000000

 Free energy of the ion-electron system (eV)
  ---------------------------------------------------
  alpha Z        PSCENC =      2652.81237852
  Ewald energy   TEWEN  =    -41817.27926042
  -Hartree energ DENC   =    -25795.15273675
  -exchange      EXHF   =         0.00000000
  -V(xc)+E(xc)   XCENC  =      3606.03169202
  PAW double counting   =     55594.23204139   -59034.67079123
  entropy T*S    EENTRO =        -0.04447180
  eigenvalues    EBANDS =     -7184.38695722
  atomic energy  EATOM  =     73862.19814772
  Solvation  Ediel_sol  =         0.00000000
  ---------------------------------------------------
  free energy    TOTEN  =      1883.74004223 eV

  energy without entropy =     1883.78451403  energy(sigma->0) =     1883.76227813


--------------------------------------------------------------------------------------------------------




--------------------------------------- Iteration      1(   2)  ---------------------------------------


    EDDIAG:  cpu time    3.7273: real time    3.7369
  RMM-DIIS:  cpu time    6.6151: real time    6.6282
    ORTHCH:  cpu time    1.1478: real time    1.1519
       DOS:  cpu time    0.0014: real time    0.0014
    --------------------------------------------
      LOOP:  cpu time   11.4916: real time   11.5184

 eigenvalue-minimisations  :  7168
 total energy-change (2. order) :-0.2738073E+04  (-0.8707390E+04)
 number of electron     672.0000000 magnetization      48.0000000
 augmentation part      672.0000000 magnetization      48.0000000

 Free energy of the ion-electron system (eV)
  ---------------------------------------------------
  alpha Z        PSCENC =      2652.81237852
  Ewald energy   TEWEN  =    -41817.27926042
  -Hartree energ DENC   =    -25795.15273675
  -exchange      EXHF   =         0.00000000
  -V(xc)+E(xc)   XCENC  =      3606.03169202
  PAW double counting   =     55594.23204139   -59034.67079123
  entropy T*S    EENTRO =        -0.03933778
  eigenvalues    EBANDS =     -9922.46550222
  atomic energy  EATOM  =     73862.19814772
  Solvation  Ediel_sol  =         0.00000000
  ---------------------------------------------------
  free energy    TOTEN  =      -854.33336875 eV

  energy without entropy =     -854.29403097  energy(sigma->0) =     -854.31369986


--------------------------------------------------------------------------------------------------------




--------------------------------------- Iteration      1(   3)  ---------------------------------------


    EDDIAG:  cpu time    3.7110: real time    3.7199
  RMM-DIIS:  cpu time    6.6091: real time    6.6222
    ORTHCH:  cpu time    1.1362: real time    1.1402
       DOS:  cpu time    0.0017: real time    0.0017
    --------------------------------------------
      LOOP:  cpu time   11.4580: real time   11.4840

 eigenvalue-minimisations  :  7168
 total energy-change (2. order) : 0.3177468E+03  (-0.1563367E+04)
 number of electron     672.0000000 magnetization      48.0000000
 augmentation part      672.0000000 magnetization      48.0000000

 Free energy of the ion-electron system (eV)
  ---------------------------------------------------
  alpha Z        PSCENC =      2652.81237852
  Ewald energy   TEWEN  =    -41817.27926042
  -Hartree energ DENC   =    -25795.15273675
  -exchange      EXHF   =         0.00000000
  -V(xc)+E(xc)   XCENC  =      3606.03169202
  PAW double counting   =     55594.23204139   -59034.67079123
  entropy T*S    EENTRO =        -0.03663097
  eigenvalues    EBANDS =     -9604.72144024
  atomic energy  EATOM  =     73862.19814772
  Solvation  Ediel_sol  =         0.00000000
  ---------------------------------------------------
  free energy    TOTEN  =      -536.58659997 eV

  energy without entropy =     -536.54996899  energy(sigma->0) =     -536.56828448


--------------------------------------------------------------------------------------------------------




--------------------------------------- Iteration      1(   4)  ---------------------------------------


    EDDIAG:  cpu time    3.7104: real time    3.7199
  RMM-DIIS:  cpu time    6.5966: real time    6.6454
    ORTHCH:  cpu time    1.1444: real time    1.1486
       DOS:  cpu time    0.0012: real time    0.0012
    --------------------------------------------
      LOOP:  cpu time   11.4526: real time   11.5151

 eigenvalue-minimisations  :  7168
 total energy-change (2. order) :-0.5228192E+03  (-0.5064416E+03)
 number of electron     672.0000000 magnetization      48.0000000
 augmentation part      672.0000000 magnetization      48.0000000

 Free energy of the ion-electron system (eV)
  ---------------------------------------------------
  alpha Z        PSCENC =      2652.81237852
  Ewald energy   TEWEN  =    -41817.27926042
  -Hartree energ DENC   =    -25795.15273675
  -exchange      EXHF   =         0.00000000
  -V(xc)+E(xc)   XCENC  =      3606.03169202
  PAW double counting   =     55594.23204139   -59034.67079123
  entropy T*S    EENTRO =        -0.00026114
  eigenvalues    EBANDS =    -10127.57703604
  atomic energy  EATOM  =     73862.19814772
  Solvation  Ediel_sol  =         0.00000000
  ---------------------------------------------------
  free energy    TOTEN  =     -1059.40582593 eV

  energy without entropy =    -1059.40556479  energy(sigma->0) =    -1059.40569536


--------------------------------------------------------------------------------------------------------




--------------------------------------- Iteration      1(   5)  ---------------------------------------


    EDDIAG:  cpu time    3.7165: real time    3.7227
  RMM-DIIS:  cpu time    6.6238: real time    6.6299
    ORTHCH:  cpu time    1.1388: real time    1.1409
       DOS:  cpu time    0.0010: real time    0.0010
    --------------------------------------------
      LOOP:  cpu time   11.4801: real time   11.4945

 eigenvalue-minimisations  :  7168
 total energy-change (2. order) :-0.1462752E+03  (-0.2128856E+03)
 number of electron     672.0000000 magnetization      48.0000000
 augmentation part      672.0000000 magnetization      48.0000000

 Free energy of the ion-electron system (eV)
  ---------------------------------------------------
  alpha Z        PSCENC =      2652.81237852
  Ewald energy   TEWEN  =    -41817.27926042
  -Hartree energ DENC   =    -25795.15273675
  -exchange      EXHF   =         0.00000000
  -V(xc)+E(xc)   XCENC  =      3606.03169202
  PAW double counting   =     55594.23204139   -59034.67079123
  entropy T*S    EENTRO =        -0.00000000
  eigenvalues    EBANDS =    -10273.85247252
  atomic energy  EATOM  =     73862.19814772
  Solvation  Ediel_sol  =         0.00000000
  ---------------------------------------------------
  free energy    TOTEN  =     -1205.68100128 eV

  energy without entropy =    -1205.68100128  energy(sigma->0) =    -1205.68100128


--------------------------------------------------------------------------------------------------------




--------------------------------------- Iteration      1(   6)  ---------------------------------------


    EDDIAG:  cpu time    3.7178: real time    3.7209
  RMM-DIIS:  cpu time    6.6287: real time    6.6344
    ORTHCH:  cpu time    1.1389: real time    1.1416
       DOS:  cpu time    0.0012: real time    0.0012
    --------------------------------------------
      LOOP:  cpu time   11.4867: real time   11.4981

 eigenvalue-minimisations  :  7168
 total energy-change (2. order) :-0.2137899E+02  (-0.1153963E+03)
 number of electron     672.0000000 magnetization      48.0000000
 augmentation part      672.0000000 magnetization      48.0000000

 Free energy of the ion-electron system (eV)
  ---------------------------------------------------
  alpha Z        PSCENC =      2652.81237852
  Ewald energy   TEWEN  =    -41817.27926042
  -Hartree energ DENC   =    -25795.15273675
  -exchange      EXHF   =         0.00000000
  -V(xc)+E(xc)   XCENC  =      3606.03169202
  PAW double counting   =     55594.23204139   -59034.67079123
  entropy T*S    EENTRO =        -0.00000000
  eigenvalues    EBANDS =    -10295.23146582
  atomic energy  EATOM  =     73862.19814772
  Solvation  Ediel_sol  =         0.00000000
  ---------------------------------------------------
  free energy    TOTEN  =     -1227.05999458 eV

  energy without entropy =    -1227.05999458  energy(sigma->0) =    -1227.05999458


--------------------------------------------------------------------------------------------------------




--------------------------------------- Iteration      1(   7)  ---------------------------------------


    EDDIAG:  cpu time    3.7731: real time    3.8038
  RMM-DIIS:  cpu time    6.6294: real time    6.6330
    ORTHCH:  cpu time    1.1423: real time    1.1452
       DOS:  cpu time    0.0013: real time    0.0013
    --------------------------------------------
      LOOP:  cpu time   11.5461: real time   11.5833

 eigenvalue-minimisations  :  7168
 total energy-change (2. order) :-0.6609617E+01  (-0.7653002E+02)
 number of electron     672.0000000 magnetization      48.0000000
 augmentation part      672.0000000 magnetization      48.0000000

 Free energy of the ion-electron system (eV)
  ---------------------------------------------------
  alpha Z        PSCENC =      2652.81237852
  Ewald energy   TEWEN  =    -41817.27926042
  -Hartree energ DENC   =    -25795.15273675
  -exchange      EXHF   =         0.00000000
  -V(xc)+E(xc)   XCENC  =      3606.03169202
  PAW double counting   =     55594.23204139   -59034.67079123
  entropy T*S    EENTRO =        -0.00000000
  eigenvalues    EBANDS =    -10301.84108262
  atomic energy  EATOM  =     73862.19814772
  Solvation  Ediel_sol  =         0.00000000
  ---------------------------------------------------
  free energy    TOTEN  =     -1233.66961137 eV

  energy without entropy =    -1233.66961137  energy(sigma->0) =    -1233.66961137


--------------------------------------------------------------------------------------------------------




--------------------------------------- Iteration      1(   8)  ---------------------------------------


    EDDIAG:  cpu time    3.7411: real time    3.7454
  RMM-DIIS:  cpu time    6.6231: real time    6.6273
    ORTHCH:  cpu time    1.1363: real time    1.1400
       DOS:  cpu time    0.0010: real time    0.0010
    --------------------------------------------
      LOOP:  cpu time   11.5014: real time   11.5137

 eigenvalue-minimisations  :  7168
 total energy-change (2. order) : 0.4674135E+01  (-0.5331573E+02)
 number of electron     672.0000000 magnetization      48.0000000
 augmentation part      672.0000000 magnetization      48.0000000

 Free energy of the ion-electron system (eV)
  ---------------------------------------------------
  alpha Z        PSCENC =      2652.81237852
  Ewald energy   TEWEN  =    -41817.27926042
  -Hartree energ DENC   =    -25795.15273675
  -exchange      EXHF   =         0.00000000
  -V(xc)+E(xc)   XCENC  =      3606.03169202
  PAW double counting   =     55594.23204139   -59034.67079123
  entropy T*S    EENTRO =        -0.00000000
  eigenvalues    EBANDS =    -10297.16694782
  atomic energy  EATOM  =     73862.19814772
  Solvation  Ediel_sol  =         0.00000000
  ---------------------------------------------------
  free energy    TOTEN  =     -1228.99547657 eV

  energy without entropy =    -1228.99547657  energy(sigma->0) =    -1228.99547657


--------------------------------------------------------------------------------------------------------




--------------------------------------- Iteration      1(   9)  ---------------------------------------


    EDDIAG:  cpu time    3.7258: real time    3.7303
  RMM-DIIS:  cpu time   13.9111: real time   13.9404
    ORTHCH:  cpu time    1.1448: real time    1.1477
       DOS:  cpu time    0.0010: real time    0.0010
    --------------------------------------------
      LOOP:  cpu time   18.7828: real time   18.8194

 eigenvalue-minimisations  : 20240
 total energy-change (2. order) : 0.1842359E+02  (-0.2399064E+02)
 number of electron     672.0000000 magnetization      48.0000000
 augmentation part      672.0000000 magnetization      48.0000000

 Free energy of the ion-electron system (eV)
  ---------------------------------------------------
  alpha Z        PSCENC =      2652.81237852
  Ewald energy   TEWEN  =    -41817.27926042
  -Hartree energ DENC   =    -25795.15273675
  -exchange      EXHF   =         0.00000000
  -V(xc)+E(xc)   XCENC  =      3606.03169202
  PAW double counting   =     55594.23204139   -59034.67079123
  entropy T*S    EENTRO =        -0.00000000
  eigenvalues    EBANDS =    -10278.74336063
  atomic energy  EATOM  =     73862.19814772
  Solvation  Ediel_sol  =         0.00000000
  ---------------------------------------------------
  free energy    TOTEN  =     -1210.57188938 eV

  energy without entropy =    -1210.57188938  energy(sigma->0) =    -1210.57188938


--------------------------------------------------------------------------------------------------------




--------------------------------------- Iteration      1(  10)  ---------------------------------------


    EDDIAG:  cpu time    3.7538: real time    3.7574
  RMM-DIIS:  cpu time   15.6090: real time   15.6268
    ORTHCH:  cpu time    1.1514: real time    1.1564
       DOS:  cpu time    0.0012: real time    0.0012
    --------------------------------------------
      LOOP:  cpu time   20.5154: real time   20.5418

 eigenvalue-minimisations  : 20166
 total energy-change (2. order) :-0.3169696E+01  (-0.1051216E+01)
 number of electron     672.0000000 magnetization      48.0000000
 augmentation part      672.0000000 magnetization      48.0000000

 Free energy of the ion-electron system (eV)
  ---------------------------------------------------
  alpha Z        PSCENC =      2652.81237852
  Ewald energy   TEWEN  =    -41817.27926042
  -Hartree energ DENC   =    -25795.15273675
  -exchange      EXHF   =         0.00000000
  -V(xc)+E(xc)   XCENC  =      3606.03169202
  PAW double counting   =     55594.23204139   -59034.67079123
  entropy T*S    EENTRO =        -0.00000005
  eigenvalues    EBANDS =    -10281.91305612
  atomic energy  EATOM  =     73862.19814772
  Solvation  Ediel_sol  =         0.00000000
  ---------------------------------------------------
  free energy    TOTEN  =     -1213.74158492 eV

  energy without entropy =    -1213.74158488  energy(sigma->0) =    -1213.74158490


--------------------------------------------------------------------------------------------------------




--------------------------------------- Iteration      1(  11)  ---------------------------------------


    EDDIAG:  cpu time    3.7654: real time    3.7700
  RMM-DIIS:  cpu time   15.1375: real time   15.1448
    ORTHCH:  cpu time    1.1382: real time    1.1403
       DOS:  cpu time    0.0013: real time    0.0013
    --------------------------------------------
      LOOP:  cpu time   20.0424: real time   20.0564

 eigenvalue-minimisations  : 21722
 total energy-change (2. order) : 0.1090788E+00  (-0.1003523E+00)
 number of electron     672.0000000 magnetization      48.0000000
 augmentation part      672.0000000 magnetization      48.0000000

 Free energy of the ion-electron system (eV)
  ---------------------------------------------------
  alpha Z        PSCENC =      2652.81237852
  Ewald energy   TEWEN  =    -41817.27926042
  -Hartree energ DENC   =    -25795.15273675
  -exchange      EXHF   =         0.00000000
  -V(xc)+E(xc)   XCENC  =      3606.03169202
  PAW double counting   =     55594.23204139   -59034.67079123
  entropy T*S    EENTRO =        -0.00000004
  eigenvalues    EBANDS =    -10281.80397734
  atomic energy  EATOM  =     73862.19814772
  Solvation  Ediel_sol  =         0.00000000
  ---------------------------------------------------
  free energy    TOTEN  =     -1213.63250614 eV

  energy without entropy =    -1213.63250610  energy(sigma->0) =    -1213.63250612


--------------------------------------------------------------------------------------------------------




--------------------------------------- Iteration      1(  12)  ---------------------------------------


    EDDIAG:  cpu time    3.7181: real time    3.7225
  RMM-DIIS:  cpu time   16.0497: real time   16.0843
    ORTHCH:  cpu time    1.1658: real time    1.1693
       DOS:  cpu time    0.0014: real time    0.0014
    CHARGE:  cpu time    1.3565: real time    1.3570
    MIXING:  cpu time    0.0011: real time    0.0015
    --------------------------------------------
      LOOP:  cpu time   22.2926: real time   22.3359

 eigenvalue-minimisations  : 22823
 total energy-change (2. order) : 0.7059342E-02  (-0.7306563E-02)
 number of electron     672.0000073 magnetization      47.9999975
 augmentation part      239.0359708 magnetization      29.0330042

 Broyden mixing:
  rms(total) = 0.12553E+02    rms(broyden)= 0.12544E+02
  rms(prec ) = 0.14408E+02
  weight for this iteration     100.00

 Free energy of the ion-electron system (eV)
  ---------------------------------------------------
  alpha Z        PSCENC =      2652.81237852
  Ewald energy   TEWEN  =    -41817.27926042
  -Hartree energ DENC   =    -25795.15273675
  -exchange      EXHF   =         0.00000000
  -V(xc)+E(xc)   XCENC  =      3606.03169202
  PAW double counting   =     55594.23204139   -59034.67079123
  entropy T*S    EENTRO =        -0.00000004
  eigenvalues    EBANDS =    -10281.79691801
  atomic energy  EATOM  =     73862.19814772
  Solvation  Ediel_sol  =         0.00000000
  ---------------------------------------------------
  free energy    TOTEN  =     -1213.62544680 eV

  energy without entropy =    -1213.62544676  energy(sigma->0) =    -1213.62544678


--------------------------------------------------------------------------------------------------------




--------------------------------------- Iteration      1(  13)  ---------------------------------------


    POTLOK:  cpu time    0.1971: real time    0.1982
    SETDIJ:  cpu time    3.2506: real time    3.2519
    EDDIAG:  cpu time    3.7344: real time    3.7364
  RMM-DIIS:  cpu time   13.0182: real time   13.0504
    ORTHCH:  cpu time    1.1483: real time    1.1513
       DOS:  cpu time    0.0012: real time    0.0012
    CHARGE:  cpu time    1.3609: real time    1.3613
    MIXING:  cpu time    0.0008: real time    0.0010
    --------------------------------------------
      LOOP:  cpu time   22.7115: real time   22.7517

 eigenvalue-minimisations  : 17315
 total energy-change (2. order) : 0.2241931E+03  (-0.1388155E+03)
 number of electron     672.0000050 magnetization      47.9999973
 augmentation part      268.9919613 magnetization      26.5625365

 Broyden mixing:
  rms(total) = 0.13954E+02    rms(broyden)= 0.13951E+02
  rms(prec ) = 0.15684E+02
  weight for this iteration     100.00

 eigenvalues of (default mixing * dielectric matrix)
  average eigenvalue GAMMA=   0.3169
  0.3169

 Free energy of the ion-electron system (eV)
  ---------------------------------------------------
  alpha Z        PSCENC =      2652.81237852
  Ewald energy   TEWEN  =    -41817.27926042
  -Hartree energ DENC   =    -25121.10555790
  -exchange      EXHF   =         0.00000000
  -V(xc)+E(xc)   XCENC  =      3696.22036576
  PAW double counting   =     59887.21236347   -63312.25685848
  entropy T*S    EENTRO =        -0.07661876
  eigenvalues    EBANDS =    -10837.15728087
  atomic energy  EATOM  =     73862.19814772
  Solvation  Ediel_sol  =         0.00000000
  ---------------------------------------------------
  free energy    TOTEN  =      -989.43232096 eV

  energy without entropy =     -989.35570219  energy(sigma->0) =     -989.39401157


--------------------------------------------------------------------------------------------------------




--------------------------------------- Iteration      1(  14)  ---------------------------------------


    POTLOK:  cpu time    0.2068: real time    0.2069
    SETDIJ:  cpu time    3.2417: real time    3.2422
    EDDIAG:  cpu time    3.7707: real time    3.7766
  RMM-DIIS:  cpu time   13.5479: real time   13.5648
    ORTHCH:  cpu time    1.1746: real time    1.1769
       DOS:  cpu time    0.0013: real time    0.0013
    CHARGE:  cpu time    1.3409: real time    1.3517
    MIXING:  cpu time    0.0007: real time    0.0007
    --------------------------------------------
      LOOP:  cpu time   23.2847: real time   23.3211

 eigenvalue-minimisations  : 17748
 total energy-change (2. order) : 0.7531592E+02  (-0.1820642E+02)
 number of electron     672.0000064 magnetization      47.9999955
 augmentation part      246.6436307 magnetization      32.2175070

 Broyden mixing:
  rms(total) = 0.52394E+01    rms(broyden)= 0.52352E+01
  rms(prec ) = 0.56501E+01
  weight for this iteration     100.00

 eigenvalues of (default mixing * dielectric matrix)
  average eigenvalue GAMMA=   0.7296
  1.1000  0.3593

 Free energy of the ion-electron system (eV)
  ---------------------------------------------------
  alpha Z        PSCENC =      2652.81237852
  Ewald energy   TEWEN  =    -41817.27926042
  -Hartree energ DENC   =    -25731.39477603
  -exchange      EXHF   =         0.00000000
  -V(xc)+E(xc)   XCENC  =      3673.94821896
  PAW double counting   =     63304.13576163   -66786.18608463
  entropy T*S    EENTRO =        -0.00000000
  eigenvalues    EBANDS =    -10072.35078203
  atomic energy  EATOM  =     73862.19814772
  Solvation  Ediel_sol  =         0.00000000
  ---------------------------------------------------
  free energy    TOTEN  =      -914.11639628 eV

  energy without entropy =     -914.11639628  energy(sigma->0) =     -914.11639628


--------------------------------------------------------------------------------------------------------




--------------------------------------- Iteration      1(  15)  ---------------------------------------


    POTLOK:  cpu time    0.2023: real time    0.2034
    SETDIJ:  cpu time    3.2581: real time    3.2742
    EDDIAG:  cpu time    3.7316: real time    3.7349
  RMM-DIIS:  cpu time   13.6021: real time   13.6115
    ORTHCH:  cpu time    1.1487: real time    1.1509
       DOS:  cpu time    0.0011: real time    0.0011
    CHARGE:  cpu time    1.3454: real time    1.3471
    MIXING:  cpu time    0.0006: real time    0.0006
    --------------------------------------------
      LOOP:  cpu time   23.2899: real time   23.3237

 eigenvalue-minimisations  : 18381
 total energy-change (2. order) : 0.1326987E+02  (-0.2037672E+01)
 number of electron     672.0000067 magnetization      47.9999942
 augmentation part      249.6898621 magnetization      33.8239702

 Broyden mixing:
  rms(total) = 0.21181E+01    rms(broyden)= 0.21178E+01
  rms(prec ) = 0.21988E+01
  weight for this iteration     100.00

 eigenvalues of (default mixing * dielectric matrix)
  average eigenvalue GAMMA=   0.9631
  0.3841  0.7648  1.7405

 Free energy of the ion-electron system (eV)
  ---------------------------------------------------
  alpha Z        PSCENC =      2652.81237852
  Ewald energy   TEWEN  =    -41817.27926042
  -Hartree energ DENC   =    -25649.46667904
  -exchange      EXHF   =         0.00000000
  -V(xc)+E(xc)   XCENC  =      3706.28698824
  PAW double counting   =     67405.13176706   -70927.82510608
  entropy T*S    EENTRO =        -0.00000000
  eigenvalues    EBANDS =    -10132.70476103
  atomic energy  EATOM  =     73862.19814772
  Solvation  Ediel_sol  =         0.00000000
  ---------------------------------------------------
  free energy    TOTEN  =      -900.84652502 eV

  energy without entropy =     -900.84652502  energy(sigma->0) =     -900.84652502


--------------------------------------------------------------------------------------------------------




--------------------------------------- Iteration      1(  16)  ---------------------------------------


    POTLOK:  cpu time    0.2041: real time    0.2041
    SETDIJ:  cpu time    3.2802: real time    3.2825
    EDDIAG:  cpu time    3.7477: real time    3.7613
  RMM-DIIS:  cpu time   13.0948: real time   13.1042
    ORTHCH:  cpu time    1.1544: real time    1.1568
       DOS:  cpu time    0.0010: real time    0.0010
    CHARGE:  cpu time    1.3490: real time    1.3506
    MIXING:  cpu time    0.0011: real time    0.0011
    --------------------------------------------
      LOOP:  cpu time   22.8322: real time   22.8616

 eigenvalue-minimisations  : 17394
 total energy-change (2. order) :-0.1552755E+01  (-0.7166080E+00)
 number of electron     672.0000066 magnetization      47.9999938
 augmentation part      251.2285790 magnetization      33.9063295

 Broyden mixing:
  rms(total) = 0.13833E+01    rms(broyden)= 0.13827E+01
  rms(prec ) = 0.14797E+01
  weight for this iteration     100.00

 eigenvalues of (default mixing * dielectric matrix)
  average eigenvalue GAMMA=   0.9762
  2.0702  0.9066  0.3911  0.5369

 Free energy of the ion-electron system (eV)
  ---------------------------------------------------
  alpha Z        PSCENC =      2652.81237852
  Ewald energy   TEWEN  =    -41817.27926042
  -Hartree energ DENC   =    -25597.65481327
  -exchange      EXHF   =         0.00000000
  -V(xc)+E(xc)   XCENC  =      3707.60351246
  PAW double counting   =     70403.91092341   -73957.04004417
  entropy T*S    EENTRO =        -0.00000000
  eigenvalues    EBANDS =    -10156.95012419
  atomic energy  EATOM  =     73862.19814772
  Solvation  Ediel_sol  =         0.00000000
  ---------------------------------------------------
  free energy    TOTEN  =      -902.39927992 eV

  energy without entropy =     -902.39927992  energy(sigma->0) =     -902.39927992


--------------------------------------------------------------------------------------------------------




--------------------------------------- Iteration      1(  17)  ---------------------------------------


    POTLOK:  cpu time    0.2087: real time    0.2102
    SETDIJ:  cpu time    3.2860: real time    3.2865
    EDDIAG:  cpu time    3.7136: real time    3.7168
  RMM-DIIS:  cpu time   13.7546: real time   13.8005
    ORTHCH:  cpu time    1.1474: real time    1.1496
       DOS:  cpu time    0.0010: real time    0.0010
    CHARGE:  cpu time    1.3486: real time    1.3490
    MIXING:  cpu time    0.0016: real time    0.0016
    --------------------------------------------
      LOOP:  cpu time   23.4616: real time   23.5151

 eigenvalue-minimisations  : 18598
 total energy-change (2. order) : 0.2235760E+00  (-0.6136022E-01)
 number of electron     672.0000067 magnetization      47.9999935
 augmentation part      251.0742014 magnetization      33.9007513

 Broyden mixing:
  rms(total) = 0.74667E+00    rms(broyden)= 0.74659E+00
  rms(prec ) = 0.84003E+00
  weight for this iteration     100.00

 eigenvalues of (default mixing * dielectric matrix)
  average eigenvalue GAMMA=   1.0062
  2.2375  1.1355  0.3823  0.7061  0.5693

 Free energy of the ion-electron system (eV)
  ---------------------------------------------------
  alpha Z        PSCENC =      2652.81237852
  Ewald energy   TEWEN  =    -41817.27926042
  -Hartree energ DENC   =    -25591.43669751
  -exchange      EXHF   =         0.00000000
  -V(xc)+E(xc)   XCENC  =      3704.60401556
  PAW double counting   =     71197.46182297   -74758.26921195
  entropy T*S    EENTRO =        -0.00000000
  eigenvalues    EBANDS =    -10152.26689878
  atomic energy  EATOM  =     73862.19814772
  Solvation  Ediel_sol  =         0.00000000
  ---------------------------------------------------
  free energy    TOTEN  =      -902.17570387 eV

  energy without entropy =     -902.17570387  energy(sigma->0) =     -902.17570387


--------------------------------------------------------------------------------------------------------




--------------------------------------- Iteration      1(  18)  ---------------------------------------


    POTLOK:  cpu time    0.1975: real time    0.1977
    SETDIJ:  cpu time    3.2801: real time    3.2826
    EDDIAG:  cpu time    3.7271: real time    3.7300
  RMM-DIIS:  cpu time   13.2444: real time   13.2526
    ORTHCH:  cpu time    1.1675: real time    1.1806
       DOS:  cpu time    0.0010: real time    0.0010
    CHARGE:  cpu time    1.3499: real time    1.3519
    MIXING:  cpu time    0.0009: real time    0.0009
    --------------------------------------------
      LOOP:  cpu time   22.9685: real time   22.9973

 eigenvalue-minimisations  : 17482
 total energy-change (2. order) : 0.3786650E+00  (-0.7082578E-01)
 number of electron     672.0000066 magnetization      47.9999935
 augmentation part      250.5880135 magnetization      33.8643186

 Broyden mixing:
  rms(total) = 0.27081E+00    rms(broyden)= 0.27052E+00
  rms(prec ) = 0.28420E+00
  weight for this iteration     100.00

 eigenvalues of (default mixing * dielectric matrix)
  average eigenvalue GAMMA=   1.0212
  2.4707  1.3501  0.8557  0.3837  0.5867  0.4803

 Free energy of the ion-electron system (eV)
  ---------------------------------------------------
  alpha Z        PSCENC =      2652.81237852
  Ewald energy   TEWEN  =    -41817.27926042
[...]
   4      -0.748    -0.796     1.544    -0.044    -0.486    -0.246
   5      -0.736    -0.858     1.594    -0.014    -0.010    -0.427
   6      -0.851    -0.853     1.704     0.044    -0.318     0.160
   7      -0.849    -0.755     1.604     0.097     0.482    -0.186
   8      -0.963    -0.930     1.893    -0.029    -0.077     0.038
   9      -0.789    -0.856     1.645    -0.103     0.407     0.136
  10      -0.875    -0.544     1.419    -0.112     0.448     0.218
  11      -0.569    -0.871     1.440    -0.008     0.032    -0.494
  12      -0.667    -0.859     1.525     0.000    -0.003     0.415
  13      -1.029    -0.926     1.955     0.064    -0.018     0.055
  14      -0.736    -0.850     1.586     0.052     0.058     0.544
  15      -0.639    -0.685     1.324     0.034    -0.075    -0.112
  16      -0.614    -0.707     1.321     0.098    -0.195     0.047
  17       1.316     1.590    -2.905     0.025    -0.042     0.097
  18       1.446     1.549    -2.995     0.134     0.000    -0.001
  19       1.500     1.344    -2.844     0.000     0.048    -0.024
  20       1.402     1.503    -2.905     0.179     0.067    -0.012
  21       1.420     1.402    -2.822     0.126    -0.094    -0.013
  22       1.675     1.346    -3.021     0.021     0.097    -0.115
  23       1.341     1.543    -2.884     0.042     0.077    -0.085
  24       1.326     1.612    -2.938    -0.131     0.003    -0.064
  25      -0.910     0.948    -0.038     0.450     0.720    -1.419
  26       0.249     0.139    -0.387    -0.410     0.492     0.467
  27       1.393    -3.137     1.744    -0.868    -0.939    -0.425
  28       0.352    -0.720     0.368     1.850    -0.612     2.908
  29      -0.807    -0.545     1.352    -0.435    -0.500    -0.351
  30      -1.298     0.357     0.941    -1.267    -0.354     0.306
  31      -0.688    -1.354     2.042     0.107     0.260    -0.083
  32       0.038     0.224    -0.262     0.645     1.476    -0.203
  33       1.592     0.107    -1.699    -0.144     0.684     0.786
  34       0.912    -0.529    -0.383     0.344    -0.131    -0.127
  35       0.391    -1.653     1.261    -1.085    -0.847    -1.011
  36      -1.178    -0.964     2.142     0.997    -0.061    -0.437
  37      -0.231     0.470    -0.240     0.613    -1.371    -1.142
  38       1.387    -0.127    -1.260     0.583     0.079    -0.909
  39      -0.368    -1.144     1.512     0.467     0.111    -0.633
  40      -1.334     0.486     0.848     0.588     2.331    -0.738
  41      -4.031     3.928     0.103    -5.402     3.764    -4.425
  42      -3.826     2.699     1.128     4.523     3.201     3.781
  43       5.236    -5.924     0.688     0.062    -3.812     0.881
  44      -0.445     0.822    -0.377     7.865    -2.287    -3.300
  45      -2.972     0.872     2.100    -2.504    -2.734     3.895
  46       7.301    -6.256    -1.045    -0.196     3.512     2.832
  47      -3.212     1.704     1.508    -6.023     2.225    -5.592
  48       6.048    -4.937    -1.111    -1.353    -3.509     0.751
  49      -2.658     1.341     1.317     4.420     0.985     5.042
  50       4.748    -7.709     2.961    -1.448     4.110     1.007
  51      -3.459     2.261     1.198    -3.796    -0.113     5.287
  52      -2.866     2.360     0.506     4.294    -4.331    -2.502
  53      -4.518     3.950     0.568    -6.088     2.831    -3.993
  54      -3.883     4.666    -0.783     5.142     1.865     3.042
  55       3.022    -4.717     1.696     0.369    -5.118     0.304
  56      -3.780     3.926    -0.146     5.680    -3.585    -4.373
  57      -2.516     1.207     1.309    -3.873     0.004     5.921
  58       4.803    -4.563    -0.240    -0.272     5.859    -0.790
  59      -2.927     0.732     2.194    -4.973     3.383    -6.712
  60       5.864    -6.906     1.042    -1.531    -3.729    -1.523
  61      -2.927     3.580    -0.653     5.373     1.115     4.439
  62       3.347    -6.295     2.948    -0.271     6.454     0.460
  63      -3.140     3.345    -0.205    -6.231    -0.094     2.920
  64      -3.017     2.741     0.276     4.240    -1.151    -3.555
  65      -3.369     1.516     1.853    -4.695     1.862    -4.682
  66      -3.644     1.625     2.019     4.402     2.079     2.631
  67       5.813    -7.618     1.805    -0.254    -5.291    -0.431
  68      -0.244    -0.914     1.158     5.830    -2.335    -3.964
  69      -4.251     5.260    -1.009    -2.416    -3.696     3.644
  70       4.240    -5.678     1.438    -0.619     4.240    -2.239
  71      -2.326     3.264    -0.938    -4.538     1.379    -2.203
  72       7.110    -5.563    -1.547     0.065    -4.070    -0.460
  73      -1.643     1.799    -0.156     4.727     1.680     4.643
  74       4.035    -6.019     1.984    -2.992     5.993    -0.193
  75      -5.359     4.344     1.015    -2.278    -3.873     2.111
  76      -1.043    -1.633     2.676     4.451    -5.559    -3.852
  77      -2.353     2.897    -0.544    -5.123     0.042    -3.580
  78      -3.474     2.355     1.119     5.959     3.447     5.692
  79       6.712    -7.185     0.473     0.357    -5.044    -2.610
  80      -2.196     1.744     0.452     4.211     0.137    -4.402
  81      -4.811     2.789     2.022    -2.305    -1.650     3.726
  82       6.734    -6.784     0.050     0.383     5.146    -2.506
  83      -2.987     3.471    -0.484    -3.935     2.423    -2.017
  84       4.270    -5.247     0.977     2.219    -4.583    -0.592
  85      -3.648     3.901    -0.254     5.361     2.640     3.196
  86       3.542    -5.168     1.625    -2.033     4.248    -0.141
  87      -2.278     2.168     0.110    -6.684    -1.507     3.173
  88      -2.967    -0.206     3.173     4.677    -1.661    -5.804
 ---------------------------------------------------------------------


 Total hyperfine coupling parameters after diagonalization (MHz)
 (convention: |A_zz| > |A_xx| > |A_yy|)
 ----------------------------------------------------------------------
  ion      A_xx      A_yy      A_zz     asymmetry (A_yy - A_xx)/ A_zz 
 ----------------------------------------------------------------------
   1       2.037     1.693     4.264      -0.081
   2       1.380     0.986     3.468      -0.114
   3       1.691     1.361     3.712      -0.089
   4       1.901     1.716     4.306      -0.043
   5       2.146     1.950     4.548      -0.043
   6       1.758     1.629     4.322      -0.030
   7       2.182     1.870     4.585      -0.068
   8       0.142     0.076     2.953      -0.022
   9       2.065     1.818     4.517      -0.055
  10       2.968     2.470     5.002      -0.100
  11       2.483     2.081     4.595      -0.088
  12       2.612     2.350     4.874      -0.054
  13       0.146    -0.019     2.998      -0.055
  14       2.341     2.099     4.776      -0.051
  15       1.100     1.022     3.060      -0.025
  16       1.791     1.573     3.694      -0.059
  17      14.398    10.176    14.678      -0.288
  18      15.034    10.685    15.321      -0.284
  19      13.142     8.953    13.298      -0.315
  20      13.664     9.491    14.036      -0.297
  21      13.923     9.813    14.175      -0.290
  22      14.910    10.535    15.240      -0.287
  23      13.933     9.711    14.151      -0.298
  24      14.602    10.388    14.991      -0.281
  25     100.341    98.642   102.428      -0.017
  26      96.279    94.924    96.526      -0.014
  27      99.223    95.022   100.923      -0.042
  28      96.253    91.434    98.372      -0.049
  29      97.312    96.261    99.028      -0.011
  30      96.916    94.366    97.796      -0.026
  31      96.732    96.050    99.493      -0.007
  32      93.536    91.472    94.716      -0.022
  33      95.930    93.415    97.265      -0.026
  34      93.545    93.265    94.916      -0.003
  35     100.686    97.411   101.773      -0.032
  36      95.804    93.842    98.145      -0.020
  37      94.436    93.152    96.946      -0.013
  38      93.414    91.409    94.820      -0.021
  39      94.033    92.704    95.851      -0.014
  40     100.404    96.703   102.131      -0.036
  41       6.045     1.706    18.782      -0.231
  42       5.540     1.091    15.763      -0.282
  43       6.523     1.789    15.273      -0.310
  44       8.725     2.881    20.289      -0.288
  45       2.298     0.368    11.578      -0.167
  46       8.713     1.973    18.282      -0.369
  47       6.645     1.536    18.963      -0.269
  48       4.207     1.602    14.407      -0.181
  49       5.800     1.250    15.279      -0.298
  50       9.269     1.156    17.327      -0.468
  51       5.213     0.414    14.544      -0.330
  52       6.217     0.819    14.901      -0.362
  53       8.127     2.311    19.785      -0.294
  54       5.303     1.087    15.860      -0.266
  55       3.524     1.389    13.736      -0.155
  56       6.737     2.615    19.661      -0.210
  57       5.661     0.143    14.800      -0.373
  58       4.594     3.459    17.067      -0.067
  59       4.023     1.369    18.797      -0.141
  60       8.156     0.917    16.417      -0.441
  61       5.817     1.916    16.933      -0.230
  62       3.613     0.452    16.441      -0.192
  63       7.958     1.425    16.596      -0.394
  64       4.420     0.709    13.079      -0.284
  65       4.499     0.075    14.666      -0.302
  66       5.376    -0.422    12.308      -0.471
  67       6.123     0.267    17.396      -0.337
  68       6.685     1.434    16.231      -0.323
  69       3.101    -2.120    12.657      -0.413
  70       4.748    -0.422    13.498      -0.383
  71       6.700     3.652    15.201      -0.201
  72       3.355     0.816    15.176      -0.167
  73       2.038    -0.956    12.473      -0.240
  74       6.787     1.950    18.576      -0.260
  75       7.237    -0.753    13.191      -0.606
  76       4.674     2.196    17.872      -0.139
  77       5.988     0.918    14.373      -0.353
  78       5.193     1.501    19.393      -0.190
  79       5.963    -0.557    17.215      -0.379
  80       7.174     1.807    14.584      -0.368
  81       6.144     1.946    14.294      -0.294
  82       7.298     1.024    18.523      -0.339
  83       4.329     0.284    12.094      -0.334
  84       4.726     1.025    14.650      -0.253
  85       5.384     0.785    15.922      -0.289
  86       4.449     0.160    13.058      -0.328
  87       9.303     3.408    18.998      -0.310
  88       4.866    -0.312    15.814      -0.327
 ---------------------------------------------------------------------



--------------------------------------------------------------------------------------------------------


 stress matrix after NEB project (eV)
    -44.90025      0.61719     -2.67736
      0.61963    -44.29912      6.12370
     -2.69268      6.11409    -62.45135
  FORCES: max atom, RMS     3.510096    1.156678
  FORCE total and by dimension   10.850597    2.260504
  Stress total and by dimension   89.267472   62.451351
     LOOP+:  cpu time  681.7856: real time  682.9103
    4ORBIT:  cpu time    0.0000: real time    0.0000
 


 total charge     
 
# of ion       s       p       d       tot
------------------------------------------
    1        0.046   5.986   0.000   6.032
    2        0.054   5.996   0.000   6.050
    3        0.057   6.001   0.000   6.058
    4        0.054   5.997   0.000   6.051
    5        0.047   5.987   0.000   6.034
    6        0.049   5.991   0.000   6.039
    7        0.054   5.997   0.000   6.051
    8        0.053   5.999   0.000   6.052
    9        0.049   5.990   0.000   6.038
   10        0.051   5.993   0.000   6.044
   11        0.047   5.988   0.000   6.035
   12        0.053   5.994   0.000   6.048
   13        0.052   5.997   0.000   6.049
   14        0.055   5.997   0.000   6.052
   15        0.045   5.988   0.000   6.033
   16        0.048   5.991   0.000   6.039
   17        0.144   6.119   0.077   6.341
   18        0.155   6.138   0.091   6.384
   19        0.148   6.127   0.083   6.358
   20        0.149   6.129   0.085   6.363
   21        0.145   6.122   0.079   6.345
   22        0.156   6.140   0.093   6.389
   23        0.145   6.122   0.079   6.346
   24        0.149   6.129   0.085   6.364
   25        0.367   6.439   4.817  11.623
   26        0.381   6.464   4.845  11.690
   27        0.381   6.460   4.851  11.691
   28        0.374   6.446   4.830  11.650
   29        0.384   6.470   4.846  11.700
   30        0.382   6.470   4.846  11.698
   31        0.374   6.448   4.830  11.653
   32        0.389   6.487   4.866  11.742
   33        0.367   6.439   4.814  11.620
   34        0.381   6.469   4.842  11.692
   35        0.376   6.454   4.835  11.666
   36        0.381   6.466   4.842  11.689
   37        0.367   6.440   4.812  11.619
   38        0.366   6.432   4.809  11.608
   39        0.372   6.442   4.824  11.637
   40        0.371   6.446   4.820  11.637
   41        1.600   3.509   0.000   5.109
   42        1.598   3.503   0.000   5.101
   43        1.597   3.506   0.000   5.103
   44        1.605   3.512   0.000   5.117
   45        1.599   3.523   0.000   5.122
   46        1.601   3.499   0.000   5.100
   47        1.603   3.506   0.000   5.109
   48        1.598   3.502   0.000   5.100
   49        1.599   3.523   0.000   5.122
   50        1.602   3.568   0.000   5.170
   51        1.599   3.507   0.000   5.106
   52        1.598   3.526   0.000   5.124
   53        1.603   3.518   0.000   5.120
   54        1.599   3.521   0.000   5.120
   55        1.596   3.521   0.000   5.118
   56        1.605   3.502   0.000   5.107
   57        1.600   3.509   0.000   5.109
   58        1.599   3.481   0.000   5.080
   59        1.602   3.491   0.000   5.093
   60        1.599   3.519   0.000   5.118
   61        1.599   3.489   0.000   5.088
   62        1.600   3.461   0.000   5.061
   63        1.596   3.514   0.000   5.110
   64        1.595   3.499   0.000   5.094
   65        1.599   3.484   0.000   5.083
   66        1.596   3.522   0.000   5.118
   67        1.601   3.479   0.000   5.080
   68        1.597   3.502   0.000   5.099
   69        1.598   3.476   0.000   5.074
   70        1.597   3.523   0.000   5.120
   71        1.597   3.502   0.000   5.099
   72        1.600   3.495   0.000   5.094
   73        1.600   3.492   0.000   5.092
   74        1.600   3.516   0.000   5.115
   75        1.596   3.524   0.000   5.119
   76        1.603   3.528   0.000   5.130
   77        1.594   3.458   0.000   5.052
   78        1.603   3.466   0.000   5.069
   79        1.600   3.477   0.000   5.077
   80        1.598   3.516   0.000   5.114
   81        1.597   3.522   0.000   5.119
   82        1.601   3.499   0.000   5.100
   83        1.594   3.503   0.000   5.097
   84        1.596   3.516   0.000   5.112
   85        1.601   3.493   0.000   5.094
   86        1.595   3.514   0.000   5.109
   87        1.603   3.511   0.000   5.113
   88        1.599   3.493   0.000   5.092
--------------------------------------------------
tot         84.774 416.408  77.999 579.181
 


 magnetization (x)
 
# of ion       s       p       d       tot
------------------------------------------
    1        0.002   0.000   0.000   0.002
    2        0.001  -0.000   0.000   0.001
    3        0.001   0.000   0.000   0.002
    4        0.002   0.000   0.000   0.002
    5        0.002   0.000   0.000   0.003
    6        0.002   0.000   0.000   0.002
    7        0.002   0.000   0.000   0.002
    8        0.001   0.000   0.000   0.001
    9        0.002   0.000   0.000   0.002
   10        0.002   0.001   0.000   0.003
   11        0.002   0.001   0.000   0.003
   12        0.002   0.000   0.000   0.003
   13        0.001   0.000   0.000   0.001
   14        0.002   0.000   0.000   0.002
   15        0.001   0.001   0.000   0.002
   16        0.002   0.001   0.000   0.003
   17        0.008   0.002   0.001   0.011
   18        0.007   0.002   0.001   0.011
   19        0.007   0.002   0.001   0.010
   20        0.007   0.002   0.001   0.010
   21        0.007   0.002   0.001   0.010
   22        0.008   0.003   0.001   0.012
   23        0.007   0.002   0.001   0.011
   24        0.007   0.003   0.001   0.011
   25        0.017   0.031   2.769   2.816
   26        0.015   0.030   2.735   2.781
   27        0.016   0.031   2.726   2.773
   28        0.015   0.028   2.748   2.791
   29        0.015   0.031   2.740   2.787
   30        0.015   0.031   2.734   2.780
   31        0.016   0.029   2.755   2.800
   32        0.014   0.030   2.727   2.771
   33        0.015   0.029   2.769   2.813
   34        0.015   0.030   2.742   2.787
   35        0.016   0.031   2.752   2.799
   36        0.015   0.030   2.745   2.790
   37        0.015   0.029   2.777   2.821
   38        0.014   0.028   2.768   2.810
   39        0.014   0.028   2.768   2.810
   40        0.016   0.031   2.759   2.807
   41        0.002   0.046   0.000   0.049
   42        0.002   0.036   0.000   0.037
   43        0.002   0.040   0.000   0.042
   44        0.003   0.056   0.000   0.059
   45        0.001   0.013   0.000   0.014
   46        0.003   0.046   0.000   0.048
   47        0.002   0.048   0.000   0.050
   48        0.002   0.022   0.000   0.024
   49        0.002   0.039   0.000   0.041
   50        0.002   0.066   0.000   0.068
   51        0.002   0.025   0.000   0.027
   52        0.002   0.034   0.000   0.036
   53        0.002   0.059   0.000   0.062
   54        0.002   0.037   0.000   0.039
   55        0.002   0.024   0.000   0.025
   56        0.003   0.039   0.000   0.042
   57        0.002   0.027   0.000   0.029
   58        0.002   0.033   0.000   0.035
   59        0.002   0.036   0.000   0.038
   60        0.002   0.045   0.000   0.047
   61        0.002   0.030   0.000   0.033
   62        0.002   0.022   0.000   0.024
   63        0.002   0.049   0.000   0.051
   64        0.002   0.027   0.000   0.029
   65        0.002   0.019   0.000   0.021
   66        0.001   0.036   0.000   0.038
   67        0.002   0.034   0.000   0.037
   68        0.002   0.035   0.000   0.037
   69        0.002  -0.003   0.000  -0.002
   70        0.002   0.022   0.000   0.024
   71        0.002   0.038   0.000   0.041
   72        0.002   0.019   0.000   0.021
   73        0.001   0.005   0.000   0.006
   74        0.002   0.049   0.000   0.051
   75        0.002   0.028   0.000   0.030
   76        0.002   0.043   0.000   0.045
   77        0.002   0.025   0.000   0.027
   78        0.002   0.042   0.000   0.044
   79        0.002   0.031   0.000   0.033
   80        0.002   0.043   0.000   0.045
   81        0.002   0.035   0.000   0.037
   82        0.002   0.041   0.000   0.043
   83        0.002   0.013   0.000   0.015
   84        0.002   0.032   0.000   0.034
   85        0.002   0.029   0.000   0.031
   86        0.002   0.023   0.000   0.025
   87        0.003   0.054   0.000   0.056
   88        0.002   0.030   0.000   0.032
--------------------------------------------------
tot          0.426   2.124  44.024  46.575
 

 total amount of memory used by VASP MPI-rank0    88184. kBytes
=======================================================================

   base      :      30000. kBytes
   nonlr-proj:      13675. kBytes
   fftplans  :        992. kBytes
   grid      :      21513. kBytes
   one-center:       2737. kBytes
   wavefun   :      19267. kBytes
 
  
  
 General timing and accounting informations for this job:
 ========================================================
  
                  Total CPU time used (sec):      700.723
                            User time (sec):      694.479
                          System time (sec):        6.244
                         Elapsed time (sec):      704.201
  
                   Maximum memory used (kb):      182288.
                   Average memory used (kb):           0.
  
                          Minor page faults:       361309
                          Major page faults:            0
                 Voluntary context switches:         3751
