 vasp.5.4.4.18Apr17-6-g9f103f2a35 (build Dec 02 2020 12:53:39) complex          
  
 executed on             LinuxIFC date 2021.07.31  14:37:52
 running on  112 total cores
 distrk:  each k-point on  112 cores,    1 groups
 distr:  one band on NCORES_PER_BAND=   1 cores,  112 groups


--------------------------------------------------------------------------------------------------------


 INCAR:
 POTCAR:    PAW_PBE Na_pv 19Sep2006               
 POTCAR:    PAW_PBE Mg_pv 13Apr2007               
 POTCAR:    PAW_PBE Mn_pv 02Aug2007               
 POTCAR:    PAW_PBE O 08Apr2002                   

 ----------------------------------------------------------------------------- 
|                                                                             |
|           W    W    AA    RRRRR   N    N  II  N    N   GGGG   !!!           |
|           W    W   A  A   R    R  NN   N  II  NN   N  G    G  !!!           |
|           W    W  A    A  R    R  N N  N  II  N N  N  G       !!!           |
|           W WW W  AAAAAA  RRRRR   N  N N  II  N  N N  G  GGG   !            |
|           WW  WW  A    A  R   R   N   NN  II  N   NN  G    G                |
|           W    W  A    A  R    R  N    N  II  N    N   GGGG   !!!           |
|                                                                             |
|      For optimal performance we recommend to set                            |
|        NCORE= 4 - approx SQRT( number of cores)                             |
|      NCORE specifies how many cores store one orbital (NPAR=cpu/NCORE).     |
|      This setting can  greatly improve the performance of VASP for DFT.     |
|      The default,   NCORE=1            might be grossly inefficient         |
|      on modern multi-core architectures or massively parallel machines.     |
|      Do your own testing !!!!                                               |
|      Unfortunately you need to use the default for GW and RPA calculations. |
|      (for HF NCORE is supported but not extensively tested yet)             |
|                                                                             |
 ----------------------------------------------------------------------------- 

 POTCAR:    PAW_PBE Na_pv 19Sep2006               
   VRHFIN =Na: p6s1                                                             
   LEXCH  = PE                                                                  
   EATOM  =   766.0439 eV,   56.3026 Ry                                         
                                                                                
   TITEL  = PAW_PBE Na_pv 19Sep2006                                             
   LULTRA =        F    use ultrasoft PP ?                                      
   IUNSCR =        1    unscreen: 0-lin 1-nonlin 2-no                           
   RPACOR =    1.800    partial core radius                                     
   POMASS =   22.990; ZVAL   =    7.000    mass and valenz                      
   RCORE  =    2.200    outmost cutoff radius                                   
   RWIGS  =    2.200; RWIGS  =    1.164    wigner-seitz radius (au A)           
   ENMAX  =  259.561; ENMIN  =  194.671 eV                                      
   ICORE  =        2    local potential                                         
   LCOR   =        T    correct aug charges                                     
   LPAW   =        T    paw PP                                                  
   EAUG   =  368.056                                                            
   DEXC   =    0.000                                                            
   RMAX   =    2.245    core radius for proj-oper                               
   RAUG   =    1.300    factor for augmentation sphere                          
   RDEP   =    2.259    radius for radial grids                                 
   RDEPT  =    1.738    core radius for aug-charge                              
                                                                                
   Atomic configuration                                                         
    5 entries                                                                   
     n  l   j            E        occ.                                          
     1  0  0.50     -1033.6933   2.0000                                         
     2  0  0.50       -56.7526   2.0000                                         
     2  1  1.50       -28.6721   6.0000                                         
     3  0  0.50        -2.7440   1.0000                                         
     3  2  1.50        -1.3606   0.0000                                         
   Description                                                                  
     l       E           TYP  RCUT    TYP  RCUT                                 
     1    -28.6720912     23  2.000                                             
     1      6.8029130     23  2.000                                             
     0     -2.7439560     23  2.200                                             
     0     34.0145650     23  2.200                                             
     2     -1.3605826     23  2.200                                             
  local pseudopotential read in
  partial core-charges read in
  partial kinetic energy density read in
  atomic valenz-charges read in
  non local Contribution for L=           1  read in
    real space projection operators read in
  non local Contribution for L=           1  read in
    real space projection operators read in
  non local Contribution for L=           0  read in
    real space projection operators read in
  non local Contribution for L=           0  read in
    real space projection operators read in
    PAW grid and wavefunctions read in
 
   number of l-projection  operators is LMAX  =           4
   number of lm-projection operators is LMMAX =           8
 
 POTCAR:    PAW_PBE Mg_pv 13Apr2007               
   VRHFIN =Mg: p6s2                                                             
   LEXCH  = PE                                                                  
   EATOM  =  1056.7344 eV,   77.6678 Ry                                         
                                                                                
   TITEL  = PAW_PBE Mg_pv 13Apr2007                                             
   LULTRA =        F    use ultrasoft PP ?                                      
   IUNSCR =        1    unscreen: 0-lin 1-nonlin 2-no                           
   RPACOR =    1.500    partial core radius                                     
   POMASS =   24.305; ZVAL   =    8.000    mass and valenz                      
   RCORE  =    2.000    outmost cutoff radius                                   
   RWIGS  =    2.000; RWIGS  =    1.058    wigner-seitz radius (au A)           
   ENMAX  =  403.929; ENMIN  =  302.947 eV                                      
   RCLOC  =    1.506    cutoff for local pot                                    
   LCOR   =        T    correct aug charges                                     
   LPAW   =        T    paw PP                                                  
   EAUG   =  758.780                                                            
   DEXC   =    0.000                                                            
   RMAX   =    2.045    core radius for proj-oper                               
   RAUG   =    1.300    factor for augmentation sphere                          
   RDEP   =    2.025    radius for radial grids                                 
   RDEPT  =    1.557    core radius for aug-charge                              
                                                                                
   Atomic configuration                                                         
    5 entries                                                                   
     n  l   j            E        occ.                                          
     1  0  0.50     -1259.6230   2.0000                                         
     2  0  0.50       -79.8442   2.0000                                         
     2  1  1.50       -46.6121   6.0000                                         
     3  0  0.50        -4.7055   2.0000                                         
     3  2  1.50        -1.3606   0.0000                                         
   Description                                                                  
     l       E           TYP  RCUT    TYP  RCUT                                 
     1    -46.6121073     23  1.600                                             
     1      2.7211652     23  1.600                                             
     0     -4.7054661     23  2.000                                             
     0     61.2262170     23  2.000                                             
     2     -1.3605826     23  2.000                                             
  local pseudopotential read in
  partial core-charges read in
  partial kinetic energy density read in
  atomic valenz-charges read in
  non local Contribution for L=           1  read in
    real space projection operators read in
  non local Contribution for L=           1  read in
    real space projection operators read in
  non local Contribution for L=           0  read in
    real space projection operators read in
  non local Contribution for L=           0  read in
    real space projection operators read in
  non local Contribution for L=           2  read in
    real space projection operators read in
    PAW grid and wavefunctions read in
 
   number of l-projection  operators is LMAX  =           5
   number of lm-projection operators is LMMAX =          13
 
 POTCAR:    PAW_PBE Mn_pv 02Aug2007               
   VRHFIN =Mn: 3p4s3d                                                           
   LEXCH  = PE                                                                  
   EATOM  =  2025.2664 eV,  148.8529 Ry                                         
                                                                                
   TITEL  = PAW_PBE Mn_pv 02Aug2007                                             
   LULTRA =        F    use ultrasoft PP ?                                      
   IUNSCR =        1    unscreen: 0-lin 1-nonlin 2-no                           
   RPACOR =    2.080    partial core radius                                     
   POMASS =   54.938; ZVAL   =   13.000    mass and valenz                      
   RCORE  =    2.300    outmost cutoff radius                                   
   RWIGS  =    2.500; RWIGS  =    1.323    wigner-seitz radius (au A)           
   ENMAX  =  269.864; ENMIN  =  202.398 eV                                      
   ICORE  =        3    local potential                                         
   LCOR   =        T    correct aug charges                                     
   LPAW   =        T    paw PP                                                  
   EAUG   =  569.085                                                            
   DEXC   =    0.000                                                            
   RMAX   =    2.343    core radius for proj-oper                               
   RAUG   =    1.300    factor for augmentation sphere                          
   RDEP   =    2.338    radius for radial grids                                 
   RDEPT  =    1.798    core radius for aug-charge                              
                                                                                
   Atomic configuration                                                         
    8 entries                                                                   
     n  l   j            E        occ.                                          
     1  0  0.50     -6424.8287   2.0000                                         
     2  0  0.50      -739.1154   2.0000                                         
     2  1  1.50      -625.3949   6.0000                                         
     3  0  0.50       -81.6100   2.0000                                         
     3  1  1.50       -50.4667   6.0000                                         
     3  2  2.50        -3.3745   6.0000                                         
     4  0  0.50        -4.1331   1.0000                                         
     4  3  2.50        -1.3606   0.0000                                         
   Description                                                                  
     l       E           TYP  RCUT    TYP  RCUT                                 
     1    -50.4666628     23  2.000                                             
     1     -1.3605826     23  2.000                                             
     2     -3.3744729     23  2.300                                             
     2     -4.7350555     23  2.300                                             
     0     -4.1331431     23  2.300                                             
     0      7.6656591     23  2.300                                             
     3      9.5240782     23  2.300                                             
  local pseudopotential read in
  partial core-charges read in
  partial kinetic energy density read in
  atomic valenz-charges read in
  non local Contribution for L=           1  read in
    real space projection operators read in
  non local Contribution for L=           1  read in
    real space projection operators read in
  non local Contribution for L=           2  read in
    real space projection operators read in
  non local Contribution for L=           2  read in
    real space projection operators read in
  non local Contribution for L=           0  read in
    real space projection operators read in
  non local Contribution for L=           0  read in
    real space projection operators read in
    PAW grid and wavefunctions read in
 
   number of l-projection  operators is LMAX  =           6
   number of lm-projection operators is LMMAX =          18
 
 POTCAR:    PAW_PBE O 08Apr2002                   
   VRHFIN =O: s2p4                                                              
   LEXCH  = PE                                                                  
   EATOM  =   432.3788 eV,   31.7789 Ry                                         
                                                                                
   TITEL  = PAW_PBE O 08Apr2002                                                 
   LULTRA =        F    use ultrasoft PP ?                                      
   IUNSCR =        1    unscreen: 0-lin 1-nonlin 2-no                           
   RPACOR =    1.200    partial core radius                                     
   POMASS =   16.000; ZVAL   =    6.000    mass and valenz                      
   RCORE  =    1.520    outmost cutoff radius                                   
   RWIGS  =    1.550; RWIGS  =    0.820    wigner-seitz radius (au A)           
   ENMAX  =  400.000; ENMIN  =  300.000 eV                                      
   ICORE  =        2    local potential                                         
   LCOR   =        T    correct aug charges                                     
   LPAW   =        T    paw PP                                                  
   EAUG   =  605.392                                                            
   DEXC   =    0.000                                                            
   RMAX   =    1.553    core radius for proj-oper                               
   RAUG   =    1.300    factor for augmentation sphere                          
   RDEP   =    1.550    radius for radial grids                                 
   RDEPT  =    1.329    core radius for aug-charge                              
                                                                                
   Atomic configuration                                                         
    4 entries                                                                   
     n  l   j            E        occ.                                          
     1  0  0.50      -514.6923   2.0000                                         
     2  0  0.50       -23.9615   2.0000                                         
     2  1  0.50        -9.0305   4.0000                                         
     3  2  1.50        -9.5241   0.0000                                         
   Description                                                                  
     l       E           TYP  RCUT    TYP  RCUT                                 
     0    -23.9615318     23  1.200                                             
     0     -9.5240782     23  1.200                                             
     1     -9.0304911     23  1.520                                             
     1      8.1634956     23  1.520                                             
     2     -9.5240782      7  1.500                                             
  local pseudopotential read in
  partial core-charges read in
  partial kinetic energy density read in
  kinetic energy density of atom read in
  atomic valenz-charges read in
  non local Contribution for L=           0  read in
    real space projection operators read in
  non local Contribution for L=           0  read in
    real space projection operators read in
  non local Contribution for L=           1  read in
    real space projection operators read in
  non local Contribution for L=           1  read in
    real space projection operators read in
    PAW grid and wavefunctions read in
 
   number of l-projection  operators is LMAX  =           4
   number of lm-projection operators is LMMAX =           8
 
 Optimization of the real space projectors (new method)

 maximal supplied QI-value         = 17.01
 optimisation between [QCUT,QGAM] = [ 10.20, 20.41] = [ 29.16,116.64] Ry 
 Optimized for a Real-space Cutoff    1.30 Angstroem

   l    n(q)    QCUT    max X(q) W(low)/X(q) W(high)/X(q)  e(spline) 
   1      7    10.205     4.940    0.23E-03    0.84E-03    0.11E-06
   1      7    10.205     6.253    0.40E-03    0.13E-02    0.18E-06
   0      8    10.205    37.438    0.23E-03    0.37E-03    0.42E-07
   0      8    10.205     9.606    0.16E-03    0.26E-03    0.31E-07
 Optimization of the real space projectors (new method)

 maximal supplied QI-value         = 18.90
 optimisation between [QCUT,QGAM] = [ 10.20, 20.41] = [ 29.16,116.64] Ry 
 Optimized for a Real-space Cutoff    1.26 Angstroem

   l    n(q)    QCUT    max X(q) W(low)/X(q) W(high)/X(q)  e(spline) 
   1      7    10.205     2.974    0.63E-04    0.14E-03    0.13E-06
   1      7    10.205     4.279    0.11E-03    0.45E-03    0.24E-06
   0      8    10.205    16.381    0.44E-03    0.15E-03    0.55E-07
   0      8    10.205     5.611    0.31E-03    0.11E-03    0.40E-07
   2      7    10.205     4.652    0.50E-03    0.47E-03    0.57E-07
 Optimization of the real space projectors (new method)

 maximal supplied QI-value         = 16.25
 optimisation between [QCUT,QGAM] = [ 10.24, 20.48] = [ 29.35,117.42] Ry 
 Optimized for a Real-space Cutoff    1.34 Angstroem

   l    n(q)    QCUT    max X(q) W(low)/X(q) W(high)/X(q)  e(spline) 
   1      8    10.239     3.658    0.23E-03    0.30E-03    0.98E-07
   1      8    10.239     5.612    0.32E-03    0.65E-03    0.21E-06
   2      7    10.239    55.373    0.42E-03    0.45E-03    0.65E-07
   2      7    10.239    50.863    0.43E-03    0.48E-03    0.67E-07
   0      8    10.239    79.536    0.11E-03    0.21E-03    0.56E-07
   0      8    10.239    38.668    0.96E-04    0.19E-03    0.52E-07
 Optimization of the real space projectors (new method)

 maximal supplied QI-value         = 24.76
 optimisation between [QCUT,QGAM] = [ 10.15, 20.30] = [ 28.85,115.39] Ry 
 Optimized for a Real-space Cutoff    1.38 Angstroem

   l    n(q)    QCUT    max X(q) W(low)/X(q) W(high)/X(q)  e(spline) 
   0      8    10.150    20.381    0.22E-03    0.32E-03    0.29E-06
   0      8    10.150    15.268    0.23E-03    0.35E-03    0.30E-06
   1      8    10.150     5.964    0.46E-03    0.53E-03    0.21E-06
   1      8    10.150     5.382    0.38E-03    0.45E-03    0.19E-06
  PAW_PBE Na_pv 19Sep2006               :
 energy of atom  1       EATOM= -766.0439
 kinetic energy error for atom=    0.0103 (will be added to EATOM!!)
  PAW_PBE Mg_pv 13Apr2007               :
 energy of atom  2       EATOM=-1056.7344
 kinetic energy error for atom=    0.0820 (will be added to EATOM!!)
  PAW_PBE Mn_pv 02Aug2007               :
 energy of atom  3       EATOM=-2025.2664
 kinetic energy error for atom=    0.0284 (will be added to EATOM!!)
  PAW_PBE O 08Apr2002                   :
 energy of atom  4       EATOM= -432.3788
 kinetic energy error for atom=    0.1156 (will be added to EATOM!!)
 
 
 POSCAR: Na Mg Mn  O                             
  positions in cartesian coordinates
  No initial velocities read in

 METAGGA = SCAN     LMAXTAU =  6    LMIXTAU =  F

 exchange correlation table for  LEXCH =        8
   RHO(1)=    0.500       N(1)  =     2000
   RHO(2)=  100.500       N(2)  =     4000

 VTST: version 3.2, (02/03/18)

 CHAIN: initializing optimizer
 
 OPT: Using VASP Dynamics algorithm
 CHAIN: Read ICHAIN            0
 
 POSCAR: Na Mg Mn  O                             
  positions in cartesian coordinates
  No initial velocities read in
 


--------------------------------------------------------------------------------------------------------


 ion  position               nearest neighbor table
   1  0.227  0.106  0.249-  51 2.19  42 2.36
   2  0.010  0.097  0.753-  61 2.34  25 2.82  27 2.96
   3  0.710  0.293  0.744-  59 2.28  57 2.37  56 2.38
   4  0.047  0.450  0.752-  80 2.17  60 2.32  58 2.37  61 2.37
   5  0.722  0.593  0.249-  75 2.24  66 2.33  52 2.36
   6  0.850  0.959  0.250-  63 2.27  65 2.28
   7  0.496  0.623  0.759-  85 2.21  48 2.27  33 2.92  35 2.98
   8  0.859  0.706  0.761-  73 2.22  71 2.26  70 2.32  34 2.93
   9  0.556  0.160  0.248-  62 2.27  53 2.33  31 2.83  29 2.86
  10  0.075  0.671  0.259-  86 2.15  77 2.25  39 2.85  37 2.94
  11  0.453  0.791  0.254-  78 2.21  87 2.27  79 2.31  88 2.35  38 2.96
  12  0.193  0.803  0.757-  84 2.30  73 2.34  70 2.36
  13  0.352  0.159  0.725-  44 2.20  46 2.23  81 2.32
  14  0.553  0.950  0.755-  59 2.25  56 2.33
  15  0.351  0.454  0.233-  41 2.23  78 2.26  43 2.32
  16  0.976  0.305  0.246-  55 2.22  54 2.25  63 2.27  64 2.31  30 2.98
  17  0.704  0.449  0.989-  71 1.96  53 2.00  49 2.05  60 2.07  43 2.18  66 2.20  33 2.86
  18  0.372  0.297  0.502-  46 1.95  45 2.02  51 2.06  52 2.10  50 2.13  44 2.17  28 2.78  31 2.80

  19  0.214  0.454  0.990-  48 1.94  83 2.03  41 2.04  61 2.11  78 2.12  55 2.16  38 2.83
  20  0.862  0.290  0.500-  58 1.96  64 2.03  63 2.03  62 2.04  56 2.11  57 2.17  27 2.73  32 2.85
                            40 2.85
  21  0.204  0.947  0.001-  47 1.99  84 2.00  73 2.02  42 2.03  67 2.10  77 2.15  37 2.83
  22  0.860  0.798  0.503-  69 2.04  70 2.05  75 2.06  68 2.09  76 2.10  74 2.10
  23  0.709  0.948  0.016-  54 2.02  65 2.02  72 2.03  79 2.06  85 2.06  34 2.82
  24  0.356  0.797  0.514-  82 2.04  86 2.04  81 2.04  88 2.11  80 2.14  87 2.22
  25  0.039  0.118  0.004-  47 1.88  67 1.91  72 1.91  54 1.94  41 1.97  61 1.97   2 2.82  30 2.88
                            34 2.89  26 2.90
  26  0.373  0.282  0.995-  49 1.91  42 1.92  48 1.92  43 1.93  41 1.94  47 2.02  29 2.84  25 2.90
                            33 2.90
  27  0.018  0.130  0.491-  69 1.90  50 1.91  76 1.91  58 1.92  63 1.97  44 2.00  20 2.73  32 2.85
                            40 2.85  36 2.94   2 2.96
  28  0.692  0.469  0.510-  68 1.84  46 1.87  57 1.94  52 1.97  62 2.04  75 2.07  18 2.78  35 2.83
                            39 2.87  31 2.94
  29  0.535  0.116  0.995-  53 1.85  42 1.86  49 1.92  59 1.92  79 1.92  84 1.97  26 2.84   9 2.86
                            38 2.91  30 2.92
  30  0.871  0.282  0.994-  54 1.88  55 1.91  53 1.91  61 1.94  60 1.99  59 2.03  25 2.88  29 2.92
                            37 2.94  16 2.98
  31  0.529  0.130  0.499-  62 1.85  88 1.88  56 1.88  51 1.88  81 1.95  46 2.03  18 2.80   9 2.83
                            40 2.86  36 2.93  28 2.94
  32  0.190  0.458  0.502-  58 1.86  45 1.86  80 1.95  87 1.96  64 2.03  50 2.05  20 2.85  27 2.85
                            39 2.90  35 2.95
  33  0.542  0.615  0.015-  71 1.86  43 1.88  48 1.90  85 1.93  78 1.96  65 1.96  17 2.86  34 2.86
                            38 2.89  26 2.90   7 2.92
  34  0.872  0.786  0.014-  72 1.83  67 1.84  66 1.84  65 1.90  71 1.91  73 1.95  23 2.82  33 2.86
                            25 2.89  37 2.91   8 2.93
  35  0.530  0.633  0.494-  52 1.84  74 1.87  82 1.87  87 1.93  68 1.94  45 1.96  28 2.83  40 2.85
                            32 2.95   7 2.98
  36  0.191  0.965  0.494-  86 1.83  76 1.94  44 1.94  81 1.97  51 2.02  70 2.06  31 2.93  27 2.94
                            39 2.96
  37  0.042  0.621  1.000-  77 1.84  55 1.88  66 1.90  73 1.93  60 1.96  83 2.02  21 2.83  38 2.89
                            34 2.91  30 2.94  10 2.94
  38  0.375  0.780  0.998-  77 1.86  78 1.86  79 1.90  83 1.90  85 1.93  84 2.06  19 2.83  37 2.89
                            33 2.89  29 2.91  11 2.96
  39  0.023  0.625  0.509-  57 1.83  75 1.91  64 1.95  80 1.96  70 1.97  86 2.10  10 2.85  28 2.87
                            32 2.90  36 2.96
  40  0.689  0.961  0.491-  69 1.84  74 1.88  88 1.89  82 1.95  56 1.96  63 2.00  35 2.85  20 2.85
                            27 2.85  31 2.86
  41  0.213  0.284  0.091-  26 1.94  25 1.97  19 2.04  15 2.23
  42  0.384  0.126  0.086-  29 1.86  26 1.92  21 2.03   1 2.36
  43  0.521  0.443  0.098-  33 1.88  26 1.93  17 2.18  15 2.32
  44  0.173  0.114  0.592-  36 1.94  27 2.00  18 2.17  13 2.20
  45  0.358  0.469  0.583-  32 1.86  35 1.96  18 2.02
  46  0.539  0.305  0.597-  28 1.87  18 1.95  31 2.03  13 2.23
  47  0.191  0.110  0.910-  25 1.88  21 1.99  26 2.02
  48  0.392  0.460  0.916-  33 1.90  26 1.92  19 1.94   7 2.27
  49  0.525  0.271  0.901-  26 1.91  29 1.92  17 2.05
  50  0.186  0.286  0.402-  27 1.91  32 2.05  18 2.13
  51  0.373  0.126  0.401-  31 1.88  36 2.02  18 2.06   1 2.19
  52  0.542  0.484  0.406-  35 1.84  28 1.97  18 2.10   5 2.36
  53  0.699  0.272  0.076-  29 1.85  30 1.91  17 2.00   9 2.33
  54  0.883  0.137  0.093-  30 1.88  25 1.94  23 2.02  16 2.25
  55  0.024  0.451  0.084-  37 1.88  30 1.91  19 2.16  16 2.22
  56  0.674  0.112  0.593-  31 1.88  40 1.96  20 2.11  14 2.33   3 2.38
  57  0.863  0.477  0.597-  39 1.83  28 1.94  20 2.17   3 2.37
  58  0.035  0.296  0.587-  32 1.86  27 1.92  20 1.96   4 2.37
  59  0.693  0.130  0.892-  29 1.92  30 2.03  14 2.25   3 2.28
  60  0.887  0.457  0.899-  37 1.96  30 1.99  17 2.07   4 2.32
  61  0.028  0.271  0.900-  30 1.94  25 1.97  19 2.11   2 2.34   4 2.37
  62  0.684  0.292  0.414-  31 1.85  20 2.04  28 2.04   9 2.27
  63  0.855  0.125  0.390-  27 1.97  40 2.00  20 2.03   6 2.27  16 2.27
  64  0.025  0.470  0.405-  39 1.95  20 2.03  32 2.03  16 2.31
  65  0.711  0.776  0.110-  34 1.90  33 1.96  23 2.02   6 2.28
  66  0.891  0.635  0.093-  34 1.84  37 1.90  17 2.20   5 2.33
  67  0.024  0.951  0.095-  34 1.84  25 1.91  21 2.10
  68  0.678  0.618  0.596-  28 1.84  35 1.94  22 2.09
  69  0.850  0.977  0.580-  40 1.84  27 1.90  22 2.04
  70  0.030  0.795  0.602-  39 1.97  22 2.05  36 2.06   8 2.32  12 2.36
  71  0.704  0.631  0.924-  33 1.86  34 1.91  17 1.96   8 2.26
  72  0.879  0.942  0.923-  34 1.83  25 1.91  23 2.03
  73  0.025  0.777  0.911-  37 1.93  34 1.95  21 2.02   8 2.22  12 2.34
  74  0.681  0.796  0.405-  35 1.87  40 1.88  22 2.10
  75  0.873  0.630  0.407-  39 1.91  22 2.06  28 2.07   5 2.24
  76  0.034  0.976  0.402-  27 1.91  36 1.94  22 2.10
  77  0.209  0.759  0.088-  37 1.84  38 1.86  21 2.15  10 2.25
  78  0.381  0.635  0.098-  38 1.86  33 1.96  19 2.12  11 2.21  15 2.26
  79  0.521  0.950  0.090-  38 1.90  29 1.92  23 2.06  11 2.31
  80  0.174  0.606  0.607-  32 1.95  39 1.96  24 2.14   4 2.17
  81  0.359  0.981  0.596-  31 1.95  36 1.97  24 2.04  13 2.32
  82  0.538  0.791  0.589-  35 1.87  40 1.95  24 2.04
  83  0.215  0.630  0.901-  38 1.90  37 2.02  19 2.03
  84  0.370  0.952  0.900-  29 1.97  21 2.00  38 2.06  12 2.30
  85  0.540  0.772  0.916-  33 1.93  38 1.93  23 2.06   7 2.21
  86  0.195  0.809  0.411-  36 1.83  24 2.04  39 2.10  10 2.15
  87  0.358  0.614  0.403-  35 1.93  32 1.96  24 2.22  11 2.27
  88  0.530  0.972  0.409-  31 1.88  40 1.89  24 2.11  11 2.35
 
  LATTYP: Found a hexagonal cell.
 ALAT       =    10.0190000534
 C/A-ratio  =     1.1196726572
  
  Lattice vectors:
  
 A1 = (  10.0190000534,   0.0000000000,   0.0000000000)
 A2 = (  -5.0095000267,   8.6767085668,   0.0000000000)
 A3 = (   0.0000000000,   0.0000000000,  11.2180004120)


Analysis of symmetry for initial positions (statically):
=====================================================================
 Subroutine PRICEL returns:
 Original cell was already a primitive cell.
 

 Routine SETGRP: Setting up the symmetry group for a 
 hexagonal supercell.


 Subroutine GETGRP returns: Found  1 space group operations
 (whereof  1 operations were pure point group operations)
 out of a pool of 24 trial point group operations.


The static configuration has the point symmetry C_1 .


Analysis of symmetry for dynamics (positions and initial velocities):
=====================================================================
 Subroutine PRICEL returns:
 Original cell was already a primitive cell.
 

 Routine SETGRP: Setting up the symmetry group for a 
 hexagonal supercell.


 Subroutine GETGRP returns: Found  1 space group operations
 (whereof  1 operations were pure point group operations)
 out of a pool of 24 trial point group operations.


The dynamic configuration has the point symmetry C_1 .


Analysis of structural, dynamic, and magnetic symmetry:
=====================================================================
 Subroutine PRICEL returns:
 Original cell was already a primitive cell.
 

 Routine SETGRP: Setting up the symmetry group for a 
 hexagonal supercell.


 Subroutine GETGRP returns: Found  1 space group operations
 (whereof  1 operations were pure point group operations)
 out of a pool of 24 trial point group operations.


The magnetic configuration has the point symmetry C_1 .


 Subroutine INISYM returns: Found  1 space group operations
 (whereof  1 operations are pure point group operations),
 and found     1 'primitive' translations

 
 

Automatic generation of k-mesh.
 generate k-points for:    2    2    2
Space group operators:
 irot       det(A)        alpha          n_x          n_y          n_z        tau_x        tau_y        tau_z
    1     1.000000     0.000000     1.000000     0.000000     0.000000     0.000000     0.000000     0.000000
 
 Subroutine IBZKPT returns following result:
 ===========================================
 
 Found      8 irreducible k-points:
 
 Following reciprocal coordinates:
            Coordinates               Weight
  0.000000  0.000000  0.000000      1.000000
  0.500000 -0.000000 -0.000000      1.000000
  0.000000  0.500000  0.000000      1.000000
  0.500000  0.500000 -0.000000      1.000000
  0.000000  0.000000  0.500000      1.000000
  0.500000 -0.000000  0.500000      1.000000
  0.000000  0.500000  0.500000      1.000000
  0.500000  0.500000  0.500000      1.000000
 
 Following cartesian coordinates:
            Coordinates               Weight
  0.000000  0.000000  0.000000      1.000000
  0.049905  0.028813 -0.000000      1.000000
  0.000000  0.057626  0.000000      1.000000
  0.049905  0.086438 -0.000000      1.000000
  0.000000  0.000000  0.044571      1.000000
  0.049905  0.028813  0.044571      1.000000
  0.000000  0.057626  0.044571      1.000000
  0.049905  0.086438  0.044571      1.000000
 


--------------------------------------------------------------------------------------------------------




 Dimension of arrays:
   k-points           NKPTS =      8   k-points in BZ     NKDIM =      8   number of bands    NBANDS=    448
   number of dos      NEDOS =    301   number of ions     NIONS =     88
   non local maximal  LDIM  =      6   non local SUM 2l+1 LMDIM =     18
   total plane-waves  NPLWV = 140000
   max r-space proj   IRMAX =   1632   max aug-charges    IRDMAX=   4555
   dimension x,y,z NGX =    50 NGY =   50 NGZ =   56
   dimension x,y,z NGXF=   100 NGYF=  100 NGZF=  112
   support grid    NGXF=   100 NGYF=  100 NGZF=  112
   ions per type =              16   8  16  48
   NGX,Y,Z   is equivalent  to a cutoff of   8.30,  8.30,  8.30 a.u.
   NGXF,Y,Z  is equivalent  to a cutoff of  16.59, 16.59, 16.60 a.u.

 SYSTEM =  unknown system                          
 POSCAR =  Na Mg Mn  O                             

 Startparameter for this run:
   NWRITE =      2    write-flag & timer
   PREC   = normal    normal or accurate (medium, high low for compatibility)
   ISTART =      0    job   : 0-new  1-cont  2-samecut
   ICHARG =      1    charge: 1-file 2-atom 10-const
   ISPIN  =      2    spin polarized calculation?
   LNONCOLLINEAR =      F non collinear calculations
   LSORBIT =      F    spin-orbit coupling
   INIWAV =      1    electr: 0-lowe 1-rand  2-diag
   LASPH  =      T    aspherical Exc in radial PAW
   METAGGA=      F    non-selfconsistent MetaGGA calc.

 Electronic Relaxation 1
   ENCUT  =  400.0 eV  29.40 Ry    5.42 a.u.  16.34 16.34 18.29*2*pi/ulx,y,z
   ENINI  =  400.0     initial cutoff
   ENAUG  =  758.8 eV  augmentation charge cutoff
   NELM   =    200;   NELMIN=  6; NELMDL=-12     # of ELM steps 
   EDIFF  = 0.1E-04   stopping-criterion for ELM
   LREAL  =      T    real-space projection
   NLSPLINE    = F    spline interpolate recip. space projectors
   LCOMPAT=      F    compatible to vasp.4.4
   GGA_COMPAT  = T    GGA compatible to vasp.4.4-vasp.4.6
   LMAXPAW     = -100 max onsite density
   LMAXMIX     =    4 max onsite mixed and CHGCAR
   VOSKOWN=      0    Vosko Wilk Nusair interpolation
   ROPT   =   -0.00050  -0.00050  -0.00050  -0.00050
 Ionic relaxation
   EDIFFG = 0.1E-03   stopping-criterion for IOM
   NSW    =      1    number of steps for IOM
   NBLOCK =      1;   KBLOCK =      1    inner block; outer block 
   IBRION =     -1    ionic relax: 0-MD 1-quasi-New 2-CG
   NFREE  =      0    steps in history (QN), initial steepest desc. (CG)
   ISIF   =      2    stress and relaxation
   IWAVPR =     10    prediction:  0-non 1-charg 2-wave 3-comb
   ISYM   =      2    0-nonsym 1-usesym 2-fastsym
   LCORR  =      T    Harris-Foulkes like correction to forces

   POTIM  = 0.5000    time-step for ionic-motion
   TEIN   =    0.0    initial temperature
   TEBEG  =    0.0;   TEEND  =   0.0 temperature during run
   SMASS  =  -3.00    Nose mass-parameter (am)
   estimated Nose-frequenzy (Omega)   =  0.10E-29 period in steps =****** mass=  -0.229E-26a.u.
   SCALEE = 1.0000    scale energy and forces
   NPACO  =    256;   APACO  = 16.0  distance and # of slots for P.C.
   PSTRESS=    0.0 pullay stress

  Mass of Ions in am
   POMASS =  22.99 24.30 54.94 16.00
  Ionic Valenz
   ZVAL   =   7.00  8.00 13.00  6.00
  Atomic Wigner-Seitz radii
   RWIGS  =  -1.00 -1.00 -1.00 -1.00
  virtual crystal weights 
   VCA    =   1.00  1.00  1.00  1.00
   NELECT =     672.0000    total number of electrons
   NUPDOWN=      48.0000    fix difference up-down

 DOS related values:
   EMIN   =  10.00;   EMAX   =-10.00  energy-range for DOS
   EFERMI =   0.00
   ISMEAR =     0;   SIGMA  =   0.05  broadening in eV -4-tet -1-fermi 0-gaus

 Electronic relaxation 2 (details)
   IALGO  =     48    algorithm
   LDIAG  =      T    sub-space diagonalisation (order eigenvalues)
   LSUBROT=      F    optimize rotation matrix (better conditioning)
   TURBO    =      0    0=normal 1=particle mesh
   IRESTART =      0    0=no restart 2=restart with 2 vectors
   NREBOOT  =      0    no. of reboots
   NMIN     =      0    reboot dimension
   EREF     =   0.00    reference energy to select bands
   IMIX   =      4    mixing-type and parameters
     AMIX     =   0.40;   BMIX     =  1.00
     AMIX_MAG =   1.60;   BMIX_MAG =  1.00
     AMIN     =   0.10
     WC   =   100.;   INIMIX=   1;  MIXPRE=   1;  MAXMIX= -45

 Intra band minimization:
   WEIMIN = 0.0000     energy-eigenvalue tresh-hold
   EBREAK =  0.56E-08  absolut break condition
   DEPER  =   0.30     relativ break condition  

   TIME   =   0.40     timestep for ELM

  volume/ion in A,a.u.               =      11.08        74.78
  Fermi-wavevector in a.u.,A,eV,Ry     =   1.445993  2.732531 28.448379  2.090897
  Thomas-Fermi vector in A             =   2.564112
 
 Write flags
   LWAVE        =      F    write WAVECAR
   LDOWNSAMPLE  =      F    k-point downsampling of WAVECAR
   LCHARG       =      F    write CHGCAR
   LVTOT        =      F    write LOCPOT, total local potential
   LVHAR        =      F    write LOCPOT, Hartree potential only
   LELF         =      F    write electronic localiz. function (ELF)
   LORBIT       =     11    0 simple, 1 ext, 2 COOP (PROOUT), +10 PAW based schemes


 Dipole corrections
   LMONO  =      F    monopole corrections only (constant potential shift)
   LDIPOL =      F    correct potential (dipole corrections)
   IDIPOL =      0    1-x, 2-y, 3-z, 4-all directions 
   EPSILON=  1.0000000 bulk dielectric constant

 Exchange correlation treatment:
   GGA     =    --    GGA type
   LEXCH   =     8    internal setting for exchange type
   VOSKOWN=      0    Vosko Wilk Nusair interpolation
   LHFCALC =     F    Hartree Fock is set to
   LHFONE  =     F    Hartree Fock one center treatment
   AEXX    =    0.0000 exact exchange contribution

 Linear response parameters
   LEPSILON=     F    determine dielectric tensor
   LRPA    =     F    only Hartree local field effects (RPA)
   LNABLA  =     F    use nabla operator in PAW spheres
   LVEL    =     F    velocity operator in full k-point grid
   LINTERFAST=   F  fast interpolation
   KINTER  =     0    interpolate to denser k-point grid
   CSHIFT  =0.1000    complex shift for real part using Kramers Kronig
   OMEGAMAX=  -1.0    maximum frequency
   DEG_THRESHOLD= 0.2000000E-02 threshold for treating states as degnerate
   RTIME   =   -0.100 relaxation time in fs
  (WPLASMAI=    0.000 imaginary part of plasma frequency in eV, 0.658/RTIME)
   DFIELD  = 0.0000000 0.0000000 0.0000000 field for delta impulse in time
 
 Orbital magnetization related:
   ORBITALMAG=     F  switch on orbital magnetization
   LCHIMAG   =     F  perturbation theory with respect to B field
   DQ        =  0.001000  dq finite difference perturbation B field
   LLRAUG    =     F  two centre corrections for induced B field



--------------------------------------------------------------------------------------------------------


 Static calculation
 charge density and potential will be updated during run
 spin polarized calculation
 RMM-DIIS sequential band-by-band
 perform sub-space diagonalisation
    before iterative eigenvector-optimisation
 modified Broyden-mixing scheme, WC =      100.0
 initial mixing is a Kerker type mixing with AMIX =  0.4000 and BMIX =      1.0000
 Hartree-type preconditioning will be used
 using additional bands          112
 real space projection scheme for non local part
 use partial core corrections
 calculate Harris-corrections to forces 
   (improved forces if not selfconsistent)
 use gradient corrections 
 use of overlap-Matrix (Vanderbilt PP)
 Gauss-broadening in eV      SIGMA  =   0.05


--------------------------------------------------------------------------------------------------------


  energy-cutoff  :      400.00
  volume of cell :      975.20
      direct lattice vectors                 reciprocal lattice vectors
    10.019000053  0.000000000  0.000000000     0.099810360  0.057625538 -0.000000000
    -5.009500027  8.676708567  0.000000000     0.000000000  0.115251076  0.000000000
     0.000000000  0.000000000 11.218000412     0.000000000  0.000000000  0.089142446

  length of vectors
    10.019000053 10.019000053 11.218000412     0.115251076  0.115251076  0.089142446


 
 k-points in units of 2pi/SCALE and weight: read from INCAR                         
   0.00000000  0.00000000  0.00000000       0.125
   0.04990518  0.02881277 -0.00000000       0.125
   0.00000000  0.05762554  0.00000000       0.125
   0.04990518  0.08643831 -0.00000000       0.125
   0.00000000  0.00000000  0.04457122       0.125
   0.04990518  0.02881277  0.04457122       0.125
   0.00000000  0.05762554  0.04457122       0.125
   0.04990518  0.08643831  0.04457122       0.125
 
 k-points in reciprocal lattice and weights: read from INCAR                         
   0.00000000  0.00000000  0.00000000       0.125
   0.50000000 -0.00000000 -0.00000000       0.125
   0.00000000  0.50000000  0.00000000       0.125
   0.50000000  0.50000000 -0.00000000       0.125
   0.00000000  0.00000000  0.50000000       0.125
   0.50000000 -0.00000000  0.50000000       0.125
   0.00000000  0.50000000  0.50000000       0.125
   0.50000000  0.50000000  0.50000000       0.125
 
 position of ions in fractional coordinates (direct lattice) 
   0.22684860  0.10649693  0.24919860
   0.01045436  0.09722367  0.75346940
   0.70985388  0.29293662  0.74376713
   0.04691682  0.44979729  0.75186929
   0.72188071  0.59275835  0.24909787
   0.84969433  0.95872991  0.24971117
   0.49618734  0.62319616  0.75850149
   0.85870129  0.70630371  0.76130145
   0.55602508  0.15969683  0.24804777
   0.07450220  0.67058740  0.25909965
   0.45338472  0.79070997  0.25389017
   0.19267094  0.80335565  0.75699587
   0.35199824  0.15865266  0.72499284
   0.55310498  0.94960745  0.75457922
   0.35055074  0.45413073  0.23291138
   0.97606974  0.30503897  0.24584506
   0.70411361  0.44930517  0.98948431
   0.37184621  0.29674962  0.50167319
   0.21431610  0.45406388  0.99017647
   0.86227426  0.28952108  0.49960330
   0.20392615  0.94747103  0.00126014
   0.85984661  0.79841566  0.50288463
   0.70856094  0.94772573  0.01623123
   0.35627463  0.79732539  0.51421196
   0.03876044  0.11811177  0.00350151
   0.37280348  0.28172434  0.99540197
   0.01803056  0.13036395  0.49102423
   0.69159136  0.46870423  0.50976197
   0.53480129  0.11601420  0.99538089
   0.87123957  0.28224758  0.99433942
   0.52867252  0.13042619  0.49866908
   0.19026466  0.45844688  0.50202886
   0.54236607  0.61509845  0.01509280
   0.87203727  0.78578529  0.01389882
   0.53008718  0.63296006  0.49410588
   0.19136185  0.96464805  0.49370296
   0.04160715  0.62075497  0.99967731
   0.37460704  0.78020599  0.99827177
   0.02269397  0.62459744  0.50940897
   0.68915684  0.96099459  0.49073184
   0.21278811  0.28366286  0.09132644
   0.38427176  0.12553723  0.08627456
   0.52074186  0.44288107  0.09807630
   0.17307307  0.11407107  0.59221695
   0.35789397  0.46945797  0.58320554
   0.53851439  0.30483794  0.59683720
   0.19051336  0.11027315  0.90974324
   0.39165327  0.45975729  0.91554641
   0.52521804  0.27060376  0.90128362
   0.18649031  0.28594599  0.40170617
   0.37334254  0.12566302  0.40090924
   0.54169250  0.48422740  0.40559902
   0.69914129  0.27229796  0.07640782
   0.88319989  0.13678804  0.09319486
   0.02414404  0.45073543  0.08444054
   0.67432642  0.11171303  0.59254500
   0.86280683  0.47725355  0.59730164
   0.03510229  0.29610537  0.58730342
   0.69322344  0.12967475  0.89167406
   0.88741812  0.45735546  0.89851129
   0.02754042  0.27120422  0.89958100
   0.68378616  0.29181227  0.41353092
   0.85462853  0.12455200  0.39013816
   0.02502084  0.46973227  0.40494293
   0.71050653  0.77603851  0.10979140
   0.89110644  0.63516827  0.09287306
   0.02448957  0.95118096  0.09534319
   0.67848126  0.61770313  0.59581831
   0.85035291  0.97715855  0.58035120
   0.02957876  0.79514714  0.60233462
   0.70423838  0.63114371  0.92378317
   0.87938751  0.94188712  0.92346226
   0.02497073  0.77736736  0.91148151
   0.68056074  0.79556204  0.40463094
   0.87267204  0.62977568  0.40699232
   0.03366116  0.97612360  0.40170974
   0.20910735  0.75871973  0.08815617
   0.38068869  0.63487554  0.09793902
   0.52123491  0.94984520  0.08955518
   0.17446501  0.60554644  0.60704312
   0.35863511  0.98062185  0.59610356
   0.53821433  0.79083329  0.58861738
   0.21459123  0.63035424  0.90090922
   0.37018704  0.95176644  0.89988408
   0.53991382  0.77159328  0.91628629
   0.19485151  0.80864304  0.41135762
   0.35773912  0.61434240  0.40330539
   0.52966699  0.97211171  0.40887679
 
 position of ions in cartesian coordinates  (Angst):
   1.73929976  0.92404283  2.79551000
  -0.38229976  0.84358143  8.45242000
   5.64456008  2.54172570  8.34358000
  -1.78319989  3.90276000  8.43447000
   4.26309992  5.14319143  2.79438000
   3.71033000  8.31862000  2.80126000
   1.84939987  5.40729143  8.50887000
   5.06509987  6.12839143  8.54028000
   4.77081403  1.38564283  2.78260000
  -2.61287003  5.81849143  2.90658000
   0.58139995  6.86076000  2.84814000
  -2.09404000  6.97048287  8.49198000
   2.73189989  1.37658287  8.13297000
   0.78450021  8.23946713  8.46487000
   1.23720000  3.94036000  2.61280000
   8.25115005  2.64673427  2.75789000
   4.80372000  3.89849000 11.10003541
   2.23896000  2.57481000  5.62777000
  -0.12740000  3.93978000 11.10780000
   7.18877000  2.51209000  5.60455000
  -2.70322000  8.22093000  0.01413630
   4.61514000  6.92762000  5.64136000
   2.35144000  8.22314000  0.18208200
  -0.42468600  6.91816000  5.76843000
  -0.20334003  1.02482143  0.03927990
   2.32382000  2.44444000 11.16641971
  -0.47241000  1.13113000  5.50831000
   4.58108000  4.06681000  5.71851000
   4.77700103  1.00662143 11.16618321
   7.31503000  2.44898000 11.15450000
   4.64340000  1.13167000  5.59407000
  -0.39032800  3.97781000  5.63176000
   2.35263000  5.33703000  0.16931100
   4.80055000  6.81803000  0.15591700
   2.14013000  5.49201000  5.54288000
  -2.91515000  8.36997000  5.53836000
  -2.69281000  5.38611000 11.21438043
  -0.15525400  6.76962000 11.19861311
  -2.90155000  5.41945000  5.71455000
   2.09056000  8.33827000  5.50503000
   0.71091500  2.46126000  1.02450000
   3.22114000  1.08925000  0.96782800
   2.99870000  3.84275000  1.10022000
   1.16258003  0.98976143  6.64349000
   1.23399000  4.07335000  6.54240000
   3.86829000  2.64499000  6.69532000
   1.35634000  0.95680800 10.20550000
   1.62082000  3.98918000 10.27060000
   3.90657000  2.34795000 10.11060000
   0.43600000  2.48107000  4.50634000
   3.11101003  1.09034143  4.49740000
   3.00148000  4.20150000  4.55001000
   5.64062000  2.36265000  0.85714300
   8.16354000  1.18687000  1.04546000
  -2.01606005  3.91090000  0.94725400
   6.19645003  0.96930143  6.64717000
   6.25366000  4.14099000  6.70053000
  -1.13165000  2.56922000  6.58837000
   6.29580000  1.12515000 10.00280000
   6.59992000  3.96834000 10.07950000
  -1.08267005  2.35316000 10.09150000
   5.38902000  2.53197000  4.63899000
   7.93858003  1.08070143  4.37657000
  -2.10244000  4.07573000  4.54265000
   3.23100000  6.73346000  1.23164000
   5.74612000  5.51117000  1.04185000
  -4.51958005  8.25312000  1.06956000
   3.70332000  5.35963000  6.68389000
   3.62461000  8.47852000  6.51038000
  -3.68694000  6.89926000  6.75699000
   3.89405000  5.47625000 10.36300000
   4.09220000  8.17248000 10.35940000
  -3.64404005  6.74499000 10.22500000
   2.83317000  6.90286000  4.53915000
   5.58844000  5.46438000  4.56564000
  -4.55264000  8.46954000  4.50638000
  -1.70576000  6.58319000  0.98893600
   0.63371100  5.50863000  1.09868000
   0.46400300  8.24153000  1.00463000
  -1.28552000  5.25415000  6.80981000
  -1.31926000  8.50857000  6.68709000
   1.43069000  6.86183000  6.60311000
  -1.00777000  5.46940000 10.10640000
  -1.05897000  8.25820000 10.09490000
   1.54410000  6.69489000 10.27890000
  -2.09868000  7.01636000  4.61461000
   0.50664000  5.33047000  4.52428000
   0.43694000  8.43473000  4.58678000
 


--------------------------------------------------------------------------------------------------------


 k-point  1 :   0.0000 0.0000 0.0000  plane waves:   17725
 k-point  2 :   0.5000-0.0000-0.0000  plane waves:   17736
 k-point  3 :   0.0000 0.5000 0.0000  plane waves:   17736
 k-point  4 :   0.5000 0.5000-0.0000  plane waves:   17736
 k-point  5 :   0.0000 0.0000 0.5000  plane waves:   17676
 k-point  6 :   0.5000-0.0000 0.5000  plane waves:   17700
 k-point  7 :   0.0000 0.5000 0.5000  plane waves:   17700
 k-point  8 :   0.5000 0.5000 0.5000  plane waves:   17700

 maximum and minimum number of plane-waves per node :     17736    17676

 maximum number of plane-waves:     17736
 maximum index in each direction: 
   IXMAX=   16   IYMAX=   16   IZMAX=   18
   IXMIN=  -16   IYMIN=  -16   IZMIN=  -18


 serial   3D FFT for wavefunctions
 parallel 3D FFT for charge:
    minimum data exchange during FFTs selected (reduces bandwidth)


 total amount of memory used by VASP MPI-rank0    88173. kBytes
=======================================================================

   base      :      30000. kBytes
   nonlr-proj:      13664. kBytes
   fftplans  :        992. kBytes
   grid      :      21513. kBytes
   one-center:       2737. kBytes
   wavefun   :      19267. kBytes
 
     INWAV:  cpu time    0.0000: real time    0.0001
 Broyden mixing: mesh for mixing (old mesh)
   NGX = 33   NGY = 33   NGZ = 37
  (NGX  =100   NGY  =100   NGZ  =112)
  gives a total of  40293 points

 initial charge density was supplied:
 charge density of overlapping atoms calculated
 number of electron     672.0000000 magnetization      48.0000000
 keeping initial charge density in first step


--------------------------------------------------------------------------------------------------------


 Maximum index for non-local projection operator         1547
 Maximum index for augmentation-charges          283 (set IRDMAX)


--------------------------------------------------------------------------------------------------------


 First call to EWALD:  gamma=   0.179
 Maximum number of real-space cells 3x 3x 2
 Maximum number of reciprocal cells 3x 3x 3

    FEWALD:  cpu time    0.0025: real time    0.0029


--------------------------------------- Iteration      1(   1)  ---------------------------------------


    POTLOK:  cpu time    0.2041: real time    0.2052
    SETDIJ:  cpu time    3.0971: real time    3.0991
    EDDIAG:  cpu time    3.7202: real time    3.7250
  RMM-DIIS:  cpu time    6.5952: real time    6.6011
    ORTHCH:  cpu time    1.1561: real time    1.1589
       DOS:  cpu time    0.0018: real time    0.0019
    --------------------------------------------
      LOOP:  cpu time   14.7746: real time   14.7913

 eigenvalue-minimisations  :  7168
 total energy-change (2. order) : 0.1855224E+04  (-0.3596113E+05)
 number of electron     672.0000000 magnetization      48.0000000
 augmentation part      672.0000000 magnetization      48.0000000

 Free energy of the ion-electron system (eV)
  ---------------------------------------------------
  alpha Z        PSCENC =      2652.81237852
  Ewald energy   TEWEN  =    -41862.55841335
  -Hartree energ DENC   =    -25750.55753620
  -exchange      EXHF   =         0.00000000
  -V(xc)+E(xc)   XCENC  =      3606.01425132
  PAW double counting   =     55594.23204139   -59034.67079123
  entropy T*S    EENTRO =        -0.05139170
  eigenvalues    EBANDS =     -7212.19479571
  atomic energy  EATOM  =     73862.19814772
  Solvation  Ediel_sol  =         0.00000000
  ---------------------------------------------------
  free energy    TOTEN  =      1855.22389075 eV

  energy without entropy =     1855.27528245  energy(sigma->0) =     1855.24958660


--------------------------------------------------------------------------------------------------------




--------------------------------------- Iteration      1(   2)  ---------------------------------------


    EDDIAG:  cpu time    3.7074: real time    3.7106
  RMM-DIIS:  cpu time    6.5952: real time    6.5995
    ORTHCH:  cpu time    1.1525: real time    1.1548
       DOS:  cpu time    0.0014: real time    0.0014
    --------------------------------------------
      LOOP:  cpu time   11.4565: real time   11.4663

 eigenvalue-minimisations  :  7168
 total energy-change (2. order) :-0.2700162E+04  (-0.8687784E+04)
 number of electron     672.0000000 magnetization      48.0000000
 augmentation part      672.0000000 magnetization      48.0000000

 Free energy of the ion-electron system (eV)
  ---------------------------------------------------
  alpha Z        PSCENC =      2652.81237852
  Ewald energy   TEWEN  =    -41862.55841335
  -Hartree energ DENC   =    -25750.55753620
  -exchange      EXHF   =         0.00000000
  -V(xc)+E(xc)   XCENC  =      3606.01425132
  PAW double counting   =     55594.23204139   -59034.67079123
  entropy T*S    EENTRO =        -0.04310317
  eigenvalues    EBANDS =     -9912.36479581
  atomic energy  EATOM  =     73862.19814772
  Solvation  Ediel_sol  =         0.00000000
  ---------------------------------------------------
  free energy    TOTEN  =      -844.93782082 eV

  energy without entropy =     -844.89471765  energy(sigma->0) =     -844.91626924


--------------------------------------------------------------------------------------------------------




--------------------------------------- Iteration      1(   3)  ---------------------------------------


    EDDIAG:  cpu time    3.7428: real time    3.7551
  RMM-DIIS:  cpu time    6.6341: real time    6.6370
    ORTHCH:  cpu time    1.1552: real time    1.1580
       DOS:  cpu time    0.0017: real time    0.0017
    --------------------------------------------
      LOOP:  cpu time   11.5337: real time   11.5517

 eigenvalue-minimisations  :  7168
 total energy-change (2. order) : 0.3112929E+03  (-0.1559307E+04)
 number of electron     672.0000000 magnetization      48.0000000
 augmentation part      672.0000000 magnetization      48.0000000

 Free energy of the ion-electron system (eV)
  ---------------------------------------------------
  alpha Z        PSCENC =      2652.81237852
  Ewald energy   TEWEN  =    -41862.55841335
  -Hartree energ DENC   =    -25750.55753620
  -exchange      EXHF   =         0.00000000
  -V(xc)+E(xc)   XCENC  =      3606.01425132
  PAW double counting   =     55594.23204139   -59034.67079123
  entropy T*S    EENTRO =        -0.04680608
  eigenvalues    EBANDS =     -9601.06820046
  atomic energy  EATOM  =     73862.19814772
  Solvation  Ediel_sol  =         0.00000000
  ---------------------------------------------------
  free energy    TOTEN  =      -533.64492839 eV

  energy without entropy =     -533.59812230  energy(sigma->0) =     -533.62152534


--------------------------------------------------------------------------------------------------------




--------------------------------------- Iteration      1(   4)  ---------------------------------------


    EDDIAG:  cpu time    3.7140: real time    3.7182
  RMM-DIIS:  cpu time    6.6037: real time    6.6074
    ORTHCH:  cpu time    1.1589: real time    1.1614
       DOS:  cpu time    0.0012: real time    0.0012
    --------------------------------------------
      LOOP:  cpu time   11.4779: real time   11.4882

 eigenvalue-minimisations  :  7168
 total energy-change (2. order) :-0.5240515E+03  (-0.5070722E+03)
 number of electron     672.0000000 magnetization      48.0000000
 augmentation part      672.0000000 magnetization      48.0000000

 Free energy of the ion-electron system (eV)
  ---------------------------------------------------
  alpha Z        PSCENC =      2652.81237852
  Ewald energy   TEWEN  =    -41862.55841335
  -Hartree energ DENC   =    -25750.55753620
  -exchange      EXHF   =         0.00000000
  -V(xc)+E(xc)   XCENC  =      3606.01425132
  PAW double counting   =     55594.23204139   -59034.67079123
  entropy T*S    EENTRO =        -0.00478236
  eigenvalues    EBANDS =    -10125.16168698
  atomic energy  EATOM  =     73862.19814772
  Solvation  Ediel_sol  =         0.00000000
  ---------------------------------------------------
  free energy    TOTEN  =     -1057.69639117 eV

  energy without entropy =    -1057.69160882  energy(sigma->0) =    -1057.69400000


--------------------------------------------------------------------------------------------------------




--------------------------------------- Iteration      1(   5)  ---------------------------------------


    EDDIAG:  cpu time    3.7185: real time    3.7213
  RMM-DIIS:  cpu time    6.5828: real time    6.6174
    ORTHCH:  cpu time    1.1451: real time    1.1477
       DOS:  cpu time    0.0013: real time    0.0013
    --------------------------------------------
      LOOP:  cpu time   11.4477: real time   11.4877

 eigenvalue-minimisations  :  7168
 total energy-change (2. order) :-0.1479416E+03  (-0.2130656E+03)
 number of electron     672.0000000 magnetization      48.0000000
 augmentation part      672.0000000 magnetization      48.0000000

 Free energy of the ion-electron system (eV)
  ---------------------------------------------------
  alpha Z        PSCENC =      2652.81237852
  Ewald energy   TEWEN  =    -41862.55841335
  -Hartree energ DENC   =    -25750.55753620
  -exchange      EXHF   =         0.00000000
  -V(xc)+E(xc)   XCENC  =      3606.01425132
  PAW double counting   =     55594.23204139   -59034.67079123
  entropy T*S    EENTRO =        -0.00000000
  eigenvalues    EBANDS =    -10273.10808741
  atomic energy  EATOM  =     73862.19814772
  Solvation  Ediel_sol  =         0.00000000
  ---------------------------------------------------
  free energy    TOTEN  =     -1205.63800925 eV

  energy without entropy =    -1205.63800925  energy(sigma->0) =    -1205.63800925


--------------------------------------------------------------------------------------------------------




--------------------------------------- Iteration      1(   6)  ---------------------------------------


    EDDIAG:  cpu time    3.7309: real time    3.7343
  RMM-DIIS:  cpu time    6.6252: real time    6.6302
    ORTHCH:  cpu time    1.1569: real time    1.1591
       DOS:  cpu time    0.0012: real time    0.0012
    --------------------------------------------
      LOOP:  cpu time   11.5142: real time   11.5249

 eigenvalue-minimisations  :  7168
 total energy-change (2. order) :-0.2167529E+02  (-0.1157551E+03)
 number of electron     672.0000000 magnetization      48.0000000
 augmentation part      672.0000000 magnetization      48.0000000

 Free energy of the ion-electron system (eV)
  ---------------------------------------------------
  alpha Z        PSCENC =      2652.81237852
  Ewald energy   TEWEN  =    -41862.55841335
  -Hartree energ DENC   =    -25750.55753620
  -exchange      EXHF   =         0.00000000
  -V(xc)+E(xc)   XCENC  =      3606.01425132
  PAW double counting   =     55594.23204139   -59034.67079123
  entropy T*S    EENTRO =        -0.00000000
  eigenvalues    EBANDS =    -10294.78338166
  atomic energy  EATOM  =     73862.19814772
  Solvation  Ediel_sol  =         0.00000000
  ---------------------------------------------------
  free energy    TOTEN  =     -1227.31330350 eV

  energy without entropy =    -1227.31330350  energy(sigma->0) =    -1227.31330350


--------------------------------------------------------------------------------------------------------




--------------------------------------- Iteration      1(   7)  ---------------------------------------


    EDDIAG:  cpu time    3.7943: real time    3.7974
  RMM-DIIS:  cpu time    6.6132: real time    6.6161
    ORTHCH:  cpu time    1.1492: real time    1.1517
       DOS:  cpu time    0.0012: real time    0.0012
    --------------------------------------------
      LOOP:  cpu time   11.5579: real time   11.5664

 eigenvalue-minimisations  :  7168
 total energy-change (2. order) :-0.6666457E+01  (-0.7660383E+02)
 number of electron     672.0000000 magnetization      48.0000000
 augmentation part      672.0000000 magnetization      48.0000000

 Free energy of the ion-electron system (eV)
  ---------------------------------------------------
  alpha Z        PSCENC =      2652.81237852
  Ewald energy   TEWEN  =    -41862.55841335
  -Hartree energ DENC   =    -25750.55753620
  -exchange      EXHF   =         0.00000000
  -V(xc)+E(xc)   XCENC  =      3606.01425132
  PAW double counting   =     55594.23204139   -59034.67079123
  entropy T*S    EENTRO =        -0.00000000
  eigenvalues    EBANDS =    -10301.44983874
  atomic energy  EATOM  =     73862.19814772
  Solvation  Ediel_sol  =         0.00000000
  ---------------------------------------------------
  free energy    TOTEN  =     -1233.97976058 eV

  energy without entropy =    -1233.97976058  energy(sigma->0) =    -1233.97976058


--------------------------------------------------------------------------------------------------------




--------------------------------------- Iteration      1(   8)  ---------------------------------------


    EDDIAG:  cpu time    3.7128: real time    3.7183
  RMM-DIIS:  cpu time    6.5729: real time    6.6003
    ORTHCH:  cpu time    1.1581: real time    1.1605
       DOS:  cpu time    0.0012: real time    0.0012
    --------------------------------------------
      LOOP:  cpu time   11.4449: real time   11.4803

 eigenvalue-minimisations  :  7168
 total energy-change (2. order) : 0.4648704E+01  (-0.5322506E+02)
 number of electron     672.0000000 magnetization      48.0000000
 augmentation part      672.0000000 magnetization      48.0000000

 Free energy of the ion-electron system (eV)
  ---------------------------------------------------
  alpha Z        PSCENC =      2652.81237852
  Ewald energy   TEWEN  =    -41862.55841335
  -Hartree energ DENC   =    -25750.55753620
  -exchange      EXHF   =         0.00000000
  -V(xc)+E(xc)   XCENC  =      3606.01425132
  PAW double counting   =     55594.23204139   -59034.67079123
  entropy T*S    EENTRO =        -0.00000003
  eigenvalues    EBANDS =    -10296.80113510
  atomic energy  EATOM  =     73862.19814772
  Solvation  Ediel_sol  =         0.00000000
  ---------------------------------------------------
  free energy    TOTEN  =     -1229.33105697 eV

  energy without entropy =    -1229.33105694  energy(sigma->0) =    -1229.33105695


--------------------------------------------------------------------------------------------------------




--------------------------------------- Iteration      1(   9)  ---------------------------------------


    EDDIAG:  cpu time    3.7079: real time    3.7110
  RMM-DIIS:  cpu time   13.8323: real time   13.8415
    ORTHCH:  cpu time    1.1613: real time    1.1636
       DOS:  cpu time    0.0010: real time    0.0010
    --------------------------------------------
      LOOP:  cpu time   18.7026: real time   18.7170

 eigenvalue-minimisations  : 20211
 total energy-change (2. order) : 0.1835199E+02  (-0.2385525E+02)
 number of electron     672.0000000 magnetization      48.0000000
 augmentation part      672.0000000 magnetization      48.0000000

 Free energy of the ion-electron system (eV)
  ---------------------------------------------------
  alpha Z        PSCENC =      2652.81237852
  Ewald energy   TEWEN  =    -41862.55841335
  -Hartree energ DENC   =    -25750.55753620
  -exchange      EXHF   =         0.00000000
  -V(xc)+E(xc)   XCENC  =      3606.01425132
  PAW double counting   =     55594.23204139   -59034.67079123
  entropy T*S    EENTRO =        -0.00000000
  eigenvalues    EBANDS =    -10278.44914443
  atomic energy  EATOM  =     73862.19814772
  Solvation  Ediel_sol  =         0.00000000
  ---------------------------------------------------
  free energy    TOTEN  =     -1210.97906627 eV

  energy without entropy =    -1210.97906627  energy(sigma->0) =    -1210.97906627


--------------------------------------------------------------------------------------------------------




--------------------------------------- Iteration      1(  10)  ---------------------------------------


    EDDIAG:  cpu time    3.6990: real time    3.7029
  RMM-DIIS:  cpu time   15.6945: real time   15.7189
    ORTHCH:  cpu time    1.1667: real time    1.1689
       DOS:  cpu time    0.0011: real time    0.0011
    --------------------------------------------
      LOOP:  cpu time   20.5612: real time   20.5917

 eigenvalue-minimisations  : 20239
 total energy-change (2. order) :-0.3091769E+01  (-0.1033521E+01)
 number of electron     672.0000000 magnetization      48.0000000
 augmentation part      672.0000000 magnetization      48.0000000

 Free energy of the ion-electron system (eV)
  ---------------------------------------------------
  alpha Z        PSCENC =      2652.81237852
  Ewald energy   TEWEN  =    -41862.55841335
  -Hartree energ DENC   =    -25750.55753620
  -exchange      EXHF   =         0.00000000
  -V(xc)+E(xc)   XCENC  =      3606.01425132
  PAW double counting   =     55594.23204139   -59034.67079123
  entropy T*S    EENTRO =        -0.00000031
  eigenvalues    EBANDS =    -10281.54091332
  atomic energy  EATOM  =     73862.19814772
  Solvation  Ediel_sol  =         0.00000000
  ---------------------------------------------------
  free energy    TOTEN  =     -1214.07083547 eV

  energy without entropy =    -1214.07083516  energy(sigma->0) =    -1214.07083532


--------------------------------------------------------------------------------------------------------




--------------------------------------- Iteration      1(  11)  ---------------------------------------


    EDDIAG:  cpu time    3.7227: real time    3.7257
  RMM-DIIS:  cpu time   15.0983: real time   15.1242
    ORTHCH:  cpu time    1.2255: real time    1.2279
       DOS:  cpu time    0.0011: real time    0.0011
    --------------------------------------------
      LOOP:  cpu time   20.0477: real time   20.0789

 eigenvalue-minimisations  : 21659
 total energy-change (2. order) : 0.1037433E+00  (-0.9487310E-01)
 number of electron     672.0000000 magnetization      48.0000000
 augmentation part      672.0000000 magnetization      48.0000000

 Free energy of the ion-electron system (eV)
  ---------------------------------------------------
  alpha Z        PSCENC =      2652.81237852
  Ewald energy   TEWEN  =    -41862.55841335
  -Hartree energ DENC   =    -25750.55753620
  -exchange      EXHF   =         0.00000000
  -V(xc)+E(xc)   XCENC  =      3606.01425132
  PAW double counting   =     55594.23204139   -59034.67079123
  entropy T*S    EENTRO =        -0.00000026
  eigenvalues    EBANDS =    -10281.43717010
  atomic energy  EATOM  =     73862.19814772
  Solvation  Ediel_sol  =         0.00000000
  ---------------------------------------------------
  free energy    TOTEN  =     -1213.96709220 eV

  energy without entropy =    -1213.96709194  energy(sigma->0) =    -1213.96709207


--------------------------------------------------------------------------------------------------------




--------------------------------------- Iteration      1(  12)  ---------------------------------------


    EDDIAG:  cpu time    3.6988: real time    3.7022
  RMM-DIIS:  cpu time   16.1004: real time   16.1079
    ORTHCH:  cpu time    1.1489: real time    1.1528
       DOS:  cpu time    0.0012: real time    0.0012
    CHARGE:  cpu time    1.3479: real time    1.3486
    MIXING:  cpu time    0.0014: real time    0.0016
    --------------------------------------------
      LOOP:  cpu time   22.2986: real time   22.3143

 eigenvalue-minimisations  : 22887
 total energy-change (2. order) : 0.6531695E-02  (-0.6889047E-02)
 number of electron     672.0000435 magnetization      48.0000010
 augmentation part      239.0791447 magnetization      29.0265622

 Broyden mixing:
  rms(total) = 0.12612E+02    rms(broyden)= 0.12602E+02
  rms(prec ) = 0.14459E+02
  weight for this iteration     100.00

 Free energy of the ion-electron system (eV)
  ---------------------------------------------------
  alpha Z        PSCENC =      2652.81237852
  Ewald energy   TEWEN  =    -41862.55841335
  -Hartree energ DENC   =    -25750.55753620
  -exchange      EXHF   =         0.00000000
  -V(xc)+E(xc)   XCENC  =      3606.01425132
  PAW double counting   =     55594.23204139   -59034.67079123
  entropy T*S    EENTRO =        -0.00000023
  eigenvalues    EBANDS =    -10281.43063843
  atomic energy  EATOM  =     73862.19814772
  Solvation  Ediel_sol  =         0.00000000
  ---------------------------------------------------
  free energy    TOTEN  =     -1213.96056050 eV

  energy without entropy =    -1213.96056027  energy(sigma->0) =    -1213.96056039


--------------------------------------------------------------------------------------------------------




--------------------------------------- Iteration      1(  13)  ---------------------------------------


    POTLOK:  cpu time    0.1996: real time    0.2002
    SETDIJ:  cpu time    3.2539: real time    3.2670
    EDDIAG:  cpu time    3.7436: real time    3.7461
  RMM-DIIS:  cpu time   13.0472: real time   13.0539
    ORTHCH:  cpu time    1.1711: real time    1.1737
       DOS:  cpu time    0.0014: real time    0.0014
    CHARGE:  cpu time    1.3458: real time    1.3465
    MIXING:  cpu time    0.0007: real time    0.0009
    --------------------------------------------
      LOOP:  cpu time   22.7633: real time   22.7897

 eigenvalue-minimisations  : 17315
 total energy-change (2. order) : 0.2244192E+03  (-0.1386268E+03)
 number of electron     672.0000403 magnetization      48.0000013
 augmentation part      268.9392908 magnetization      26.6138694

 Broyden mixing:
  rms(total) = 0.13939E+02    rms(broyden)= 0.13936E+02
  rms(prec ) = 0.15652E+02
  weight for this iteration     100.00

 eigenvalues of (default mixing * dielectric matrix)
  average eigenvalue GAMMA=   0.3185
  0.3185

 Free energy of the ion-electron system (eV)
  ---------------------------------------------------
  alpha Z        PSCENC =      2652.81237852
  Ewald energy   TEWEN  =    -41862.55841335
  -Hartree energ DENC   =    -25080.81666445
  -exchange      EXHF   =         0.00000000
  -V(xc)+E(xc)   XCENC  =      3696.41397226
  PAW double counting   =     59919.65518166   -63344.91048915
  entropy T*S    EENTRO =        -0.08134199
  eigenvalues    EBANDS =    -10832.25418013
  atomic energy  EATOM  =     73862.19814772
  Solvation  Ediel_sol  =         0.00000000
  ---------------------------------------------------
  free energy    TOTEN  =      -989.54140890 eV

  energy without entropy =     -989.46006691  energy(sigma->0) =     -989.50073790


--------------------------------------------------------------------------------------------------------




--------------------------------------- Iteration      1(  14)  ---------------------------------------


    POTLOK:  cpu time    0.2092: real time    0.2097
    SETDIJ:  cpu time    3.2576: real time    3.2583
    EDDIAG:  cpu time    3.7163: real time    3.7221
  RMM-DIIS:  cpu time   13.6966: real time   13.7309
    ORTHCH:  cpu time    1.1669: real time    1.1695
       DOS:  cpu time    0.0012: real time    0.0012
    CHARGE:  cpu time    1.3519: real time    1.3527
    MIXING:  cpu time    0.0017: real time    0.0017
    --------------------------------------------
      LOOP:  cpu time   23.4015: real time   23.4459

 eigenvalue-minimisations  : 17755
 total energy-change (2. order) : 0.7497077E+02  (-0.1852930E+02)
 number of electron     672.0000422 magnetization      48.0000020
 augmentation part      246.6583670 magnetization      32.2058252

 Broyden mixing:
  rms(total) = 0.52782E+01    rms(broyden)= 0.52739E+01
  rms(prec ) = 0.56934E+01
  weight for this iteration     100.00

 eigenvalues of (default mixing * dielectric matrix)
  average eigenvalue GAMMA=   0.7310
  1.1024  0.3597

 Free energy of the ion-electron system (eV)
  ---------------------------------------------------
  alpha Z        PSCENC =      2652.81237852
  Ewald energy   TEWEN  =    -41862.55841335
  -Hartree energ DENC   =    -25691.24881411
  -exchange      EXHF   =         0.00000000
  -V(xc)+E(xc)   XCENC  =      3674.18530838
  PAW double counting   =     63351.00213144   -66833.52285610
  entropy T*S    EENTRO =        -0.00000000
  eigenvalues    EBANDS =    -10067.43852191
  atomic energy  EATOM  =     73862.19814772
  Solvation  Ediel_sol  =         0.00000000
  ---------------------------------------------------
  free energy    TOTEN  =      -914.57063940 eV

  energy without entropy =     -914.57063940  energy(sigma->0) =     -914.57063940


--------------------------------------------------------------------------------------------------------




--------------------------------------- Iteration      1(  15)  ---------------------------------------


    POTLOK:  cpu time    0.2011: real time    0.2020
    SETDIJ:  cpu time    3.2623: real time    3.2629
    EDDIAG:  cpu time    3.7190: real time    3.7215
  RMM-DIIS:  cpu time   13.6717: real time   13.7268
    ORTHCH:  cpu time    1.1646: real time    1.1670
       DOS:  cpu time    0.0010: real time    0.0010
    CHARGE:  cpu time    1.3391: real time    1.3402
    MIXING:  cpu time    0.0007: real time    0.0006
    --------------------------------------------
      LOOP:  cpu time   23.3595: real time   23.4220

 eigenvalue-minimisations  : 18393
 total energy-change (2. order) : 0.1352766E+02  (-0.2081551E+01)
 number of electron     672.0000418 magnetization      48.0000025
 augmentation part      249.6779340 magnetization      33.7975561

 Broyden mixing:
  rms(total) = 0.21825E+01    rms(broyden)= 0.21822E+01
  rms(prec ) = 0.22647E+01
  weight for this iteration     100.00

 eigenvalues of (default mixing * dielectric matrix)
  average eigenvalue GAMMA=   0.9417
  1.6956  0.3862  0.7435

 Free energy of the ion-electron system (eV)
  ---------------------------------------------------
  alpha Z        PSCENC =      2652.81237852
  Ewald energy   TEWEN  =    -41862.55841335
  -Hartree energ DENC   =    -25613.36435968
  -exchange      EXHF   =         0.00000000
  -V(xc)+E(xc)   XCENC  =      3706.75596755
  PAW double counting   =     67462.63399332   -70985.78535374
  entropy T*S    EENTRO =        -0.00000000
  eigenvalues    EBANDS =    -10123.73533503
  atomic energy  EATOM  =     73862.19814772
  Solvation  Ediel_sol  =         0.00000000
  ---------------------------------------------------
  free energy    TOTEN  =      -901.04297468 eV

  energy without entropy =     -901.04297468  energy(sigma->0) =     -901.04297468


--------------------------------------------------------------------------------------------------------




--------------------------------------- Iteration      1(  16)  ---------------------------------------


    POTLOK:  cpu time    0.2059: real time    0.2065
    SETDIJ:  cpu time    3.6324: real time    3.6344
    EDDIAG:  cpu time    3.7424: real time    3.7449
  RMM-DIIS:  cpu time   13.1802: real time   13.1884
    ORTHCH:  cpu time    1.1597: real time    1.1619
       DOS:  cpu time    0.0011: real time    0.0011
    CHARGE:  cpu time    1.3329: real time    1.3688
    MIXING:  cpu time    0.0009: real time    0.0009
    --------------------------------------------
      LOOP:  cpu time   23.2555: real time   23.3068

 eigenvalue-minimisations  : 17394
 total energy-change (2. order) :-0.1460222E+01  (-0.7019149E+00)
 number of electron     672.0000412 magnetization      48.0000027
 augmentation part      251.1596509 magnetization      33.8965498

 Broyden mixing:
  rms(total) = 0.14629E+01    rms(broyden)= 0.14624E+01
  rms(prec ) = 0.15459E+01
  weight for this iteration     100.00

 eigenvalues of (default mixing * dielectric matrix)
  average eigenvalue GAMMA=   0.9679
  2.0732  0.8934  0.3935  0.5115

 Free energy of the ion-electron system (eV)
  ---------------------------------------------------
  alpha Z        PSCENC =      2652.81237852
  Ewald energy   TEWEN  =    -41862.55841335
  -Hartree energ DENC   =    -25562.87262142
  -exchange      EXHF   =         0.00000000
  -V(xc)+E(xc)   XCENC  =      3707.86865323
  PAW double counting   =     70387.26188805   -73939.86845353
  entropy T*S    EENTRO =        -0.00000000
  eigenvalues    EBANDS =    -10147.34477599
  atomic energy  EATOM  =     73862.19814772
  Solvation  Ediel_sol  =         0.00000000
  ---------------------------------------------------
  free energy    TOTEN  =      -902.50319676 eV

  energy without entropy =     -902.50319676  energy(sigma->0) =     -902.50319676


--------------------------------------------------------------------------------------------------------




--------------------------------------- Iteration      1(  17)  ---------------------------------------


    POTLOK:  cpu time    0.2071: real time    0.2079
    SETDIJ:  cpu time    3.3041: real time    3.3049
    EDDIAG:  cpu time    3.7969: real time    3.7997
  RMM-DIIS:  cpu time   13.7826: real time   13.7918
    ORTHCH:  cpu time    1.1551: real time    1.1574
       DOS:  cpu time    0.0010: real time    0.0010
    CHARGE:  cpu time    1.3479: real time    1.3486
    MIXING:  cpu time    0.0017: real time    0.0017
    --------------------------------------------
      LOOP:  cpu time   23.5964: real time   23.6130

 eigenvalue-minimisations  : 18449
 total energy-change (2. order) : 0.1357759E+00  (-0.7015988E-01)
 number of electron     672.0000414 magnetization      48.0000028
 augmentation part      251.1124004 magnetization      33.8873923

 Broyden mixing:
  rms(total) = 0.77011E+00    rms(broyden)= 0.77000E+00
  rms(prec ) = 0.86815E+00
  weight for this iteration     100.00

 eigenvalues of (default mixing * dielectric matrix)
  average eigenvalue GAMMA=   0.9982
  2.2327  1.1263  0.3824  0.6935  0.5560

 Free energy of the ion-electron system (eV)
  ---------------------------------------------------
  alpha Z        PSCENC =      2652.81237852
  Ewald energy   TEWEN  =    -41862.55841335
  -Hartree energ DENC   =    -25554.13997300
  -exchange      EXHF   =         0.00000000
  -V(xc)+E(xc)   XCENC  =      3705.10577521
  PAW double counting   =     71254.17883087   -74815.23410634
  entropy T*S    EENTRO =        -0.00000000
  eigenvalues    EBANDS =    -10144.73006049
  atomic energy  EATOM  =     73862.19814772
  Solvation  Ediel_sol  =         0.00000000
  ---------------------------------------------------
  free energy    TOTEN  =      -902.36742087 eV

  energy without entropy =     -902.36742087  energy(sigma->0) =     -902.36742087


--------------------------------------------------------------------------------------------------------




--------------------------------------- Iteration      1(  18)  ---------------------------------------


    POTLOK:  cpu time    0.1986: real time    0.1986
    SETDIJ:  cpu time    3.2880: real time    3.2898
    EDDIAG:  cpu time    3.7418: real time    3.7589
  RMM-DIIS:  cpu time   13.3871: real time   13.3949
    ORTHCH:  cpu time    1.1801: real time    1.1825
       DOS:  cpu time    0.0010: real time    0.0010
    CHARGE:  cpu time    1.3730: real time    1.3735
    MIXING:  cpu time    0.0008: real time    0.0008
    --------------------------------------------
      LOOP:  cpu time   23.1702: real time   23.2001

 eigenvalue-minimisations  : 17687
 total energy-change (2. order) : 0.4005304E+00  (-0.7289198E-01)
 number of electron     672.0000415 magnetization      48.0000028
 augmentation part      250.5922308 magnetization      33.8475382

 Broyden mixing:
  rms(total) = 0.26161E+00    rms(broyden)= 0.26130E+00
  rms(prec ) = 0.27348E+00
  weight for this iteration     100.00

 eigenvalues of (default mixing * dielectric matrix)
  average eigenvalue GAMMA=   1.0241
  2.4750  1.3655  0.8488  0.3841  0.5793  0.4919

 Free energy of the ion-electron system (eV)
  ---------------------------------------------------
[...]
   4      -0.909    -0.812     1.721    -0.100    -0.415    -0.312
   5      -0.588    -0.859     1.447    -0.050    -0.077    -0.529
   6      -0.802    -0.713     1.514     0.101    -0.513     0.315
   7      -0.866    -0.928     1.794    -0.089    -0.068     0.076
   8      -0.585    -0.840     1.425    -0.093     0.053     0.392
   9      -0.885    -0.925     1.810    -0.057     0.000    -0.029
  10      -0.915    -0.873     1.789    -0.083    -0.045     0.104
  11      -0.679    -0.720     1.400    -0.141     0.322     0.208
  12      -0.787    -0.659     1.446     0.076     0.412    -0.239
  13      -0.624    -0.800     1.424     0.006    -0.093     0.458
  14      -0.836    -0.731     1.567    -0.125    -0.404    -0.188
  15      -0.791    -0.652     1.443     0.132    -0.526     0.229
  16      -0.757    -0.662     1.418    -0.184     0.353     0.117
  17       1.259     1.672    -2.931    -0.192    -0.060     0.125
  18       1.513     1.341    -2.853    -0.012     0.138     0.063
  19       1.560     1.349    -2.909    -0.029     0.072     0.032
  20       1.595     1.335    -2.930     0.096     0.007     0.163
  21       1.497     1.503    -3.000    -0.002    -0.117    -0.044
  22       1.419     1.485    -2.904    -0.127     0.055    -0.197
  23       1.526     1.249    -2.775     0.162     0.060    -0.021
  24       1.526     1.224    -2.751    -0.004    -0.017    -0.155
  25       0.152    -1.807     1.655     0.343     0.940     0.352
  26       0.062    -1.569     1.507     1.759     1.303    -0.798
  27      -0.531     0.540    -0.010    -0.537     0.611    -0.266
  28       0.001    -0.877     0.875     0.793     0.563     0.972
  29       0.208    -0.244     0.036    -1.476     0.825     1.021
  30      -0.829     0.885    -0.056    -0.031    -0.333     0.185
  31       0.428    -0.913     0.485    -0.026    -0.664     0.512
  32      -2.603     1.394     1.210    -1.863     1.423    -0.092
  33       0.146    -0.815     0.669    -0.252     0.450     0.501
  34       0.590    -1.801     1.211     0.338     0.460     0.185
  35       0.598    -0.743     0.145     0.179     0.180    -1.310
  36      -1.654     1.306     0.348     1.955     1.250    -0.804
  37      -0.777     0.407     0.370     0.112    -1.170    -0.397
  38      -0.929     0.937    -0.009    -0.764    -1.224    -0.031
  39       0.559     0.449    -1.008     0.199    -0.037     0.245
  40      -0.652     0.570     0.083     0.828    -0.340     0.297
  41      -3.321     2.082     1.240    -3.469     2.402    -4.202
  42      -3.574     2.569     1.005     4.658     0.805     4.530
  43       6.750    -6.151    -0.599     0.989    -4.650    -1.009
  44      -2.685     4.247    -1.562     4.342    -2.250    -3.897
  45      -5.595     3.121     2.474    -4.593    -3.496     4.400
  46       4.430    -6.055     1.625    -0.916     4.983     1.331
  47      -3.575     1.260     2.315    -4.560     4.854    -3.536
  48       4.960    -6.296     1.336     0.110    -5.304    -1.160
  49      -3.944     3.152     0.792     4.654     3.351     4.085
  50       3.710    -5.548     1.839    -0.963     5.426    -0.247
  51      -2.553     1.089     1.464    -5.691    -2.091     4.157
  52      -1.432     2.245    -0.814     6.209    -3.462    -3.029
  53      -4.141     0.908     3.233    -5.053     2.507    -4.907
  54      -3.321     2.735     0.586     4.439     0.823     4.223
  55       6.657    -7.883     1.227    -0.618    -5.710    -0.743
  56      -3.105     3.913    -0.808     4.482    -2.442    -2.805
  57      -4.415     2.206     2.209    -5.147    -0.384     5.847
  58       4.901    -6.546     1.645    -2.473     4.905    -1.018
  59      -2.859     5.432    -2.573    -5.378     2.267    -3.287
  60       5.646    -5.305    -0.341     1.839    -3.595     0.088
  61      -2.493     3.454    -0.961     4.939     2.508     3.654
  62       5.194    -7.058     1.864    -1.239     4.716     1.404
  63      -3.372     2.438     0.933    -4.352    -3.101     4.103
  64      -1.562     3.010    -1.448     4.495    -0.993    -3.993
  65      -2.967     1.026     1.941    -3.685     2.618    -3.209
  66      -4.440     2.602     1.838     5.464     3.745     3.543
  67       5.299    -6.870     1.571     0.450    -5.173     0.971
  68      -0.934     0.521     0.413     7.131    -1.552    -4.754
  69      -2.134     1.600     0.534    -6.048    -3.242     3.563
  70       4.915    -5.372     0.457     1.351     4.441     0.961
  71      -2.366     2.663    -0.297    -4.800     2.911    -1.891
  72       6.165    -6.294     0.129    -2.193    -5.237     0.006
  73      -2.431     3.175    -0.745     4.669     1.397     3.678
  74       5.046    -6.960     1.915     1.241     5.024     0.016
  75      -3.136     4.601    -1.465    -2.893    -3.073     3.363
  76      -4.510     2.820     1.691     5.740    -2.073    -4.299
  77      -3.749     4.007    -0.258    -6.702     1.950    -3.641
  78      -2.386     2.094     0.292     5.082     1.095     5.087
  79       5.243    -6.459     1.216     0.040    -3.256     0.104
  80      -4.126     3.254     0.872     4.376    -1.272    -4.261
  81      -2.505     3.874    -1.369    -3.209    -2.050     1.293
  82       5.105    -5.129     0.024    -0.924     4.110     0.358
  83      -2.966     3.945    -0.979    -4.366     0.911    -3.998
  84       2.853    -3.737     0.884     0.730    -4.228    -1.088
  85      -4.037     3.544     0.493     4.155     1.269     3.721
  86       4.129    -6.852     2.723     2.914     4.774    -0.863
  87      -3.603     3.921    -0.319    -4.664    -2.093     4.194
  88      -2.671     0.601     2.070     5.983    -2.073    -5.094
 ---------------------------------------------------------------------


 Total hyperfine coupling parameters after diagonalization (MHz)
 (convention: |A_zz| > |A_xx| > |A_yy|)
 ----------------------------------------------------------------------
  ion      A_xx      A_yy      A_zz     asymmetry (A_yy - A_xx)/ A_zz 
 ----------------------------------------------------------------------
   1       1.565     1.099     3.577      -0.130
   2      -0.191    -0.007     2.700       0.068
   3       2.174     1.897     4.521      -0.061
   4       2.545     2.227     5.113      -0.062
   5       1.653     1.248     3.797      -0.107
   6       2.259     1.895     4.564      -0.080
   7       1.387     1.202     3.992      -0.046
   8       1.509     1.131     3.557      -0.106
   9       0.559     0.438     3.214      -0.037
  10       0.741     0.574     3.348      -0.050
  11       1.815     1.474     3.840      -0.089
  12       1.430     1.138     3.597      -0.081
  13       1.166     0.898     3.310      -0.081
  14       1.747     1.402     4.041      -0.085
  15       1.952     1.523     4.104      -0.105
  16       1.491     1.065     3.494      -0.122
  17      15.537    11.417    16.105      -0.256
  18      13.509     9.309    13.685      -0.307
  19      14.632    10.377    14.852      -0.287
  20      13.569     9.325    13.888      -0.306
  21      14.824    10.321    14.828      -0.304
  22      14.174     9.939    14.444      -0.293
  23      13.973    10.022    14.398      -0.274
  24      13.409     9.422    13.705      -0.291
  25     100.150    98.558   102.597      -0.016
  26     101.577    97.646   103.047      -0.038
  27      96.370    95.385    97.403      -0.010
  28      99.436    98.160   101.396      -0.013
  29      93.510    90.466    94.203      -0.032
  30      97.512    96.530    98.408      -0.010
  31      92.937    91.920    94.221      -0.011
  32      98.024    93.156    99.334      -0.049
  33      98.053    96.866    98.941      -0.012
  34      95.806    93.589    96.929      -0.023
  35      98.199    95.868    98.665      -0.024
  36      95.009    90.833    96.365      -0.043
  37      97.730    95.983    98.778      -0.018
  38      94.161    91.691    94.995      -0.026
  39      93.881    92.498    94.269      -0.015
  40      98.255    96.822    99.042      -0.014
  41       4.572     1.990    14.540      -0.178
  42       6.116     1.141    15.486      -0.321
  43       6.210     2.665    18.115      -0.196
  44       1.102    -0.234    12.984      -0.103
  45       5.729    -0.536    16.715      -0.375
  46       5.071     0.004    14.843      -0.341
  47       6.255     0.899    16.943      -0.316
  48       4.618     0.360    15.677      -0.272
  49       5.702     1.454    16.783      -0.253
  50       3.879     0.878    14.886      -0.202
  51       4.521    -0.743    14.384      -0.366
  52       6.398     2.758    18.026      -0.202
  53       5.869     0.433    16.869      -0.322
  54       6.844     2.451    15.980      -0.275
  55       5.071    -0.757    17.555      -0.332
  56       4.973     1.517    14.700      -0.235
  57       7.424     0.712    17.945      -0.374
  58       7.249     2.015    17.953      -0.292
  59       3.457     1.488    16.549      -0.119
  60       4.542     0.663    13.910      -0.279
  61       5.285     2.948    16.632      -0.140
  62       7.077     0.362    16.518      -0.407
  63       4.774     1.377    15.517      -0.219
  64       4.444     1.889    14.431      -0.177
  65       5.711     1.985    13.959      -0.267
  66       6.864     0.382    17.136      -0.378
  67       5.484     0.233    16.262      -0.323
  68       9.087     2.513    19.840      -0.331
  69       8.459     4.009    19.485      -0.228
  70      -1.887     1.416    11.557       0.286
  71       6.679     2.096    14.813      -0.309
  72       5.608     1.383    17.630      -0.240
  73       4.022     1.273    14.092      -0.195
  74       7.640     2.203    18.132      -0.300
  75       4.309     0.868    13.911      -0.247
  76       5.968    -0.306    16.409      -0.382
  77       6.748     1.115    18.333      -0.307
  78       5.823     1.366    16.206      -0.275
  79       6.557     0.692    14.211      -0.413
  80       5.219     0.758    15.004      -0.297
  81       5.145     1.833    12.150      -0.273
  82       4.099     0.828    13.606      -0.240
  83       5.440     2.589    15.826      -0.180
  84       2.718     1.094    11.453      -0.142
  85       5.853     1.619    15.066      -0.281
  86       8.504     0.924    17.368      -0.436
  87       2.910    -0.148    14.299      -0.214
  88       6.778     0.931    17.644      -0.331
 ---------------------------------------------------------------------



--------------------------------------------------------------------------------------------------------


 stress matrix after NEB project (eV)
    -45.76906      0.15333      3.26077
      0.14553    -40.91236      1.37741
      3.23338      1.38536    -59.49562
  FORCES: max atom, RMS     2.134862    1.140586
  FORCE total and by dimension   10.699649    2.022381
  Stress total and by dimension   85.634723   59.495619
     LOOP+:  cpu time  526.7257: real time  527.5477
    4ORBIT:  cpu time    0.0000: real time    0.0000
 


 total charge     
 
# of ion       s       p       d       tot
------------------------------------------
    1        0.049   5.991   0.000   6.040
    2        0.045   5.989   0.000   6.034
    3        0.052   5.994   0.000   6.046
    4        0.055   5.999   0.000   6.054
    5        0.049   5.992   0.000   6.041
    6        0.054   5.997   0.000   6.050
    7        0.048   5.992   0.000   6.040
    8        0.051   5.994   0.000   6.044
    9        0.049   5.992   0.000   6.041
   10        0.052   5.996   0.000   6.048
   11        0.053   5.996   0.000   6.049
   12        0.053   5.994   0.000   6.046
   13        0.054   5.997   0.000   6.051
   14        0.050   5.991   0.000   6.042
   15        0.053   5.996   0.000   6.049
   16        0.054   5.998   0.000   6.052
   17        0.147   6.124   0.081   6.352
   18        0.149   6.128   0.083   6.360
   19        0.149   6.127   0.083   6.359
   20        0.152   6.133   0.087   6.372
   21        0.151   6.132   0.087   6.369
   22        0.147   6.125   0.081   6.353
   23        0.147   6.123   0.080   6.350
   24        0.143   6.118   0.075   6.336
   25        0.373   6.448   4.826  11.647
   26        0.366   6.437   4.809  11.611
   27        0.372   6.450   4.824  11.646
   28        0.365   6.426   4.816  11.607
   29        0.390   6.486   4.857  11.732
   30        0.366   6.433   4.805  11.603
   31        0.388   6.479   4.864  11.731
   32        0.363   6.426   4.803  11.591
   33        0.384   6.473   4.855  11.712
   34        0.405   6.520   4.899  11.824
   35        0.390   6.488   4.865  11.743
   36        0.359   6.423   4.798  11.580
   37        0.380   6.463   4.842  11.685
   38        0.383   6.470   4.847  11.700
   39        0.367   6.430   4.814  11.611
   40        0.378   6.465   4.841  11.684
   41        1.597   3.506   0.000   5.103
   42        1.599   3.533   0.000   5.132
   43        1.600   3.496   0.000   5.097
   44        1.597   3.487   0.000   5.084
   45        1.602   3.494   0.000   5.096
   46        1.599   3.524   0.000   5.123
   47        1.600   3.494   0.000   5.095
   48        1.603   3.521   0.000   5.124
   49        1.600   3.503   0.000   5.103
   50        1.598   3.464   0.000   5.062
   51        1.599   3.505   0.000   5.104
   52        1.601   3.501   0.000   5.102
   53        1.602   3.525   0.000   5.127
   54        1.598   3.531   0.000   5.128
   55        1.601   3.502   0.000   5.103
   56        1.599   3.509   0.000   5.108
   57        1.600   3.500   0.000   5.101
   58        1.601   3.531   0.000   5.132
   59        1.598   3.469   0.000   5.068
   60        1.595   3.494   0.000   5.089
   61        1.597   3.487   0.000   5.084
   62        1.602   3.490   0.000   5.092
   63        1.598   3.494   0.000   5.092
   64        1.598   3.483   0.000   5.080
   65        1.596   3.521   0.000   5.117
   66        1.600   3.520   0.000   5.119
   67        1.600   3.520   0.000   5.120
   68        1.601   3.506   0.000   5.107
   69        1.603   3.519   0.000   5.123
   70        1.596   3.474   0.000   5.071
   71        1.602   3.544   0.000   5.145
   72        1.604   3.522   0.000   5.126
   73        1.598   3.524   0.000   5.122
   74        1.600   3.517   0.000   5.118
   75        1.598   3.480   0.000   5.078
   76        1.599   3.493   0.000   5.091
   77        1.604   3.523   0.000   5.126
   78        1.600   3.523   0.000   5.123
   79        1.597   3.518   0.000   5.115
   80        1.598   3.485   0.000   5.083
   81        1.595   3.508   0.000   5.102
   82        1.598   3.519   0.000   5.117
   83        1.597   3.496   0.000   5.094
   84        1.595   3.495   0.000   5.089
   85        1.599   3.515   0.000   5.113
   86        1.602   3.499   0.000   5.101
   87        1.597   3.480   0.000   5.078
   88        1.600   3.512   0.000   5.112
--------------------------------------------------
tot         84.796 416.489  78.023 579.308
 


 magnetization (x)
 
# of ion       s       p       d       tot
------------------------------------------
    1        0.002   0.000   0.000   0.002
    2        0.001   0.000   0.000   0.001
    3        0.002   0.000   0.000   0.002
    4        0.002   0.000   0.000   0.003
    5        0.002  -0.000   0.000   0.002
    6        0.002   0.000   0.000   0.002
    7        0.002   0.001   0.000   0.002
    8        0.001   0.000   0.000   0.002
    9        0.001   0.001   0.000   0.002
   10        0.001   0.001   0.000   0.002
   11        0.002   0.000   0.000   0.002
   12        0.002  -0.000   0.000   0.001
   13        0.001  -0.000   0.000   0.001
   14        0.002   0.000   0.000   0.002
   15        0.002   0.000   0.000   0.002
   16        0.001   0.000   0.000   0.001
   17        0.008   0.003   0.001   0.012
   18        0.007   0.002   0.001   0.011
   19        0.008   0.003   0.001   0.012
   20        0.007   0.002   0.001   0.010
   21        0.007   0.002   0.001   0.010
   22        0.007   0.002   0.001   0.011
   23        0.007   0.002   0.001   0.010
   24        0.007   0.002   0.001   0.010
   25        0.016   0.031   2.772   2.819
   26        0.017   0.031   2.782   2.829
   27        0.015   0.030   2.764   2.810
   28        0.015   0.029   2.772   2.816
   29        0.014   0.030   2.724   2.769
   30        0.016   0.030   2.778   2.824
   31        0.014   0.029   2.718   2.762
   32        0.015   0.028   2.782   2.824
   33        0.016   0.031   2.732   2.779
   34        0.015   0.033   2.691   2.739
   35        0.016   0.032   2.724   2.772
   36        0.014   0.028   2.776   2.819
   37        0.016   0.031   2.738   2.785
   38        0.014   0.030   2.737   2.781
   39        0.014   0.028   2.773   2.815
   40        0.016   0.031   2.744   2.791
   41        0.002   0.027   0.000   0.029
   42        0.002   0.043   0.000   0.045
   43        0.002   0.036   0.000   0.039
   44        0.001   0.011   0.000   0.013
   45        0.002   0.031   0.000   0.033
   46        0.002   0.029   0.000   0.031
   47        0.002   0.031   0.000   0.033
   48        0.002   0.030   0.000   0.032
   49        0.002   0.036   0.000   0.038
   50        0.002   0.021   0.000   0.022
   51        0.002   0.024   0.000   0.025
   52        0.002   0.042   0.000   0.045
   53        0.002   0.044   0.000   0.046
   54        0.002   0.044   0.000   0.046
   55        0.002   0.038   0.000   0.040
   56        0.002   0.032   0.000   0.034
   57        0.002   0.046   0.000   0.048
   58        0.002   0.052   0.000   0.054
   59        0.002   0.029   0.000   0.031
   60        0.002   0.017   0.000   0.019
   61        0.002   0.033   0.000   0.035
   62        0.002   0.037   0.000   0.039
   63        0.002   0.024   0.000   0.026
   64        0.002   0.019   0.000   0.021
   65        0.002   0.034   0.000   0.036
   66        0.002   0.054   0.000   0.056
   67        0.002   0.041   0.000   0.042
   68        0.003   0.055   0.000   0.058
   69        0.003   0.059   0.000   0.061
   70        0.001  -0.007   0.000  -0.005
   71        0.002   0.041   0.000   0.042
   72        0.002   0.038   0.000   0.040
   73        0.002   0.024   0.000   0.026
   74        0.002   0.054   0.000   0.057
   75        0.002   0.015   0.000   0.017
   76        0.002   0.035   0.000   0.037
   77        0.002   0.054   0.000   0.056
   78        0.002   0.035   0.000   0.037
   79        0.002   0.042   0.000   0.043
   80        0.002   0.028   0.000   0.030
   81        0.002   0.017   0.000   0.018
   82        0.002   0.028   0.000   0.030
   83        0.002   0.027   0.000   0.029
   84        0.002   0.014   0.000   0.016
   85        0.002   0.036   0.000   0.038
   86        0.002   0.048   0.000   0.050
   87        0.002   0.021   0.000   0.022
   88        0.002   0.048   0.000   0.050
--------------------------------------------------
tot          0.421   2.121  44.016  46.559
 

 total amount of memory used by VASP MPI-rank0    88173. kBytes
=======================================================================

   base      :      30000. kBytes
   nonlr-proj:      13664. kBytes
   fftplans  :        992. kBytes
   grid      :      21513. kBytes
   one-center:       2737. kBytes
   wavefun   :      19267. kBytes
 
  
  
 General timing and accounting informations for this job:
 ========================================================
  
                  Total CPU time used (sec):      545.894
                            User time (sec):      540.632
                          System time (sec):        5.262
                         Elapsed time (sec):      549.033
  
                   Maximum memory used (kb):      182012.
                   Average memory used (kb):           0.
  
                          Minor page faults:       281679
                          Major page faults:            0
                 Voluntary context switches:         3167
