 vasp.5.4.4.18Apr17-6-g9f103f2a35 (build Dec 02 2020 12:53:39) complex          
  
 executed on             LinuxIFC date 2021.07.31  05:07:22
 running on  112 total cores
 distrk:  each k-point on  112 cores,    1 groups
 distr:  one band on NCORES_PER_BAND=   1 cores,  112 groups


--------------------------------------------------------------------------------------------------------


 INCAR:
 POTCAR:    PAW_PBE Na_pv 19Sep2006               
 POTCAR:    PAW_PBE Mg_pv 13Apr2007               
 POTCAR:    PAW_PBE Mn_pv 02Aug2007               
 POTCAR:    PAW_PBE O 08Apr2002                   

 ----------------------------------------------------------------------------- 
|                                                                             |
|           W    W    AA    RRRRR   N    N  II  N    N   GGGG   !!!           |
|           W    W   A  A   R    R  NN   N  II  NN   N  G    G  !!!           |
|           W    W  A    A  R    R  N N  N  II  N N  N  G       !!!           |
|           W WW W  AAAAAA  RRRRR   N  N N  II  N  N N  G  GGG   !            |
|           WW  WW  A    A  R   R   N   NN  II  N   NN  G    G                |
|           W    W  A    A  R    R  N    N  II  N    N   GGGG   !!!           |
|                                                                             |
|      For optimal performance we recommend to set                            |
|        NCORE= 4 - approx SQRT( number of cores)                             |
|      NCORE specifies how many cores store one orbital (NPAR=cpu/NCORE).     |
|      This setting can  greatly improve the performance of VASP for DFT.     |
|      The default,   NCORE=1            might be grossly inefficient         |
|      on modern multi-core architectures or massively parallel machines.     |
|      Do your own testing !!!!                                               |
|      Unfortunately you need to use the default for GW and RPA calculations. |
|      (for HF NCORE is supported but not extensively tested yet)             |
|                                                                             |
 ----------------------------------------------------------------------------- 

 POTCAR:    PAW_PBE Na_pv 19Sep2006               
   VRHFIN =Na: p6s1                                                             
   LEXCH  = PE                                                                  
   EATOM  =   766.0439 eV,   56.3026 Ry                                         
                                                                                
   TITEL  = PAW_PBE Na_pv 19Sep2006                                             
   LULTRA =        F    use ultrasoft PP ?                                      
   IUNSCR =        1    unscreen: 0-lin 1-nonlin 2-no                           
   RPACOR =    1.800    partial core radius                                     
   POMASS =   22.990; ZVAL   =    7.000    mass and valenz                      
   RCORE  =    2.200    outmost cutoff radius                                   
   RWIGS  =    2.200; RWIGS  =    1.164    wigner-seitz radius (au A)           
   ENMAX  =  259.561; ENMIN  =  194.671 eV                                      
   ICORE  =        2    local potential                                         
   LCOR   =        T    correct aug charges                                     
   LPAW   =        T    paw PP                                                  
   EAUG   =  368.056                                                            
   DEXC   =    0.000                                                            
   RMAX   =    2.245    core radius for proj-oper                               
   RAUG   =    1.300    factor for augmentation sphere                          
   RDEP   =    2.259    radius for radial grids                                 
   RDEPT  =    1.738    core radius for aug-charge                              
                                                                                
   Atomic configuration                                                         
    5 entries                                                                   
     n  l   j            E        occ.                                          
     1  0  0.50     -1033.6933   2.0000                                         
     2  0  0.50       -56.7526   2.0000                                         
     2  1  1.50       -28.6721   6.0000                                         
     3  0  0.50        -2.7440   1.0000                                         
     3  2  1.50        -1.3606   0.0000                                         
   Description                                                                  
     l       E           TYP  RCUT    TYP  RCUT                                 
     1    -28.6720912     23  2.000                                             
     1      6.8029130     23  2.000                                             
     0     -2.7439560     23  2.200                                             
     0     34.0145650     23  2.200                                             
     2     -1.3605826     23  2.200                                             
  local pseudopotential read in
  partial core-charges read in
  partial kinetic energy density read in
  atomic valenz-charges read in
  non local Contribution for L=           1  read in
    real space projection operators read in
  non local Contribution for L=           1  read in
    real space projection operators read in
  non local Contribution for L=           0  read in
    real space projection operators read in
  non local Contribution for L=           0  read in
    real space projection operators read in
    PAW grid and wavefunctions read in
 
   number of l-projection  operators is LMAX  =           4
   number of lm-projection operators is LMMAX =           8
 
 POTCAR:    PAW_PBE Mg_pv 13Apr2007               
   VRHFIN =Mg: p6s2                                                             
   LEXCH  = PE                                                                  
   EATOM  =  1056.7344 eV,   77.6678 Ry                                         
                                                                                
   TITEL  = PAW_PBE Mg_pv 13Apr2007                                             
   LULTRA =        F    use ultrasoft PP ?                                      
   IUNSCR =        1    unscreen: 0-lin 1-nonlin 2-no                           
   RPACOR =    1.500    partial core radius                                     
   POMASS =   24.305; ZVAL   =    8.000    mass and valenz                      
   RCORE  =    2.000    outmost cutoff radius                                   
   RWIGS  =    2.000; RWIGS  =    1.058    wigner-seitz radius (au A)           
   ENMAX  =  403.929; ENMIN  =  302.947 eV                                      
   RCLOC  =    1.506    cutoff for local pot                                    
   LCOR   =        T    correct aug charges                                     
   LPAW   =        T    paw PP                                                  
   EAUG   =  758.780                                                            
   DEXC   =    0.000                                                            
   RMAX   =    2.045    core radius for proj-oper                               
   RAUG   =    1.300    factor for augmentation sphere                          
   RDEP   =    2.025    radius for radial grids                                 
   RDEPT  =    1.557    core radius for aug-charge                              
                                                                                
   Atomic configuration                                                         
    5 entries                                                                   
     n  l   j            E        occ.                                          
     1  0  0.50     -1259.6230   2.0000                                         
     2  0  0.50       -79.8442   2.0000                                         
     2  1  1.50       -46.6121   6.0000                                         
     3  0  0.50        -4.7055   2.0000                                         
     3  2  1.50        -1.3606   0.0000                                         
   Description                                                                  
     l       E           TYP  RCUT    TYP  RCUT                                 
     1    -46.6121073     23  1.600                                             
     1      2.7211652     23  1.600                                             
     0     -4.7054661     23  2.000                                             
     0     61.2262170     23  2.000                                             
     2     -1.3605826     23  2.000                                             
  local pseudopotential read in
  partial core-charges read in
  partial kinetic energy density read in
  atomic valenz-charges read in
  non local Contribution for L=           1  read in
    real space projection operators read in
  non local Contribution for L=           1  read in
    real space projection operators read in
  non local Contribution for L=           0  read in
    real space projection operators read in
  non local Contribution for L=           0  read in
    real space projection operators read in
  non local Contribution for L=           2  read in
    real space projection operators read in
    PAW grid and wavefunctions read in
 
   number of l-projection  operators is LMAX  =           5
   number of lm-projection operators is LMMAX =          13
 
 POTCAR:    PAW_PBE Mn_pv 02Aug2007               
   VRHFIN =Mn: 3p4s3d                                                           
   LEXCH  = PE                                                                  
   EATOM  =  2025.2664 eV,  148.8529 Ry                                         
                                                                                
   TITEL  = PAW_PBE Mn_pv 02Aug2007                                             
   LULTRA =        F    use ultrasoft PP ?                                      
   IUNSCR =        1    unscreen: 0-lin 1-nonlin 2-no                           
   RPACOR =    2.080    partial core radius                                     
   POMASS =   54.938; ZVAL   =   13.000    mass and valenz                      
   RCORE  =    2.300    outmost cutoff radius                                   
   RWIGS  =    2.500; RWIGS  =    1.323    wigner-seitz radius (au A)           
   ENMAX  =  269.864; ENMIN  =  202.398 eV                                      
   ICORE  =        3    local potential                                         
   LCOR   =        T    correct aug charges                                     
   LPAW   =        T    paw PP                                                  
   EAUG   =  569.085                                                            
   DEXC   =    0.000                                                            
   RMAX   =    2.343    core radius for proj-oper                               
   RAUG   =    1.300    factor for augmentation sphere                          
   RDEP   =    2.338    radius for radial grids                                 
   RDEPT  =    1.798    core radius for aug-charge                              
                                                                                
   Atomic configuration                                                         
    8 entries                                                                   
     n  l   j            E        occ.                                          
     1  0  0.50     -6424.8287   2.0000                                         
     2  0  0.50      -739.1154   2.0000                                         
     2  1  1.50      -625.3949   6.0000                                         
     3  0  0.50       -81.6100   2.0000                                         
     3  1  1.50       -50.4667   6.0000                                         
     3  2  2.50        -3.3745   6.0000                                         
     4  0  0.50        -4.1331   1.0000                                         
     4  3  2.50        -1.3606   0.0000                                         
   Description                                                                  
     l       E           TYP  RCUT    TYP  RCUT                                 
     1    -50.4666628     23  2.000                                             
     1     -1.3605826     23  2.000                                             
     2     -3.3744729     23  2.300                                             
     2     -4.7350555     23  2.300                                             
     0     -4.1331431     23  2.300                                             
     0      7.6656591     23  2.300                                             
     3      9.5240782     23  2.300                                             
  local pseudopotential read in
  partial core-charges read in
  partial kinetic energy density read in
  atomic valenz-charges read in
  non local Contribution for L=           1  read in
    real space projection operators read in
  non local Contribution for L=           1  read in
    real space projection operators read in
  non local Contribution for L=           2  read in
    real space projection operators read in
  non local Contribution for L=           2  read in
    real space projection operators read in
  non local Contribution for L=           0  read in
    real space projection operators read in
  non local Contribution for L=           0  read in
    real space projection operators read in
    PAW grid and wavefunctions read in
 
   number of l-projection  operators is LMAX  =           6
   number of lm-projection operators is LMMAX =          18
 
 POTCAR:    PAW_PBE O 08Apr2002                   
   VRHFIN =O: s2p4                                                              
   LEXCH  = PE                                                                  
   EATOM  =   432.3788 eV,   31.7789 Ry                                         
                                                                                
   TITEL  = PAW_PBE O 08Apr2002                                                 
   LULTRA =        F    use ultrasoft PP ?                                      
   IUNSCR =        1    unscreen: 0-lin 1-nonlin 2-no                           
   RPACOR =    1.200    partial core radius                                     
   POMASS =   16.000; ZVAL   =    6.000    mass and valenz                      
   RCORE  =    1.520    outmost cutoff radius                                   
   RWIGS  =    1.550; RWIGS  =    0.820    wigner-seitz radius (au A)           
   ENMAX  =  400.000; ENMIN  =  300.000 eV                                      
   ICORE  =        2    local potential                                         
   LCOR   =        T    correct aug charges                                     
   LPAW   =        T    paw PP                                                  
   EAUG   =  605.392                                                            
   DEXC   =    0.000                                                            
   RMAX   =    1.553    core radius for proj-oper                               
   RAUG   =    1.300    factor for augmentation sphere                          
   RDEP   =    1.550    radius for radial grids                                 
   RDEPT  =    1.329    core radius for aug-charge                              
                                                                                
   Atomic configuration                                                         
    4 entries                                                                   
     n  l   j            E        occ.                                          
     1  0  0.50      -514.6923   2.0000                                         
     2  0  0.50       -23.9615   2.0000                                         
     2  1  0.50        -9.0305   4.0000                                         
     3  2  1.50        -9.5241   0.0000                                         
   Description                                                                  
     l       E           TYP  RCUT    TYP  RCUT                                 
     0    -23.9615318     23  1.200                                             
     0     -9.5240782     23  1.200                                             
     1     -9.0304911     23  1.520                                             
     1      8.1634956     23  1.520                                             
     2     -9.5240782      7  1.500                                             
  local pseudopotential read in
  partial core-charges read in
  partial kinetic energy density read in
  kinetic energy density of atom read in
  atomic valenz-charges read in
  non local Contribution for L=           0  read in
    real space projection operators read in
  non local Contribution for L=           0  read in
    real space projection operators read in
  non local Contribution for L=           1  read in
    real space projection operators read in
  non local Contribution for L=           1  read in
    real space projection operators read in
    PAW grid and wavefunctions read in
 
   number of l-projection  operators is LMAX  =           4
   number of lm-projection operators is LMMAX =           8
 
 Optimization of the real space projectors (new method)

 maximal supplied QI-value         = 17.01
 optimisation between [QCUT,QGAM] = [ 10.20, 20.41] = [ 29.16,116.64] Ry 
 Optimized for a Real-space Cutoff    1.30 Angstroem

   l    n(q)    QCUT    max X(q) W(low)/X(q) W(high)/X(q)  e(spline) 
   1      7    10.205     4.940    0.23E-03    0.84E-03    0.11E-06
   1      7    10.205     6.253    0.40E-03    0.13E-02    0.18E-06
   0      8    10.205    37.438    0.23E-03    0.37E-03    0.42E-07
   0      8    10.205     9.606    0.16E-03    0.26E-03    0.31E-07
 Optimization of the real space projectors (new method)

 maximal supplied QI-value         = 18.90
 optimisation between [QCUT,QGAM] = [ 10.20, 20.41] = [ 29.16,116.64] Ry 
 Optimized for a Real-space Cutoff    1.26 Angstroem

   l    n(q)    QCUT    max X(q) W(low)/X(q) W(high)/X(q)  e(spline) 
   1      7    10.205     2.974    0.63E-04    0.14E-03    0.13E-06
   1      7    10.205     4.279    0.11E-03    0.45E-03    0.24E-06
   0      8    10.205    16.381    0.44E-03    0.15E-03    0.55E-07
   0      8    10.205     5.611    0.31E-03    0.11E-03    0.40E-07
   2      7    10.205     4.652    0.50E-03    0.47E-03    0.57E-07
 Optimization of the real space projectors (new method)

 maximal supplied QI-value         = 16.25
 optimisation between [QCUT,QGAM] = [ 10.24, 20.48] = [ 29.35,117.42] Ry 
 Optimized for a Real-space Cutoff    1.34 Angstroem

   l    n(q)    QCUT    max X(q) W(low)/X(q) W(high)/X(q)  e(spline) 
   1      8    10.239     3.658    0.23E-03    0.30E-03    0.98E-07
   1      8    10.239     5.612    0.32E-03    0.65E-03    0.21E-06
   2      7    10.239    55.373    0.42E-03    0.45E-03    0.65E-07
   2      7    10.239    50.863    0.43E-03    0.48E-03    0.67E-07
   0      8    10.239    79.536    0.11E-03    0.21E-03    0.56E-07
   0      8    10.239    38.668    0.96E-04    0.19E-03    0.52E-07
 Optimization of the real space projectors (new method)

 maximal supplied QI-value         = 24.76
 optimisation between [QCUT,QGAM] = [ 10.15, 20.30] = [ 28.85,115.39] Ry 
 Optimized for a Real-space Cutoff    1.38 Angstroem

   l    n(q)    QCUT    max X(q) W(low)/X(q) W(high)/X(q)  e(spline) 
   0      8    10.150    20.381    0.22E-03    0.32E-03    0.29E-06
   0      8    10.150    15.268    0.23E-03    0.35E-03    0.30E-06
   1      8    10.150     5.964    0.46E-03    0.53E-03    0.21E-06
   1      8    10.150     5.382    0.38E-03    0.45E-03    0.19E-06
  PAW_PBE Na_pv 19Sep2006               :
 energy of atom  1       EATOM= -766.0439
 kinetic energy error for atom=    0.0103 (will be added to EATOM!!)
  PAW_PBE Mg_pv 13Apr2007               :
 energy of atom  2       EATOM=-1056.7344
 kinetic energy error for atom=    0.0820 (will be added to EATOM!!)
  PAW_PBE Mn_pv 02Aug2007               :
 energy of atom  3       EATOM=-2025.2664
 kinetic energy error for atom=    0.0284 (will be added to EATOM!!)
  PAW_PBE O 08Apr2002                   :
 energy of atom  4       EATOM= -432.3788
 kinetic energy error for atom=    0.1156 (will be added to EATOM!!)
 
 
 POSCAR: Na Mg Mn  O                             
  positions in cartesian coordinates
  No initial velocities read in

 METAGGA = SCAN     LMAXTAU =  6    LMIXTAU =  F

 exchange correlation table for  LEXCH =        8
   RHO(1)=    0.500       N(1)  =     2000
   RHO(2)=  100.500       N(2)  =     4000

 VTST: version 3.2, (02/03/18)

 CHAIN: initializing optimizer
 
 OPT: Using VASP Dynamics algorithm
 CHAIN: Read ICHAIN            0
 
 POSCAR: Na Mg Mn  O                             
  positions in cartesian coordinates
  No initial velocities read in
 


--------------------------------------------------------------------------------------------------------


 ion  position               nearest neighbor table
   1  0.766  0.565  0.256-  52 2.19  66 2.36
   2  0.873  0.510  0.746-  68 2.28  57 2.29
   3  0.117  0.397  0.752-  83 2.29  61 2.30  80 2.34
   4  0.073  0.862  0.750-  72 2.34  70 2.37  73 2.38
   5  0.547  0.223  0.248-  43 2.24  51 2.29  42 2.29  52 2.36  26 2.95
   6  0.579  0.706  0.256-  87 2.23  74 2.31
   7  0.301  0.751  0.753-  84 2.23  83 2.34  81 2.34
   8  0.357  0.233  0.745-  48 2.25  45 2.36
   9  0.263  0.360  0.247-  50 2.25  41 2.30  32 2.80
  10  0.780  0.058  0.247-  54 2.17  53 2.29  88 2.37
  11  0.382  0.864  0.244-  86 2.28  77 2.29  42 2.34
  12  0.609  0.095  0.750-  46 2.25  49 2.32  31 2.89
  13  0.593  0.570  0.753-  71 2.31  82 2.35  85 2.36  33 2.76  35 2.93
  14  0.879  0.030  0.762-  72 2.27  59 2.32  61 2.35  56 2.37
  15  0.086  0.030  0.253-  76 2.25  63 2.37  67 2.37  27 2.82  25 2.95
  16  0.093  0.568  0.266-  86 2.22  75 2.28  77 2.36  39 2.67  37 2.92
  17  0.738  0.376  0.001-  71 2.00  49 2.05  66 2.08  60 2.09  53 2.13  43 2.17  30 2.81  29 2.85

  18  0.432  0.223  0.494-  46 2.03  51 2.03  50 2.06  52 2.16  45 2.17  44 2.23
  19  0.241  0.374  0.991-  48 1.92  61 2.04  41 2.07  55 2.08  78 2.10  83 2.17  33 2.82  26 2.83

  20  0.939  0.230  0.493-  64 1.94  58 2.01  63 2.02  57 2.05  62 2.11  56 2.15  39 2.82  32 2.84
                            27 2.84
  21  0.231  0.870  0.003-  77 1.98  67 2.03  73 2.04  47 2.09  42 2.11  84 2.14  34 2.83
  22  0.928  0.732  0.491-  68 1.99  75 2.00  76 2.01  74 2.01  69 2.05  70 2.14  40 2.79  27 2.83

  23  0.735  0.870  0.001-  65 1.94  85 1.97  54 2.05  79 2.06  72 2.11  59 2.13  38 2.82  33 2.85

  24  0.434  0.732  0.493-  81 2.02  88 2.03  86 2.07  82 2.09  80 2.09  87 2.14  31 2.83
  25  0.065  0.044  0.992-  72 1.92  47 1.96  41 1.96  67 1.97  54 1.98  61 2.02  30 2.92  34 2.92
                            15 2.95  26 2.98
  26  0.407  0.216  0.015-  41 1.87  43 1.91  49 1.92  48 1.93  42 1.97  47 2.04  19 2.83  33 2.83
                            29 2.90   5 2.95  25 2.98
  27  0.094  0.057  0.503-  63 1.86  69 1.89  58 1.90  50 1.92  44 1.94  76 1.96  40 2.81  15 2.82
                            22 2.83  20 2.84  36 2.91  32 2.97
  28  0.766  0.393  0.498-  75 1.88  57 1.89  62 1.91  46 1.92  68 1.94  52 1.97  39 2.79  31 2.91
                            35 2.94
  29  0.573  0.047  0.014-  42 1.88  53 1.92  84 1.93  79 1.95  49 1.96  59 1.96  30 2.83  17 2.85
                            38 2.87  26 2.90
  30  0.899  0.214  0.005-  59 1.86  53 1.90  60 1.94  54 1.96  55 1.96  61 2.03  17 2.81  29 2.83
                            37 2.83  25 2.92
  31  0.599  0.058  0.494-  62 1.91  56 1.91  81 1.93  51 1.94  88 1.95  46 2.02  24 2.83  12 2.89
                            40 2.90  28 2.91  36 2.92
  32  0.266  0.399  0.494-  64 1.87  87 1.89  50 1.94  45 1.95  80 1.96  58 2.03   9 2.80  20 2.84
                            35 2.86  39 2.89  27 2.97
  33  0.566  0.542  0.998-  85 1.87  48 1.88  71 1.91  65 1.94  43 1.95  78 1.96  13 2.76  19 2.82
                            26 2.83  23 2.85  38 2.87  34 2.93
  34  0.904  0.708  0.997-  67 1.85  73 1.87  65 1.94  66 1.95  71 1.98  72 2.02  21 2.83  37 2.88
                            25 2.92  33 2.93
  35  0.596  0.562  0.492-  82 1.86  87 1.88  45 1.89  74 1.93  52 1.93  68 2.00  32 2.86  40 2.88
                            13 2.93  28 2.94
  36  0.263  0.892  0.494-  76 1.84  86 1.88  44 1.94  81 1.94  51 1.95  70 1.98  27 2.91  31 2.92
                            39 2.94
  37  0.067  0.540  0.007-  55 1.83  60 1.90  66 1.90  77 1.92  73 1.97  83 1.97  30 2.83  34 2.88
                            16 2.92  38 2.97
  38  0.410  0.717  0.003-  84 1.86  85 1.87  78 1.90  79 1.93  83 1.97  77 2.00  23 2.82  33 2.87
                            29 2.87  37 2.97
  39  0.087  0.554  0.504-  57 1.86  70 1.90  75 1.91  80 1.93  64 1.95  86 1.99  16 2.67  28 2.79
                            20 2.82  32 2.89  36 2.94
  40  0.770  0.895  0.497-  69 1.85  74 1.89  63 1.91  56 1.92  88 1.94  82 1.97  22 2.79  27 2.81
                            35 2.88  31 2.90
  41  0.233  0.197  0.092-  26 1.87  25 1.96  19 2.07   9 2.30
  42  0.413  0.047  0.101-  29 1.88  26 1.97  21 2.11   5 2.29  11 2.34
  43  0.560  0.385  0.105-  26 1.91  33 1.95  17 2.17   5 2.24
  44  0.243  0.035  0.598-  36 1.94  27 1.94  18 2.23
  45  0.436  0.414  0.589-  35 1.89  32 1.95  18 2.17   8 2.36
  46  0.607  0.231  0.591-  28 1.92  31 2.02  18 2.03  12 2.25
  47  0.241  0.054  0.907-  25 1.96  26 2.04  21 2.09
  48  0.412  0.374  0.914-  33 1.88  19 1.92  26 1.93   8 2.25
  49  0.554  0.198  0.915-  26 1.92  29 1.96  17 2.05  12 2.32
  50  0.250  0.223  0.410-  27 1.92  32 1.94  18 2.06   9 2.25
  51  0.433  0.050  0.400-  31 1.94  36 1.95  18 2.03   5 2.29
  52  0.615  0.412  0.397-  35 1.93  28 1.97  18 2.16   1 2.19   5 2.36
  53  0.742  0.201  0.107-  30 1.90  29 1.92  17 2.13  10 2.29
  54  0.907  0.049  0.093-  30 1.96  25 1.98  23 2.05  10 2.17
  55  0.071  0.384  0.090-  37 1.83  30 1.96  19 2.08
  56  0.751  0.046  0.589-  31 1.91  40 1.92  20 2.15  14 2.37
  57  0.926  0.397  0.589-  39 1.86  28 1.89  20 2.05   2 2.29
  58  0.103  0.223  0.593-  27 1.90  20 2.01  32 2.03
  59  0.740  0.062  0.914-  30 1.86  29 1.96  23 2.13  14 2.32
  60  0.921  0.382  0.907-  37 1.90  30 1.94  17 2.09
  61  0.058  0.211  0.895-  25 2.02  30 2.03  19 2.04   3 2.30  14 2.35
  62  0.753  0.228  0.404-  28 1.91  31 1.91  20 2.11
  63  0.938  0.051  0.408-  27 1.86  40 1.91  20 2.02  15 2.37
  64  0.106  0.400  0.409-  32 1.87  20 1.94  39 1.95
  65  0.737  0.703  0.087-  34 1.94  33 1.94  23 1.94
  66  0.914  0.554  0.097-  37 1.90  34 1.95  17 2.08   1 2.36
  67  0.050  0.871  0.086-  34 1.85  25 1.97  21 2.03  15 2.37
  68  0.765  0.559  0.585-  28 1.94  22 1.99  35 2.00   2 2.28
  69  0.927  0.902  0.590-  40 1.85  27 1.89  22 2.05
  70  0.105  0.724  0.592-  39 1.90  36 1.98  22 2.14   4 2.37
  71  0.728  0.542  0.909-  33 1.91  34 1.98  17 2.00  13 2.31
  72  0.914  0.879  0.895-  25 1.92  34 2.02  23 2.11  14 2.27   4 2.34
  73  0.057  0.697  0.909-  34 1.87  37 1.97  21 2.04   4 2.38
  74  0.754  0.732  0.402-  40 1.89  35 1.93  22 2.01   6 2.31
  75  0.927  0.553  0.411-  28 1.88  39 1.91  22 2.00  16 2.28
  76  0.113  0.904  0.409-  36 1.84  27 1.96  22 2.01  15 2.25
  77  0.233  0.703  0.095-  37 1.92  21 1.98  38 2.00  11 2.29  16 2.36
  78  0.409  0.556  0.094-  38 1.90  33 1.96  19 2.10
  79  0.566  0.876  0.102-  38 1.93  29 1.95  23 2.06
  80  0.255  0.557  0.592-  39 1.93  32 1.96  24 2.09   3 2.34
  81  0.432  0.903  0.588-  31 1.93  36 1.94  24 2.02   7 2.34
  82  0.607  0.720  0.587-  35 1.86  40 1.97  24 2.09  13 2.35
  83  0.239  0.567  0.904-  38 1.97  37 1.97  19 2.17   3 2.29   7 2.34
  84  0.426  0.882  0.916-  38 1.86  29 1.93  21 2.14   7 2.23
  85  0.560  0.701  0.916-  33 1.87  38 1.87  23 1.97  13 2.36
  86  0.248  0.724  0.407-  36 1.88  39 1.99  24 2.07  16 2.22  11 2.28
  87  0.431  0.544  0.399-  35 1.88  32 1.89  24 2.14   6 2.23
  88  0.612  0.901  0.400-  40 1.94  31 1.95  24 2.03  10 2.37
 
  LATTYP: Found a hexagonal cell.
 ALAT       =    10.0190000534
 C/A-ratio  =     1.1196726572
  
  Lattice vectors:
  
 A1 = (  10.0190000534,   0.0000000000,   0.0000000000)
 A2 = (  -5.0095000267,   8.6767085668,   0.0000000000)
 A3 = (   0.0000000000,   0.0000000000,  11.2180004120)


Analysis of symmetry for initial positions (statically):
=====================================================================
 Subroutine PRICEL returns:
 Original cell was already a primitive cell.
 

 Routine SETGRP: Setting up the symmetry group for a 
 hexagonal supercell.


 Subroutine GETGRP returns: Found  1 space group operations
 (whereof  1 operations were pure point group operations)
 out of a pool of 24 trial point group operations.


The static configuration has the point symmetry C_1 .


Analysis of symmetry for dynamics (positions and initial velocities):
=====================================================================
 Subroutine PRICEL returns:
 Original cell was already a primitive cell.
 

 Routine SETGRP: Setting up the symmetry group for a 
 hexagonal supercell.


 Subroutine GETGRP returns: Found  1 space group operations
 (whereof  1 operations were pure point group operations)
 out of a pool of 24 trial point group operations.


The dynamic configuration has the point symmetry C_1 .


Analysis of structural, dynamic, and magnetic symmetry:
=====================================================================
 Subroutine PRICEL returns:
 Original cell was already a primitive cell.
 

 Routine SETGRP: Setting up the symmetry group for a 
 hexagonal supercell.


 Subroutine GETGRP returns: Found  1 space group operations
 (whereof  1 operations were pure point group operations)
 out of a pool of 24 trial point group operations.


The magnetic configuration has the point symmetry C_1 .


 Subroutine INISYM returns: Found  1 space group operations
 (whereof  1 operations are pure point group operations),
 and found     1 'primitive' translations

 
 

Automatic generation of k-mesh.
 generate k-points for:    2    2    2
Space group operators:
 irot       det(A)        alpha          n_x          n_y          n_z        tau_x        tau_y        tau_z
    1     1.000000     0.000000     1.000000     0.000000     0.000000     0.000000     0.000000     0.000000
 
 Subroutine IBZKPT returns following result:
 ===========================================
 
 Found      8 irreducible k-points:
 
 Following reciprocal coordinates:
            Coordinates               Weight
  0.000000  0.000000  0.000000      1.000000
  0.500000 -0.000000 -0.000000      1.000000
  0.000000  0.500000  0.000000      1.000000
  0.500000  0.500000 -0.000000      1.000000
  0.000000  0.000000  0.500000      1.000000
  0.500000 -0.000000  0.500000      1.000000
  0.000000  0.500000  0.500000      1.000000
  0.500000  0.500000  0.500000      1.000000
 
 Following cartesian coordinates:
            Coordinates               Weight
  0.000000  0.000000  0.000000      1.000000
  0.049905  0.028813 -0.000000      1.000000
  0.000000  0.057626  0.000000      1.000000
  0.049905  0.086438 -0.000000      1.000000
  0.000000  0.000000  0.044571      1.000000
  0.049905  0.028813  0.044571      1.000000
  0.000000  0.057626  0.044571      1.000000
  0.049905  0.086438  0.044571      1.000000
 


--------------------------------------------------------------------------------------------------------




 Dimension of arrays:
   k-points           NKPTS =      8   k-points in BZ     NKDIM =      8   number of bands    NBANDS=    448
   number of dos      NEDOS =    301   number of ions     NIONS =     88
   non local maximal  LDIM  =      6   non local SUM 2l+1 LMDIM =     18
   total plane-waves  NPLWV = 140000
   max r-space proj   IRMAX =   1632   max aug-charges    IRDMAX=   4555
   dimension x,y,z NGX =    50 NGY =   50 NGZ =   56
   dimension x,y,z NGXF=   100 NGYF=  100 NGZF=  112
   support grid    NGXF=   100 NGYF=  100 NGZF=  112
   ions per type =              16   8  16  48
   NGX,Y,Z   is equivalent  to a cutoff of   8.30,  8.30,  8.30 a.u.
   NGXF,Y,Z  is equivalent  to a cutoff of  16.59, 16.59, 16.60 a.u.

 SYSTEM =  unknown system                          
 POSCAR =  Na Mg Mn  O                             

 Startparameter for this run:
   NWRITE =      2    write-flag & timer
   PREC   = normal    normal or accurate (medium, high low for compatibility)
   ISTART =      0    job   : 0-new  1-cont  2-samecut
   ICHARG =      1    charge: 1-file 2-atom 10-const
   ISPIN  =      2    spin polarized calculation?
   LNONCOLLINEAR =      F non collinear calculations
   LSORBIT =      F    spin-orbit coupling
   INIWAV =      1    electr: 0-lowe 1-rand  2-diag
   LASPH  =      T    aspherical Exc in radial PAW
   METAGGA=      F    non-selfconsistent MetaGGA calc.

 Electronic Relaxation 1
   ENCUT  =  400.0 eV  29.40 Ry    5.42 a.u.  16.34 16.34 18.29*2*pi/ulx,y,z
   ENINI  =  400.0     initial cutoff
   ENAUG  =  758.8 eV  augmentation charge cutoff
   NELM   =    200;   NELMIN=  6; NELMDL=-12     # of ELM steps 
   EDIFF  = 0.1E-04   stopping-criterion for ELM
   LREAL  =      T    real-space projection
   NLSPLINE    = F    spline interpolate recip. space projectors
   LCOMPAT=      F    compatible to vasp.4.4
   GGA_COMPAT  = T    GGA compatible to vasp.4.4-vasp.4.6
   LMAXPAW     = -100 max onsite density
   LMAXMIX     =    4 max onsite mixed and CHGCAR
   VOSKOWN=      0    Vosko Wilk Nusair interpolation
   ROPT   =   -0.00050  -0.00050  -0.00050  -0.00050
 Ionic relaxation
   EDIFFG = 0.1E-03   stopping-criterion for IOM
   NSW    =      1    number of steps for IOM
   NBLOCK =      1;   KBLOCK =      1    inner block; outer block 
   IBRION =     -1    ionic relax: 0-MD 1-quasi-New 2-CG
   NFREE  =      0    steps in history (QN), initial steepest desc. (CG)
   ISIF   =      2    stress and relaxation
   IWAVPR =     10    prediction:  0-non 1-charg 2-wave 3-comb
   ISYM   =      2    0-nonsym 1-usesym 2-fastsym
   LCORR  =      T    Harris-Foulkes like correction to forces

   POTIM  = 0.5000    time-step for ionic-motion
   TEIN   =    0.0    initial temperature
   TEBEG  =    0.0;   TEEND  =   0.0 temperature during run
   SMASS  =  -3.00    Nose mass-parameter (am)
   estimated Nose-frequenzy (Omega)   =  0.10E-29 period in steps =****** mass=  -0.229E-26a.u.
   SCALEE = 1.0000    scale energy and forces
   NPACO  =    256;   APACO  = 16.0  distance and # of slots for P.C.
   PSTRESS=    0.0 pullay stress

  Mass of Ions in am
   POMASS =  22.99 24.30 54.94 16.00
  Ionic Valenz
   ZVAL   =   7.00  8.00 13.00  6.00
  Atomic Wigner-Seitz radii
   RWIGS  =  -1.00 -1.00 -1.00 -1.00
  virtual crystal weights 
   VCA    =   1.00  1.00  1.00  1.00
   NELECT =     672.0000    total number of electrons
   NUPDOWN=      48.0000    fix difference up-down

 DOS related values:
   EMIN   =  10.00;   EMAX   =-10.00  energy-range for DOS
   EFERMI =   0.00
   ISMEAR =     0;   SIGMA  =   0.05  broadening in eV -4-tet -1-fermi 0-gaus

 Electronic relaxation 2 (details)
   IALGO  =     48    algorithm
   LDIAG  =      T    sub-space diagonalisation (order eigenvalues)
   LSUBROT=      F    optimize rotation matrix (better conditioning)
   TURBO    =      0    0=normal 1=particle mesh
   IRESTART =      0    0=no restart 2=restart with 2 vectors
   NREBOOT  =      0    no. of reboots
   NMIN     =      0    reboot dimension
   EREF     =   0.00    reference energy to select bands
   IMIX   =      4    mixing-type and parameters
     AMIX     =   0.40;   BMIX     =  1.00
     AMIX_MAG =   1.60;   BMIX_MAG =  1.00
     AMIN     =   0.10
     WC   =   100.;   INIMIX=   1;  MIXPRE=   1;  MAXMIX= -45

 Intra band minimization:
   WEIMIN = 0.0000     energy-eigenvalue tresh-hold
   EBREAK =  0.56E-08  absolut break condition
   DEPER  =   0.30     relativ break condition  

   TIME   =   0.40     timestep for ELM

  volume/ion in A,a.u.               =      11.08        74.78
  Fermi-wavevector in a.u.,A,eV,Ry     =   1.445993  2.732531 28.448379  2.090897
  Thomas-Fermi vector in A             =   2.564112
 
 Write flags
   LWAVE        =      F    write WAVECAR
   LDOWNSAMPLE  =      F    k-point downsampling of WAVECAR
   LCHARG       =      F    write CHGCAR
   LVTOT        =      F    write LOCPOT, total local potential
   LVHAR        =      F    write LOCPOT, Hartree potential only
   LELF         =      F    write electronic localiz. function (ELF)
   LORBIT       =     11    0 simple, 1 ext, 2 COOP (PROOUT), +10 PAW based schemes


 Dipole corrections
   LMONO  =      F    monopole corrections only (constant potential shift)
   LDIPOL =      F    correct potential (dipole corrections)
   IDIPOL =      0    1-x, 2-y, 3-z, 4-all directions 
   EPSILON=  1.0000000 bulk dielectric constant

 Exchange correlation treatment:
   GGA     =    --    GGA type
   LEXCH   =     8    internal setting for exchange type
   VOSKOWN=      0    Vosko Wilk Nusair interpolation
   LHFCALC =     F    Hartree Fock is set to
   LHFONE  =     F    Hartree Fock one center treatment
   AEXX    =    0.0000 exact exchange contribution

 Linear response parameters
   LEPSILON=     F    determine dielectric tensor
   LRPA    =     F    only Hartree local field effects (RPA)
   LNABLA  =     F    use nabla operator in PAW spheres
   LVEL    =     F    velocity operator in full k-point grid
   LINTERFAST=   F  fast interpolation
   KINTER  =     0    interpolate to denser k-point grid
   CSHIFT  =0.1000    complex shift for real part using Kramers Kronig
   OMEGAMAX=  -1.0    maximum frequency
   DEG_THRESHOLD= 0.2000000E-02 threshold for treating states as degnerate
   RTIME   =   -0.100 relaxation time in fs
  (WPLASMAI=    0.000 imaginary part of plasma frequency in eV, 0.658/RTIME)
   DFIELD  = 0.0000000 0.0000000 0.0000000 field for delta impulse in time
 
 Orbital magnetization related:
   ORBITALMAG=     F  switch on orbital magnetization
   LCHIMAG   =     F  perturbation theory with respect to B field
   DQ        =  0.001000  dq finite difference perturbation B field
   LLRAUG    =     F  two centre corrections for induced B field



--------------------------------------------------------------------------------------------------------


 Static calculation
 charge density and potential will be updated during run
 spin polarized calculation
 RMM-DIIS sequential band-by-band
 perform sub-space diagonalisation
    before iterative eigenvector-optimisation
 modified Broyden-mixing scheme, WC =      100.0
 initial mixing is a Kerker type mixing with AMIX =  0.4000 and BMIX =      1.0000
 Hartree-type preconditioning will be used
 using additional bands          112
 real space projection scheme for non local part
 use partial core corrections
 calculate Harris-corrections to forces 
   (improved forces if not selfconsistent)
 use gradient corrections 
 use of overlap-Matrix (Vanderbilt PP)
 Gauss-broadening in eV      SIGMA  =   0.05


--------------------------------------------------------------------------------------------------------


  energy-cutoff  :      400.00
  volume of cell :      975.20
      direct lattice vectors                 reciprocal lattice vectors
    10.019000053  0.000000000  0.000000000     0.099810360  0.057625538 -0.000000000
    -5.009500027  8.676708567  0.000000000     0.000000000  0.115251076  0.000000000
     0.000000000  0.000000000 11.218000412     0.000000000  0.000000000  0.089142446

  length of vectors
    10.019000053 10.019000053 11.218000412     0.115251076  0.115251076  0.089142446


 
 k-points in units of 2pi/SCALE and weight: read from INCAR                         
   0.00000000  0.00000000  0.00000000       0.125
   0.04990518  0.02881277 -0.00000000       0.125
   0.00000000  0.05762554  0.00000000       0.125
   0.04990518  0.08643831 -0.00000000       0.125
   0.00000000  0.00000000  0.04457122       0.125
   0.04990518  0.02881277  0.04457122       0.125
   0.00000000  0.05762554  0.04457122       0.125
   0.04990518  0.08643831  0.04457122       0.125
 
 k-points in reciprocal lattice and weights: read from INCAR                         
   0.00000000  0.00000000  0.00000000       0.125
   0.50000000 -0.00000000 -0.00000000       0.125
   0.00000000  0.50000000  0.00000000       0.125
   0.50000000  0.50000000 -0.00000000       0.125
   0.00000000  0.00000000  0.50000000       0.125
   0.50000000 -0.00000000  0.50000000       0.125
   0.00000000  0.50000000  0.50000000       0.125
   0.50000000  0.50000000  0.50000000       0.125
 
 position of ions in fractional coordinates (direct lattice) 
   0.76645006  0.56520675  0.25622659
   0.87318528  0.50993975  0.74584415
   0.11663084  0.39663526  0.75167407
   0.07257351  0.86192114  0.75008287
   0.54689590  0.22287056  0.24790425
   0.57899944  0.70629712  0.25636387
   0.30088720  0.75095099  0.75321445
   0.35742905  0.23320924  0.74543410
   0.26288498  0.35980530  0.24722588
   0.77995016  0.05825744  0.24739703
   0.38157018  0.86448581  0.24399357
   0.60873548  0.09466427  0.74961309
   0.59320749  0.57014592  0.75348633
   0.87887288  0.02966908  0.76208769
   0.08550687  0.02960240  0.25298359
   0.09294638  0.56845190  0.26564716
   0.73756874  0.37576230  0.00060069
   0.43233314  0.22329089  0.49378319
   0.24076781  0.37421333  0.99081829
   0.93924826  0.22970922  0.49343286
   0.23064054  0.87045565  0.00318444
   0.92828330  0.73177173  0.49056871
   0.73479235  0.86975838  0.00082309
   0.43382944  0.73186969  0.49323407
   0.06538707  0.04430844  0.99160243
   0.40749174  0.21586181  0.01488037
   0.09365428  0.05740737  0.50300408
   0.76602030  0.39328623  0.49776964
   0.57299771  0.04744327  0.01445810
   0.89882005  0.21354987  0.00508108
   0.59942613  0.05776833  0.49393116
   0.26606273  0.39939684  0.49430111
   0.56604837  0.54181029  0.99827173
   0.90420568  0.70792628  0.99663562
   0.59601466  0.56234573  0.49212425
   0.26346607  0.89237180  0.49369315
   0.06749423  0.54012071  0.00689550
   0.41017116  0.71651479  0.00308439
   0.08742785  0.55370190  0.50372524
   0.77008406  0.89454082  0.49727401
   0.23266900  0.19683616  0.09169905
   0.41261035  0.04737061  0.10086379
   0.55974904  0.38471616  0.10499821
   0.24307190  0.03485324  0.59828488
   0.43624029  0.41357849  0.58880458
   0.60674802  0.23107265  0.59122747
   0.24123652  0.05403708  0.90731856
   0.41153042  0.37413381  0.91357636
   0.55416276  0.19823070  0.91534138
   0.24950873  0.22275036  0.40991708
   0.43258014  0.05005716  0.40014974
   0.61535947  0.41206639  0.39664823
   0.74153802  0.20095408  0.10664646
   0.90690746  0.04933345  0.09346764
   0.07087536  0.38441766  0.08969246
   0.75123971  0.04581708  0.58937687
   0.92602796  0.39697657  0.58904883
   0.10304305  0.22315835  0.59268317
   0.73992297  0.06164653  0.91402207
   0.92059828  0.38196512  0.90661434
   0.05818442  0.21141427  0.89521302
   0.75296166  0.22771192  0.40441343
   0.93788525  0.05146669  0.40825190
   0.10632226  0.40019438  0.40925921
   0.73688683  0.70269273  0.08741415
   0.91420487  0.55415483  0.09687645
   0.05043326  0.87071381  0.08562141
   0.76480592  0.55944716  0.58527543
   0.92669113  0.90244704  0.59022373
   0.10492791  0.72378137  0.59179442
   0.72767746  0.54156711  0.90868244
   0.91365501  0.87939107  0.89499016
   0.05652993  0.69718603  0.90857547
   0.75397168  0.73216934  0.40150649
   0.92730548  0.55269460  0.41139417
   0.11271531  0.90381968  0.40850417
   0.23276691  0.70293475  0.09477981
   0.40929384  0.55575106  0.09366286
   0.56649052  0.87559009  0.10162239
   0.25472947  0.55655206  0.59151718
   0.43161634  0.90274900  0.58751201
   0.60742524  0.71962541  0.58704847
   0.23874849  0.56690391  0.90353001
   0.42569353  0.88164538  0.91585841
   0.56041616  0.70069658  0.91577818
   0.24777062  0.72427464  0.40670261
   0.43121341  0.54431124  0.39930200
   0.61241801  0.90053618  0.40022997
 
 position of ions in cartesian coordinates  (Angst):
   4.84766000  4.90413427  2.87435000
   6.19390019  4.42459857  8.36688000
  -0.81841997  3.44148857  8.43228000
  -3.59067997  7.47863857  8.41443000
   4.36288000  1.93378287  2.78099000
   2.26280000  6.12833427  2.87589000
  -0.74730011  6.51578287  8.44956000
   2.41281997  2.02348857  8.36228000
   0.83139997  3.12192570  2.77338000
   7.52248005  0.50548287  2.77530000
  -0.50769003  7.50089143  2.73712000
   5.62470013  0.82137430  8.40916000
   3.08719984  4.94699000  8.45261000
   8.65680016  0.25743000  8.54910000
   0.70840008  0.25685143  2.83797000
  -1.91642997  4.93229143  2.98003000
   5.50732000  3.26038000  0.00673857
   3.21297000  1.93743000  5.53926000
   0.53763100  3.24694000 11.11500000
   8.25960000  1.99312000  5.53533000
  -2.04976000  7.55269000  0.03572300
   5.63466000  6.34937000  5.50320000
   3.00483000  7.54664000  0.00923343
   0.68023600  6.35022000  5.53310000
   0.43314997  0.38445143 11.12379651
   3.00130000  1.87297000  0.16692800
   0.65074000  0.49810700  5.64270000
   5.70459000  3.41243000  5.58398000
   5.50319703  0.41165143  0.16219100
   7.93550000  1.85291000  0.05699959
   5.71626000  0.50123900  5.54092000
   0.66490400  3.46545000  5.54507000
   2.95704000  4.70113000 11.19861271
   5.51288000  6.14247000 11.18025881
   3.15440000  4.87931000  5.52065000
  -1.83067000  7.74285000  5.53825000
  -2.02951000  4.68647000  0.07735370
   0.52012400  6.21699000  0.03460070
  -1.89783000  4.80431000  5.65079000
   3.23427000  7.76167000  5.57842000
   1.34506000  1.70789000  1.02868000
   3.89664000  0.41102100  1.13149000
   3.68089000  3.33807000  1.17787000
   2.26074003  0.30241143  6.71156000
   2.29887000  3.58850000  6.60521000
   4.92145000  2.00495000  6.63239000
   2.14625000  0.46886400 10.17830000
   2.24890000  3.24625000 10.24850000
   4.55912000  1.71999000 10.26830000
   1.38396000  1.93274000  4.59845000
   4.08325903  0.43433143  4.48888000
   4.10104000  3.57538000  4.44960000
   6.42279000  1.74362000  1.19636000
   8.83917000  0.42805200  1.04852000
  -1.21564005  3.33548000  1.00617000
   7.29715003  0.39754143  6.61163000
   7.28922000  3.44445000  6.60795000
  -0.08552350  1.93628000  6.64872000
   7.10447000  0.53488900 10.25350000
   7.31002000  3.31420000 10.17040000
  -0.47613005  1.83438000 10.04250000
   6.40320000  1.97579000  4.53671000
   9.13885003  0.44656143  4.57977000
  -0.93953100  3.47237000  4.59107000
   3.86273000  6.09706000  0.98061200
   6.38338000  4.80824000  1.08676000
  -3.85655005  7.55493000  0.96050100
   4.86004000  4.85416000  6.56562000
   4.76371000  7.83027000  6.62113000
  -2.57451000  6.28004000  6.63875000
   4.57762000  4.69902000 10.19360000
   4.74860000  7.63022000 10.04000000
  -2.92618005  6.04928000 10.19240000
   3.88624000  6.35282000  4.50410000
   6.52195000  4.79557000  4.61502000
  -3.39839000  7.84218000  4.58260000
  -1.18926000  6.09916000  1.06324000
   1.31668000  4.82209000  1.05071000
   1.28940000  7.59724000  1.14000000
  -0.23591300  4.82904000  6.63564000
  -0.19795700  7.83289000  6.59071000
   2.48083000  6.24398000  6.58551000
  -0.44788400  4.91886000 10.13580000
  -0.15157900  7.64978000 10.27410000
   2.10467000  6.07974000 10.27320000
  -1.14584000  6.28432000  4.56239000
   1.59360000  4.72283000  4.47937000
   1.62458000  7.81369000  4.48978000
 


--------------------------------------------------------------------------------------------------------


 k-point  1 :   0.0000 0.0000 0.0000  plane waves:   17725
 k-point  2 :   0.5000-0.0000-0.0000  plane waves:   17736
 k-point  3 :   0.0000 0.5000 0.0000  plane waves:   17736
 k-point  4 :   0.5000 0.5000-0.0000  plane waves:   17736
 k-point  5 :   0.0000 0.0000 0.5000  plane waves:   17676
 k-point  6 :   0.5000-0.0000 0.5000  plane waves:   17700
 k-point  7 :   0.0000 0.5000 0.5000  plane waves:   17700
 k-point  8 :   0.5000 0.5000 0.5000  plane waves:   17700

 maximum and minimum number of plane-waves per node :     17736    17676

 maximum number of plane-waves:     17736
 maximum index in each direction: 
   IXMAX=   16   IYMAX=   16   IZMAX=   18
   IXMIN=  -16   IYMIN=  -16   IZMIN=  -18


 serial   3D FFT for wavefunctions
 parallel 3D FFT for charge:
    minimum data exchange during FFTs selected (reduces bandwidth)


 total amount of memory used by VASP MPI-rank0    88192. kBytes
=======================================================================

   base      :      30000. kBytes
   nonlr-proj:      13683. kBytes
   fftplans  :        992. kBytes
   grid      :      21513. kBytes
   one-center:       2737. kBytes
   wavefun   :      19267. kBytes
 
     INWAV:  cpu time    0.0000: real time    0.0001
 Broyden mixing: mesh for mixing (old mesh)
   NGX = 33   NGY = 33   NGZ = 37
  (NGX  =100   NGY  =100   NGZ  =112)
  gives a total of  40293 points

 initial charge density was supplied:
 charge density of overlapping atoms calculated
 number of electron     672.0000000 magnetization      48.0000000
 keeping initial charge density in first step


--------------------------------------------------------------------------------------------------------


 Maximum index for non-local projection operator         1552
 Maximum index for augmentation-charges          184 (set IRDMAX)


--------------------------------------------------------------------------------------------------------


 First call to EWALD:  gamma=   0.179
 Maximum number of real-space cells 3x 3x 2
 Maximum number of reciprocal cells 3x 3x 3

    FEWALD:  cpu time    0.0024: real time    0.0030


--------------------------------------- Iteration      1(   1)  ---------------------------------------


    POTLOK:  cpu time    0.2011: real time    0.2026
    SETDIJ:  cpu time    3.0948: real time    3.0961
    EDDIAG:  cpu time    3.6982: real time    3.7040
  RMM-DIIS:  cpu time    6.6197: real time    6.6243
    ORTHCH:  cpu time    1.1426: real time    1.1458
       DOS:  cpu time    0.0026: real time    0.0027
    --------------------------------------------
      LOOP:  cpu time   14.7590: real time   14.7755

 eigenvalue-minimisations  :  7168
 total energy-change (2. order) : 0.1766838E+04  (-0.3595582E+05)
 number of electron     672.0000000 magnetization      48.0000000
 augmentation part      672.0000000 magnetization      48.0000000

 Free energy of the ion-electron system (eV)
  ---------------------------------------------------
  alpha Z        PSCENC =      2652.81237852
  Ewald energy   TEWEN  =    -41889.25770715
  -Hartree energ DENC   =    -25728.09920738
  -exchange      EXHF   =         0.00000000
  -V(xc)+E(xc)   XCENC  =      3605.72819511
  PAW double counting   =     55594.23204139   -59034.67079123
  entropy T*S    EENTRO =        -0.06189741
  eigenvalues    EBANDS =     -7296.04275609
  atomic energy  EATOM  =     73862.19814772
  Solvation  Ediel_sol  =         0.00000000
  ---------------------------------------------------
  free energy    TOTEN  =      1766.83840349 eV

  energy without entropy =     1766.90030090  energy(sigma->0) =     1766.86935219


--------------------------------------------------------------------------------------------------------




--------------------------------------- Iteration      1(   2)  ---------------------------------------


    EDDIAG:  cpu time    3.6795: real time    3.6826
  RMM-DIIS:  cpu time    6.6151: real time    6.6461
    ORTHCH:  cpu time    1.1447: real time    1.1469
       DOS:  cpu time    0.0015: real time    0.0015
    --------------------------------------------
      LOOP:  cpu time   11.4408: real time   11.4771

 eigenvalue-minimisations  :  7168
 total energy-change (2. order) :-0.2604362E+04  (-0.8658993E+04)
 number of electron     672.0000000 magnetization      48.0000000
 augmentation part      672.0000000 magnetization      48.0000000

 Free energy of the ion-electron system (eV)
  ---------------------------------------------------
  alpha Z        PSCENC =      2652.81237852
  Ewald energy   TEWEN  =    -41889.25770715
  -Hartree energ DENC   =    -25728.09920738
  -exchange      EXHF   =         0.00000000
  -V(xc)+E(xc)   XCENC  =      3605.72819511
  PAW double counting   =     55594.23204139   -59034.67079123
  entropy T*S    EENTRO =        -0.03756845
  eigenvalues    EBANDS =     -9900.42912709
  atomic energy  EATOM  =     73862.19814772
  Solvation  Ediel_sol  =         0.00000000
  ---------------------------------------------------
  free energy    TOTEN  =      -837.52363856 eV

  energy without entropy =     -837.48607011  energy(sigma->0) =     -837.50485433


--------------------------------------------------------------------------------------------------------




--------------------------------------- Iteration      1(   3)  ---------------------------------------


    EDDIAG:  cpu time    3.7871: real time    3.7937
  RMM-DIIS:  cpu time    6.6127: real time    6.6178
    ORTHCH:  cpu time    1.1514: real time    1.1545
       DOS:  cpu time    0.0017: real time    0.0017
    --------------------------------------------
      LOOP:  cpu time   11.5529: real time   11.5676

 eigenvalue-minimisations  :  7168
 total energy-change (2. order) : 0.3006236E+03  (-0.1556670E+04)
 number of electron     672.0000000 magnetization      48.0000000
 augmentation part      672.0000000 magnetization      48.0000000

 Free energy of the ion-electron system (eV)
  ---------------------------------------------------
  alpha Z        PSCENC =      2652.81237852
  Ewald energy   TEWEN  =    -41889.25770715
  -Hartree energ DENC   =    -25728.09920738
  -exchange      EXHF   =         0.00000000
  -V(xc)+E(xc)   XCENC  =      3605.72819511
  PAW double counting   =     55594.23204139   -59034.67079123
  entropy T*S    EENTRO =        -0.04316503
  eigenvalues    EBANDS =     -9599.79996065
  atomic energy  EATOM  =     73862.19814772
  Solvation  Ediel_sol  =         0.00000000
  ---------------------------------------------------
  free energy    TOTEN  =      -536.90006869 eV

  energy without entropy =     -536.85690366  energy(sigma->0) =     -536.87848618


--------------------------------------------------------------------------------------------------------




--------------------------------------- Iteration      1(   4)  ---------------------------------------


    EDDIAG:  cpu time    3.8207: real time    3.8253
  RMM-DIIS:  cpu time    6.6260: real time    6.6353
    ORTHCH:  cpu time    1.1518: real time    1.1543
       DOS:  cpu time    0.0012: real time    0.0012
    --------------------------------------------
      LOOP:  cpu time   11.5998: real time   11.6162

 eigenvalue-minimisations  :  7168
 total energy-change (2. order) :-0.5222674E+03  (-0.5052426E+03)
 number of electron     672.0000000 magnetization      48.0000000
 augmentation part      672.0000000 magnetization      48.0000000

 Free energy of the ion-electron system (eV)
  ---------------------------------------------------
  alpha Z        PSCENC =      2652.81237852
  Ewald energy   TEWEN  =    -41889.25770715
  -Hartree energ DENC   =    -25728.09920738
  -exchange      EXHF   =         0.00000000
  -V(xc)+E(xc)   XCENC  =      3605.72819511
  PAW double counting   =     55594.23204139   -59034.67079123
  entropy T*S    EENTRO =        -0.00012385
  eigenvalues    EBANDS =    -10122.11038481
  atomic energy  EATOM  =     73862.19814772
  Solvation  Ediel_sol  =         0.00000000
  ---------------------------------------------------
  free energy    TOTEN  =     -1059.16745168 eV

  energy without entropy =    -1059.16732782  energy(sigma->0) =    -1059.16738975


--------------------------------------------------------------------------------------------------------




--------------------------------------- Iteration      1(   5)  ---------------------------------------


    EDDIAG:  cpu time    3.7117: real time    3.7163
  RMM-DIIS:  cpu time    6.5788: real time    6.6311
    ORTHCH:  cpu time    1.1478: real time    1.1503
       DOS:  cpu time    0.0010: real time    0.0010
    --------------------------------------------
      LOOP:  cpu time   11.4393: real time   11.4987

 eigenvalue-minimisations  :  7168
 total energy-change (2. order) :-0.1467776E+03  (-0.2116503E+03)
 number of electron     672.0000000 magnetization      48.0000000
 augmentation part      672.0000000 magnetization      48.0000000

 Free energy of the ion-electron system (eV)
  ---------------------------------------------------
  alpha Z        PSCENC =      2652.81237852
  Ewald energy   TEWEN  =    -41889.25770715
  -Hartree energ DENC   =    -25728.09920738
  -exchange      EXHF   =         0.00000000
  -V(xc)+E(xc)   XCENC  =      3605.72819511
  PAW double counting   =     55594.23204139   -59034.67079123
  entropy T*S    EENTRO =        -0.00000000
  eigenvalues    EBANDS =    -10268.88806288
  atomic energy  EATOM  =     73862.19814772
  Solvation  Ediel_sol  =         0.00000000
  ---------------------------------------------------
  free energy    TOTEN  =     -1205.94500589 eV

  energy without entropy =    -1205.94500589  energy(sigma->0) =    -1205.94500589


--------------------------------------------------------------------------------------------------------




--------------------------------------- Iteration      1(   6)  ---------------------------------------


    EDDIAG:  cpu time    3.7119: real time    3.7164
  RMM-DIIS:  cpu time    6.6279: real time    6.6326
    ORTHCH:  cpu time    1.1573: real time    1.1601
       DOS:  cpu time    0.0015: real time    0.0015
    --------------------------------------------
      LOOP:  cpu time   11.4985: real time   11.5106

 eigenvalue-minimisations  :  7168
 total energy-change (2. order) :-0.2155035E+02  (-0.1145150E+03)
 number of electron     672.0000000 magnetization      48.0000000
 augmentation part      672.0000000 magnetization      48.0000000

 Free energy of the ion-electron system (eV)
  ---------------------------------------------------
  alpha Z        PSCENC =      2652.81237852
  Ewald energy   TEWEN  =    -41889.25770715
  -Hartree energ DENC   =    -25728.09920738
  -exchange      EXHF   =         0.00000000
  -V(xc)+E(xc)   XCENC  =      3605.72819511
  PAW double counting   =     55594.23204139   -59034.67079123
  entropy T*S    EENTRO =        -0.00000000
  eigenvalues    EBANDS =    -10290.43841554
  atomic energy  EATOM  =     73862.19814772
  Solvation  Ediel_sol  =         0.00000000
  ---------------------------------------------------
  free energy    TOTEN  =     -1227.49535855 eV

  energy without entropy =    -1227.49535855  energy(sigma->0) =    -1227.49535855


--------------------------------------------------------------------------------------------------------




--------------------------------------- Iteration      1(   7)  ---------------------------------------


    EDDIAG:  cpu time    3.7302: real time    3.7369
  RMM-DIIS:  cpu time    6.6269: real time    6.6326
    ORTHCH:  cpu time    1.1591: real time    1.1613
       DOS:  cpu time    0.0013: real time    0.0013
    --------------------------------------------
      LOOP:  cpu time   11.5175: real time   11.5320

 eigenvalue-minimisations  :  7168
 total energy-change (2. order) :-0.6505074E+01  (-0.7541842E+02)
 number of electron     672.0000000 magnetization      48.0000000
 augmentation part      672.0000000 magnetization      48.0000000

 Free energy of the ion-electron system (eV)
  ---------------------------------------------------
  alpha Z        PSCENC =      2652.81237852
  Ewald energy   TEWEN  =    -41889.25770715
  -Hartree energ DENC   =    -25728.09920738
  -exchange      EXHF   =         0.00000000
  -V(xc)+E(xc)   XCENC  =      3605.72819511
  PAW double counting   =     55594.23204139   -59034.67079123
  entropy T*S    EENTRO =        -0.00000000
  eigenvalues    EBANDS =    -10296.94348973
  atomic energy  EATOM  =     73862.19814772
  Solvation  Ediel_sol  =         0.00000000
  ---------------------------------------------------
  free energy    TOTEN  =     -1234.00043274 eV

  energy without entropy =    -1234.00043274  energy(sigma->0) =    -1234.00043274


--------------------------------------------------------------------------------------------------------




--------------------------------------- Iteration      1(   8)  ---------------------------------------


    EDDIAG:  cpu time    3.7527: real time    3.7700
  RMM-DIIS:  cpu time    6.6556: real time    6.6627
    ORTHCH:  cpu time    1.1513: real time    1.1535
       DOS:  cpu time    0.0012: real time    0.0012
    --------------------------------------------
      LOOP:  cpu time   11.5608: real time   11.5874

 eigenvalue-minimisations  :  7168
 total energy-change (2. order) : 0.4628713E+01  (-0.5207188E+02)
 number of electron     672.0000000 magnetization      48.0000000
 augmentation part      672.0000000 magnetization      48.0000000

 Free energy of the ion-electron system (eV)
  ---------------------------------------------------
  alpha Z        PSCENC =      2652.81237852
  Ewald energy   TEWEN  =    -41889.25770715
  -Hartree energ DENC   =    -25728.09920738
  -exchange      EXHF   =         0.00000000
  -V(xc)+E(xc)   XCENC  =      3605.72819511
  PAW double counting   =     55594.23204139   -59034.67079123
  entropy T*S    EENTRO =        -0.00000000
  eigenvalues    EBANDS =    -10292.31477659
  atomic energy  EATOM  =     73862.19814772
  Solvation  Ediel_sol  =         0.00000000
  ---------------------------------------------------
  free energy    TOTEN  =     -1229.37171960 eV

  energy without entropy =    -1229.37171960  energy(sigma->0) =    -1229.37171960


--------------------------------------------------------------------------------------------------------




--------------------------------------- Iteration      1(   9)  ---------------------------------------


    EDDIAG:  cpu time    3.7746: real time    3.7801
  RMM-DIIS:  cpu time   13.9211: real time   13.9303
    ORTHCH:  cpu time    1.1648: real time    1.1670
       DOS:  cpu time    0.0011: real time    0.0010
    --------------------------------------------
      LOOP:  cpu time   18.8616: real time   18.8785

 eigenvalue-minimisations  : 20242
 total energy-change (2. order) : 0.1781503E+02  (-0.2325413E+02)
 number of electron     672.0000000 magnetization      48.0000000
 augmentation part      672.0000000 magnetization      48.0000000

 Free energy of the ion-electron system (eV)
  ---------------------------------------------------
  alpha Z        PSCENC =      2652.81237852
  Ewald energy   TEWEN  =    -41889.25770715
  -Hartree energ DENC   =    -25728.09920738
  -exchange      EXHF   =         0.00000000
  -V(xc)+E(xc)   XCENC  =      3605.72819511
  PAW double counting   =     55594.23204139   -59034.67079123
  entropy T*S    EENTRO =        -0.00000000
  eigenvalues    EBANDS =    -10274.49974534
  atomic energy  EATOM  =     73862.19814772
  Solvation  Ediel_sol  =         0.00000000
  ---------------------------------------------------
  free energy    TOTEN  =     -1211.55668836 eV

  energy without entropy =    -1211.55668836  energy(sigma->0) =    -1211.55668836


--------------------------------------------------------------------------------------------------------




--------------------------------------- Iteration      1(  10)  ---------------------------------------


    EDDIAG:  cpu time    3.8106: real time    3.8303
  RMM-DIIS:  cpu time   15.7684: real time   15.7776
    ORTHCH:  cpu time    1.1464: real time    1.1493
       DOS:  cpu time    0.0011: real time    0.0011
    --------------------------------------------
      LOOP:  cpu time   20.7266: real time   20.7582

 eigenvalue-minimisations  : 20220
 total energy-change (2. order) :-0.3020906E+01  (-0.1015619E+01)
 number of electron     672.0000000 magnetization      48.0000000
 augmentation part      672.0000000 magnetization      48.0000000

 Free energy of the ion-electron system (eV)
  ---------------------------------------------------
  alpha Z        PSCENC =      2652.81237852
  Ewald energy   TEWEN  =    -41889.25770715
  -Hartree energ DENC   =    -25728.09920738
  -exchange      EXHF   =         0.00000000
  -V(xc)+E(xc)   XCENC  =      3605.72819511
  PAW double counting   =     55594.23204139   -59034.67079123
  entropy T*S    EENTRO =        -0.00000001
  eigenvalues    EBANDS =    -10277.52065166
  atomic energy  EATOM  =     73862.19814772
  Solvation  Ediel_sol  =         0.00000000
  ---------------------------------------------------
  free energy    TOTEN  =     -1214.57759468 eV

  energy without entropy =    -1214.57759467  energy(sigma->0) =    -1214.57759467


--------------------------------------------------------------------------------------------------------




--------------------------------------- Iteration      1(  11)  ---------------------------------------


    EDDIAG:  cpu time    3.7221: real time    3.7268
  RMM-DIIS:  cpu time   15.1564: real time   15.1985
    ORTHCH:  cpu time    1.1505: real time    1.1527
       DOS:  cpu time    0.0011: real time    0.0011
    --------------------------------------------
      LOOP:  cpu time   20.0301: real time   20.0790

 eigenvalue-minimisations  : 21662
 total energy-change (2. order) : 0.1043247E+00  (-0.9579519E-01)
 number of electron     672.0000000 magnetization      48.0000000
 augmentation part      672.0000000 magnetization      48.0000000

 Free energy of the ion-electron system (eV)
  ---------------------------------------------------
  alpha Z        PSCENC =      2652.81237852
  Ewald energy   TEWEN  =    -41889.25770715
  -Hartree energ DENC   =    -25728.09920738
  -exchange      EXHF   =         0.00000000
  -V(xc)+E(xc)   XCENC  =      3605.72819511
  PAW double counting   =     55594.23204139   -59034.67079123
  entropy T*S    EENTRO =        -0.00000002
  eigenvalues    EBANDS =    -10277.41632694
  atomic energy  EATOM  =     73862.19814772
  Solvation  Ediel_sol  =         0.00000000
  ---------------------------------------------------
  free energy    TOTEN  =     -1214.47326997 eV

  energy without entropy =    -1214.47326996  energy(sigma->0) =    -1214.47326997


--------------------------------------------------------------------------------------------------------




--------------------------------------- Iteration      1(  12)  ---------------------------------------


    EDDIAG:  cpu time    3.7824: real time    3.7852
  RMM-DIIS:  cpu time   15.9911: real time   16.0128
    ORTHCH:  cpu time    1.1542: real time    1.1566
       DOS:  cpu time    0.0014: real time    0.0014
    CHARGE:  cpu time    1.3500: real time    1.3507
    MIXING:  cpu time    0.0013: real time    0.0015
    --------------------------------------------
      LOOP:  cpu time   22.2805: real time   22.3082

 eigenvalue-minimisations  : 22822
 total energy-change (2. order) : 0.6754292E-02  (-0.6786942E-02)
 number of electron     671.9999841 magnetization      48.0000017
 augmentation part      239.0274658 magnetization      29.0476074

 Broyden mixing:
  rms(total) = 0.12485E+02    rms(broyden)= 0.12476E+02
  rms(prec ) = 0.14349E+02
  weight for this iteration     100.00

 Free energy of the ion-electron system (eV)
  ---------------------------------------------------
  alpha Z        PSCENC =      2652.81237852
  Ewald energy   TEWEN  =    -41889.25770715
  -Hartree energ DENC   =    -25728.09920738
  -exchange      EXHF   =         0.00000000
  -V(xc)+E(xc)   XCENC  =      3605.72819511
  PAW double counting   =     55594.23204139   -59034.67079123
  entropy T*S    EENTRO =        -0.00000002
  eigenvalues    EBANDS =    -10277.40957265
  atomic energy  EATOM  =     73862.19814772
  Solvation  Ediel_sol  =         0.00000000
  ---------------------------------------------------
  free energy    TOTEN  =     -1214.46651568 eV

  energy without entropy =    -1214.46651567  energy(sigma->0) =    -1214.46651567


--------------------------------------------------------------------------------------------------------




--------------------------------------- Iteration      1(  13)  ---------------------------------------


    POTLOK:  cpu time    0.2094: real time    0.2107
    SETDIJ:  cpu time    3.2703: real time    3.2721
    EDDIAG:  cpu time    3.7222: real time    3.7249
  RMM-DIIS:  cpu time   12.9679: real time   12.9751
    ORTHCH:  cpu time    1.1682: real time    1.1704
       DOS:  cpu time    0.0015: real time    0.0015
    CHARGE:  cpu time    1.3492: real time    1.3497
    MIXING:  cpu time    0.0007: real time    0.0008
    --------------------------------------------
      LOOP:  cpu time   22.6895: real time   22.7053

 eigenvalue-minimisations  : 17298
 total energy-change (2. order) : 0.2246536E+03  (-0.1379207E+03)
 number of electron     671.9999875 magnetization      48.0000017
 augmentation part      269.1660298 magnetization      26.4293825

 Broyden mixing:
  rms(total) = 0.13987E+02    rms(broyden)= 0.13984E+02
  rms(prec ) = 0.15740E+02
  weight for this iteration     100.00

 eigenvalues of (default mixing * dielectric matrix)
  average eigenvalue GAMMA=   0.3163
  0.3163

 Free energy of the ion-electron system (eV)
  ---------------------------------------------------
  alpha Z        PSCENC =      2652.81237852
  Ewald energy   TEWEN  =    -41889.25770715
  -Hartree energ DENC   =    -25053.27202574
  -exchange      EXHF   =         0.00000000
  -V(xc)+E(xc)   XCENC  =      3695.89411679
  PAW double counting   =     59842.36264464   -63267.29488225
  entropy T*S    EENTRO =        -0.07190471
  eigenvalues    EBANDS =    -10833.18363758
  atomic energy  EATOM  =     73862.19814772
  Solvation  Ediel_sol  =         0.00000000
  ---------------------------------------------------
  free energy    TOTEN  =      -989.81286976 eV

  energy without entropy =     -989.74096505  energy(sigma->0) =     -989.77691741


--------------------------------------------------------------------------------------------------------




--------------------------------------- Iteration      1(  14)  ---------------------------------------


    POTLOK:  cpu time    0.2087: real time    0.2096
    SETDIJ:  cpu time    3.2729: real time    3.2736
    EDDIAG:  cpu time    3.7277: real time    3.7543
  RMM-DIIS:  cpu time   13.5407: real time   13.5499
    ORTHCH:  cpu time    1.1669: real time    1.1697
       DOS:  cpu time    0.0010: real time    0.0010
    CHARGE:  cpu time    1.3621: real time    1.3635
    MIXING:  cpu time    0.0007: real time    0.0007
    --------------------------------------------
      LOOP:  cpu time   23.2806: real time   23.3223

 eigenvalue-minimisations  : 17786
 total energy-change (2. order) : 0.7432049E+02  (-0.1913703E+02)
 number of electron     671.9999857 magnetization      48.0000029
 augmentation part      246.5964072 magnetization      32.2036814

 Broyden mixing:
  rms(total) = 0.52150E+01    rms(broyden)= 0.52106E+01
  rms(prec ) = 0.56381E+01
  weight for this iteration     100.00

 eigenvalues of (default mixing * dielectric matrix)
  average eigenvalue GAMMA=   0.7273
  1.0961  0.3584

 Free energy of the ion-electron system (eV)
  ---------------------------------------------------
  alpha Z        PSCENC =      2652.81237852
  Ewald energy   TEWEN  =    -41889.25770715
  -Hartree energ DENC   =    -25664.74873559
  -exchange      EXHF   =         0.00000000
  -V(xc)+E(xc)   XCENC  =      3673.32517102
  PAW double counting   =     63242.54851832   -66724.38166398
  entropy T*S    EENTRO =        -0.00000000
  eigenvalues    EBANDS =    -10067.98849181
  atomic energy  EATOM  =     73862.19814772
  Solvation  Ediel_sol  =         0.00000000
  ---------------------------------------------------
  free energy    TOTEN  =      -915.49238295 eV

  energy without entropy =     -915.49238295  energy(sigma->0) =     -915.49238295


--------------------------------------------------------------------------------------------------------




--------------------------------------- Iteration      1(  15)  ---------------------------------------


    POTLOK:  cpu time    0.1996: real time    0.2007
    SETDIJ:  cpu time    3.2697: real time    3.2704
    EDDIAG:  cpu time    3.7379: real time    3.7403
  RMM-DIIS:  cpu time   13.6382: real time   13.6765
    ORTHCH:  cpu time    1.1564: real time    1.1586
       DOS:  cpu time    0.0012: real time    0.0012
    CHARGE:  cpu time    1.3616: real time    1.3622
    MIXING:  cpu time    0.0006: real time    0.0006
    --------------------------------------------
      LOOP:  cpu time   23.3652: real time   23.4104

 eigenvalue-minimisations  : 18428
 total energy-change (2. order) : 0.1378517E+02  (-0.2136659E+01)
 number of electron     671.9999861 magnetization      48.0000037
 augmentation part      249.7012353 magnetization      33.8362613

 Broyden mixing:
  rms(total) = 0.21463E+01    rms(broyden)= 0.21460E+01
  rms(prec ) = 0.22258E+01
  weight for this iteration     100.00

 eigenvalues of (default mixing * dielectric matrix)
  average eigenvalue GAMMA=   0.9435
  0.3827  0.7538  1.6941

 Free energy of the ion-electron system (eV)
  ---------------------------------------------------
  alpha Z        PSCENC =      2652.81237852
  Ewald energy   TEWEN  =    -41889.25770715
  -Hartree energ DENC   =    -25581.31217358
  -exchange      EXHF   =         0.00000000
  -V(xc)+E(xc)   XCENC  =      3705.95582757
  PAW double counting   =     67302.22471297   -70824.38113526
  entropy T*S    EENTRO =        -0.00000000
  eigenvalues    EBANDS =    -10129.94726861
  atomic energy  EATOM  =     73862.19814772
  Solvation  Ediel_sol  =         0.00000000
  ---------------------------------------------------
  free energy    TOTEN  =      -901.70721781 eV

  energy without entropy =     -901.70721781  energy(sigma->0) =     -901.70721781


--------------------------------------------------------------------------------------------------------




--------------------------------------- Iteration      1(  16)  ---------------------------------------


    POTLOK:  cpu time    0.2108: real time    0.2109
    SETDIJ:  cpu time    3.3024: real time    3.3031
    EDDIAG:  cpu time    3.7146: real time    3.7171
  RMM-DIIS:  cpu time   13.1702: real time   13.1997
    ORTHCH:  cpu time    1.2269: real time    1.2295
       DOS:  cpu time    0.0013: real time    0.0013
    CHARGE:  cpu time    1.3652: real time    1.3656
    MIXING:  cpu time    0.0008: real time    0.0008
    --------------------------------------------
      LOOP:  cpu time   22.9922: real time   23.0281

 eigenvalue-minimisations  : 17393
 total energy-change (2. order) :-0.1585495E+01  (-0.7015848E+00)
 number of electron     671.9999859 magnetization      48.0000040
 augmentation part      251.1696962 magnetization      33.9367217

 Broyden mixing:
  rms(total) = 0.14467E+01    rms(broyden)= 0.14462E+01
  rms(prec ) = 0.15388E+01
  weight for this iteration     100.00

 eigenvalues of (default mixing * dielectric matrix)
  average eigenvalue GAMMA=   0.9678
  2.0616  0.9000  0.3895  0.5201

 Free energy of the ion-electron system (eV)
  ---------------------------------------------------
  alpha Z        PSCENC =      2652.81237852
  Ewald energy   TEWEN  =    -41889.25770715
  -Hartree energ DENC   =    -25531.17913914
  -exchange      EXHF   =         0.00000000
  -V(xc)+E(xc)   XCENC  =      3707.09353349
  PAW double counting   =     70194.33214228   -73745.99558174
  entropy T*S    EENTRO =        -0.00000000
  eigenvalues    EBANDS =    -10153.29648668
  atomic energy  EATOM  =     73862.19814772
  Solvation  Ediel_sol  =         0.00000000
  ---------------------------------------------------
  free energy    TOTEN  =      -903.29271269 eV

  energy without entropy =     -903.29271269  energy(sigma->0) =     -903.29271269


--------------------------------------------------------------------------------------------------------




--------------------------------------- Iteration      1(  17)  ---------------------------------------


    POTLOK:  cpu time    0.2145: real time    0.2157
    SETDIJ:  cpu time    3.3065: real time    3.3073
    EDDIAG:  cpu time    3.7497: real time    3.7524
  RMM-DIIS:  cpu time   13.6053: real time   13.6104
    ORTHCH:  cpu time    1.1612: real time    1.1637
       DOS:  cpu time    0.0013: real time    0.0013
    CHARGE:  cpu time    1.3638: real time    1.3641
    MIXING:  cpu time    0.0015: real time    0.0015
    --------------------------------------------
      LOOP:  cpu time   23.4039: real time   23.4164

 eigenvalue-minimisations  : 18389
 total energy-change (2. order) : 0.1662460E+00  (-0.9248315E-01)
 number of electron     671.9999861 magnetization      48.0000041
 augmentation part      251.0961305 magnetization      33.9370331

 Broyden mixing:
  rms(total) = 0.78068E+00    rms(broyden)= 0.78053E+00
  rms(prec ) = 0.88121E+00
  weight for this iteration     100.00

 eigenvalues of (default mixing * dielectric matrix)
  average eigenvalue GAMMA=   0.9910
  2.2199  1.1149  0.3794  0.6885  0.5524

 Free energy of the ion-electron system (eV)
  ---------------------------------------------------
  alpha Z        PSCENC =      2652.81237852
  Ewald energy   TEWEN  =    -41889.25770715
  -Hartree energ DENC   =    -25523.18263959
  -exchange      EXHF   =         0.00000000
  -V(xc)+E(xc)   XCENC  =      3704.38358470
  PAW double counting   =     71049.73835767   -74609.83697497
  entropy T*S    EENTRO =        -0.00000000
  eigenvalues    EBANDS =    -10149.98161365
  atomic energy  EATOM  =     73862.19814772
  Solvation  Ediel_sol  =         0.00000000
  ---------------------------------------------------
  free energy    TOTEN  =      -903.12646674 eV

  energy without entropy =     -903.12646674  energy(sigma->0) =     -903.12646674


--------------------------------------------------------------------------------------------------------




--------------------------------------- Iteration      1(  18)  ---------------------------------------


    POTLOK:  cpu time    0.2034: real time    0.2042
    SETDIJ:  cpu time    3.2982: real time    3.3113
    EDDIAG:  cpu time    3.7544: real time    3.7571
  RMM-DIIS:  cpu time   13.3470: real time   13.3526
    ORTHCH:  cpu time    1.1624: real time    1.1646
       DOS:  cpu time    0.0012: real time    0.0012
    CHARGE:  cpu time    1.3624: real time    1.3631
    MIXING:  cpu time    0.0015: real time    0.0015
    --------------------------------------------
      LOOP:  cpu time   23.1305: real time   23.1556

 eigenvalue-minimisations  : 17785
 total energy-change (2. order) : 0.4065622E+00  (-0.7244418E-01)
 number of electron     671.9999859 magnetization      48.0000042
 augmentation part      250.6002310 magnetization      33.9006727

 Broyden mixing:
  rms(total) = 0.28994E+00    rms(broyden)= 0.28965E+00
  rms(prec ) = 0.30635E+00
  weight for this iteration     100.00

 eigenvalues of (default mixing * dielectric matrix)
  average eigenvalue GAMMA=   1.0199
  2.4702  1.3647  0.8519  0.5861  0.3811  0.4655

[...]
   4      -0.818    -0.703     1.520    -0.122    -0.464    -0.290
   5      -0.710    -0.716     1.427    -0.141     0.423     0.302
   6      -0.823    -0.699     1.522    -0.071     0.501     0.209
   7      -0.731    -0.697     1.428     0.161     0.391    -0.176
   8      -0.746    -0.596     1.342     0.163     0.233     0.007
   9      -0.698    -0.650     1.348     0.049    -0.160     0.154
  10      -0.655    -0.908     1.562    -0.016     0.117    -0.590
  11      -0.818    -0.577     1.395     0.131    -0.492     0.184
  12      -0.930    -0.892     1.821     0.099     0.036    -0.067
  13      -0.895    -1.054     1.949     0.037    -0.004    -0.081
  14      -0.658    -0.921     1.579    -0.039     0.034     0.504
  15      -0.807    -0.966     1.773     0.068     0.009    -0.060
  16      -0.972    -0.982     1.955     0.034     0.000     0.029
  17       1.426     1.412    -2.838    -0.020     0.012    -0.153
  18       1.466     1.287    -2.753    -0.083     0.022     0.045
  19       1.715     1.140    -2.854    -0.015    -0.106     0.050
  20       1.439     1.587    -3.025    -0.055     0.020     0.006
  21       1.578     1.345    -2.923     0.111     0.207     0.067
  22       1.393     1.635    -3.027    -0.105    -0.031    -0.006
  23       1.229     1.780    -3.009     0.055    -0.105     0.064
  24       1.450     1.415    -2.865    -0.027    -0.026    -0.027
  25      -0.050    -0.481     0.531    -0.581    -0.048    -0.847
  26      -0.848    -0.010     0.857    -0.022     0.530    -0.105
  27      -0.258     0.028     0.230     0.863    -0.847     0.805
  28       0.901    -1.981     1.080     0.201    -0.655     1.216
  29      -0.877     1.076    -0.199    -0.239    -0.097    -0.504
  30       1.850    -0.825    -1.025    -1.546     0.436     0.971
  31      -0.134    -0.344     0.479     0.112    -0.068     0.699
  32      -1.578     0.480     1.097    -0.684     0.096    -0.313
  33      -0.603    -1.615     2.218     0.456    -0.050    -0.011
  34      -0.374    -0.265     0.639    -0.349     0.702    -0.855
  35       0.608     0.328    -0.936    -1.051     0.418    -1.027
  36      -0.956     0.876     0.080     0.598     0.039     0.006
  37       0.043    -0.441     0.398     0.894    -0.215     0.135
  38      -0.610    -0.124     0.734     0.704    -0.490     0.600
  39      -0.835    -1.315     2.150    -0.405    -0.335    -0.033
  40       0.209     0.130    -0.338    -0.318    -0.883    -0.955
  41      -4.756     3.099     1.656    -5.192     1.205    -4.502
  42      -4.589     1.065     3.525     4.326     3.687     4.006
  43       5.547    -5.745     0.198    -2.531    -4.523    -0.809
  44      -3.656     5.244    -1.587     5.201    -1.163    -3.488
  45      -2.237     2.898    -0.662    -4.780    -1.726     3.946
  46       4.383    -5.117     0.734     0.042     5.536    -0.356
  47      -5.497     4.480     1.017    -3.786     2.735    -5.040
  48       4.491    -4.824     0.334    -0.062    -3.966     0.725
  49      -0.613     3.108    -2.495     6.188     1.950     3.362
  50       4.613    -5.521     0.908     0.979     4.158     0.179
  51      -3.668     2.217     1.450    -4.659    -2.568     4.065
  52      -3.175     3.500    -0.325     4.446    -2.452    -2.374
  53      -4.233     3.506     0.727    -5.848     3.110    -3.605
  54      -2.140     1.818     0.322     5.026     2.891     2.995
  55       3.087    -7.435     4.347     1.086    -6.154     1.569
  56      -4.352     3.967     0.385     5.540    -3.157    -3.320
  57      -3.045     0.161     2.884    -5.575    -2.087     4.750
  58       5.368    -6.221     0.853     0.421     4.440    -0.041
  59      -0.668     1.762    -1.094    -5.326     1.850    -4.736
  60       6.670    -4.934    -1.736    -0.776    -4.153     0.157
  61      -2.423     1.352     1.071     4.447     1.851     3.744
  62       5.950    -6.912     0.961    -0.139     4.627     0.349
  63      -2.412     2.144     0.268    -5.035    -2.524     3.613
  64      -5.659     4.119     1.540     3.194    -1.949    -3.931
  65      -3.391     1.915     1.477    -4.491     1.291    -4.683
  66      -2.688     1.319     1.368     6.090     1.448     4.496
  67       6.696    -6.820     0.124     0.625    -5.298    -0.206
  68      -2.570     0.647     1.923     4.326    -1.546    -3.975
  69      -4.087     2.584     1.504    -5.412    -3.589     4.343
  70       5.919    -6.353     0.435     0.104     3.951    -0.693
  71      -4.558     2.663     1.895    -3.465     2.943    -3.910
  72       5.229    -5.712     0.483    -0.520    -4.800    -1.558
  73      -3.248     3.298    -0.050     3.220     3.757     2.402
  74       5.325    -5.577     0.252    -1.346     3.799    -1.204
  75      -2.242     0.614     1.628    -3.657    -3.603     4.479
  76      -4.610     4.074     0.536     5.183    -2.457    -4.375
  77      -1.808    -0.078     1.886    -4.381     2.464    -2.846
  78      -2.617     2.164     0.453     4.482     3.219     4.470
  79       4.576    -5.874     1.298     0.944    -4.545    -0.717
  80      -5.170     4.274     0.896     3.127    -1.328    -5.838
  81      -3.112     3.284    -0.173    -4.992    -1.516     3.933
  82       6.950    -7.276     0.325    -1.157     5.617    -1.567
  83      -0.945     2.191    -1.246    -5.593     1.291    -2.055
  84       6.222    -6.468     0.245     1.903    -4.772    -0.886
  85      -3.128    -0.148     3.276     6.130     3.710     4.509
  86       4.158    -5.279     1.120     0.980     3.625     0.293
  87      -3.228     3.728    -0.500    -5.514    -1.771     3.821
  88      -2.176     1.294     0.882     4.331    -1.324    -4.338
 ---------------------------------------------------------------------


 Total hyperfine coupling parameters after diagonalization (MHz)
 (convention: |A_zz| > |A_xx| > |A_yy|)
 ----------------------------------------------------------------------
  ion      A_xx      A_yy      A_zz     asymmetry (A_yy - A_xx)/ A_zz 
 ----------------------------------------------------------------------
   1       2.398     2.030     4.709      -0.078
   2       1.939     1.569     4.265      -0.087
   3       1.852     1.609     4.066      -0.060
   4       2.415     2.026     4.679      -0.083
   5       1.506     1.117     3.621      -0.108
   6       2.271     1.965     4.578      -0.067
   7       1.852     1.463     3.917      -0.099
   8       1.720     1.353     3.588      -0.102
   9       0.591     0.461     2.584      -0.050
  10       2.099     1.718     4.461      -0.085
  11       1.953     1.481     3.983      -0.119
  12       0.394     0.191     3.027      -0.067
  13      -0.126     0.050     2.889       0.061
  14       2.014     1.643     4.344      -0.085
  15       0.558     0.347     3.113      -0.068
  16      -0.136    -0.067     2.831       0.024
  17      12.824     8.579    12.865      -0.330
  18      12.690     8.681    12.934      -0.310
  19      13.586     9.589    14.164      -0.282
  20      15.803    11.358    15.988      -0.278
  21      14.799    10.565    15.130      -0.280
  22      15.154    10.773    15.474      -0.283
  23      14.405    10.167    14.965      -0.283
  24      14.076     9.811    14.141      -0.302
  25      98.447    97.102    99.383      -0.014
  26      97.082    96.104    98.122      -0.010
  27      98.288    95.846    98.497      -0.025
  28      96.829    93.760    98.058      -0.031
  29      98.942    98.320   100.534      -0.006
  30      96.466    94.277    99.207      -0.022
  31      97.713    97.049    98.700      -0.007
  32     100.432    98.142   101.204      -0.023
  33      97.679    96.317   100.325      -0.014
  34      95.245    95.106    97.400      -0.001
  35      95.235    94.076    97.488      -0.012
  36      93.801    92.586    94.774      -0.013
  37      94.250    92.680    94.593      -0.017
  38      95.570    93.866    96.299      -0.018
  39      97.560    96.634   100.378      -0.009
  40      97.566    95.527    98.136      -0.021
  41       5.613    -0.615    15.514      -0.401
  42       6.318     0.814    16.767      -0.328
  43       9.074     3.790    18.976      -0.278
  44       4.378     1.096    16.105      -0.204
  45       4.624     2.124    15.217      -0.164
  46       2.713     0.761    14.321      -0.136
  47      -2.732     1.636    13.747       0.318
  48       5.605     2.591    14.456      -0.208
  49       4.384     2.733    17.068      -0.097
  50       3.667    -0.204    12.799      -0.302
  51       4.309     0.009    14.460      -0.297
  52       5.478     1.240    14.056      -0.301
  53       9.319     3.464    20.212      -0.290
  54       5.165     1.392    14.639      -0.258
  55       8.051     1.841    19.818      -0.313
  56       6.758     0.953    17.347      -0.335
  57       8.037     1.967    18.146      -0.335
  58       4.440     0.053    14.396      -0.305
  59       5.566     2.544    16.819      -0.180
  60       4.702     3.135    16.550      -0.095
  61       3.537    -0.175    12.386      -0.300
  62       7.264     2.099    17.751      -0.291
  63       6.274     2.866    16.459      -0.207
  64       7.417     2.016    16.697      -0.323
  65       3.984    -0.484    13.680      -0.327
  66       5.969    -0.235    15.735      -0.394
  67       4.316     0.287    16.807      -0.240
  68       3.585    -0.856    11.947      -0.372
  69       6.859     1.801    18.555      -0.273
  70       3.671    -1.235    13.202      -0.372
  71       5.788     1.211    15.304      -0.299
  72       4.626     0.087    14.688      -0.309
  73       6.773     1.573    14.304      -0.364
  74       5.444     1.324    14.770      -0.279
  75       4.930     3.432    16.414      -0.091
  76       5.887     1.119    17.513      -0.272
  77       4.029    -0.236    11.731      -0.364
  78       3.821     1.633    15.585      -0.140
  79       5.776     1.694    15.541      -0.263
  80       4.369     1.471    17.037      -0.170
  81       6.412     2.708    16.747      -0.221
  82       5.471     0.638    18.564      -0.260
  83       2.116    -1.153    11.177      -0.292
  84       5.971     1.610    17.508      -0.249
  85       6.548     0.504    18.305      -0.330
  86       4.321     0.210    12.241      -0.336
  87       6.296     2.409    17.389      -0.224
  88       4.219     0.452    13.204      -0.285
 ---------------------------------------------------------------------



--------------------------------------------------------------------------------------------------------


 stress matrix after NEB project (eV)
    -47.27501     -0.58104      1.44041
     -0.56010    -48.02436     -0.13372
      1.43736     -0.14964    -63.39886
  FORCES: max atom, RMS     2.227010    1.083642
  FORCE total and by dimension   10.165461    2.092237
  Stress total and by dimension   92.550064   63.398864
     LOOP+:  cpu time  684.4517: real time  685.5093
    4ORBIT:  cpu time    0.0000: real time    0.0000
 


 total charge     
 
# of ion       s       p       d       tot
------------------------------------------
    1        0.053   5.996   0.000   6.048
    2        0.049   5.990   0.000   6.039
    3        0.050   5.992   0.000   6.042
    4        0.050   5.991   0.000   6.041
    5        0.054   5.998   0.000   6.053
    6        0.054   5.996   0.000   6.049
    7        0.048   5.990   0.000   6.038
    8        0.047   5.988   0.000   6.035
    9        0.049   5.992   0.000   6.041
   10        0.053   5.997   0.000   6.049
   11        0.054   5.997   0.000   6.051
   12        0.047   5.990   0.000   6.037
   13        0.048   5.991   0.000   6.039
   14        0.050   5.993   0.000   6.042
   15        0.049   5.993   0.000   6.043
   16        0.054   5.999   0.000   6.053
   17        0.146   6.123   0.079   6.348
   18        0.141   6.115   0.073   6.329
   19        0.152   6.131   0.086   6.368
   20        0.152   6.134   0.089   6.374
   21        0.148   6.126   0.083   6.357
   22        0.153   6.137   0.091   6.381
   23        0.153   6.136   0.090   6.379
   24        0.146   6.124   0.080   6.350
   25        0.352   6.404   4.777  11.533
   26        0.368   6.438   4.815  11.621
   27        0.384   6.474   4.850  11.708
   28        0.379   6.465   4.832  11.676
   29        0.372   6.447   4.825  11.644
   30        0.368   6.440   4.815  11.624
   31        0.365   6.434   4.806  11.605
   32        0.369   6.439   4.815  11.623
   33        0.382   6.468   4.846  11.696
   34        0.372   6.446   4.822  11.641
   35        0.383   6.470   4.848  11.701
   36        0.378   6.461   4.829  11.669
   37        0.384   6.470   4.849  11.702
   38        0.379   6.463   4.834  11.676
   39        0.380   6.461   4.844  11.685
   40        0.382   6.469   4.844  11.695
   41        1.597   3.517   0.000   5.113
   42        1.598   3.509   0.000   5.107
   43        1.599   3.488   0.000   5.087
   44        1.598   3.479   0.000   5.077
   45        1.598   3.497   0.000   5.094
   46        1.598   3.485   0.000   5.083
   47        1.598   3.459   0.000   5.057
   48        1.600   3.541   0.000   5.142
   49        1.601   3.484   0.000   5.085
   50        1.597   3.513   0.000   5.110
   51        1.597   3.507   0.000   5.104
   52        1.597   3.501   0.000   5.098
   53        1.601   3.491   0.000   5.092
   54        1.598   3.493   0.000   5.091
   55        1.601   3.497   0.000   5.098
   56        1.598   3.494   0.000   5.092
   57        1.602   3.526   0.000   5.127
   58        1.598   3.485   0.000   5.083
   59        1.600   3.506   0.000   5.106
   60        1.600   3.495   0.000   5.095
   61        1.597   3.471   0.000   5.068
   62        1.600   3.487   0.000   5.087
   63        1.600   3.533   0.000   5.133
   64        1.600   3.530   0.000   5.130
   65        1.599   3.517   0.000   5.116
   66        1.599   3.492   0.000   5.091
   67        1.604   3.489   0.000   5.093
   68        1.597   3.502   0.000   5.100
   69        1.603   3.521   0.000   5.124
   70        1.598   3.489   0.000   5.086
   71        1.596   3.518   0.000   5.114
   72        1.597   3.484   0.000   5.081
   73        1.597   3.519   0.000   5.117
   74        1.598   3.530   0.000   5.129
   75        1.601   3.539   0.000   5.140
   76        1.602   3.520   0.000   5.122
   77        1.595   3.523   0.000   5.119
   78        1.599   3.495   0.000   5.094
   79        1.596   3.508   0.000   5.104
   80        1.599   3.484   0.000   5.083
   81        1.598   3.504   0.000   5.102
   82        1.604   3.483   0.000   5.087
   83        1.597   3.482   0.000   5.078
   84        1.601   3.508   0.000   5.110
   85        1.604   3.527   0.000   5.131
   86        1.596   3.527   0.000   5.123
   87        1.600   3.516   0.000   5.116
   88        1.595   3.512   0.000   5.107
--------------------------------------------------
tot         84.746 416.344  77.923 579.013
 


 magnetization (x)
 
# of ion       s       p       d       tot
------------------------------------------
    1        0.002   0.000   0.000   0.003
    2        0.002   0.000   0.000   0.002
    3        0.002   0.000   0.000   0.002
    4        0.002   0.000   0.000   0.003
    5        0.001  -0.000   0.000   0.001
    6        0.002   0.000   0.000   0.002
    7        0.002   0.000   0.000   0.002
    8        0.002   0.001   0.000   0.002
    9        0.001   0.001   0.000   0.001
   10        0.002   0.000   0.000   0.002
   11        0.002  -0.000   0.000   0.002
   12        0.001   0.000   0.000   0.001
   13        0.001   0.000   0.000   0.001
   14        0.002   0.000   0.000   0.002
   15        0.001   0.001   0.000   0.002
   16        0.001   0.001   0.000   0.001
   17        0.006   0.001   0.001   0.009
   18        0.006   0.002   0.001   0.009
   19        0.007   0.002   0.001   0.011
   20        0.008   0.003   0.001   0.012
   21        0.008   0.003   0.001   0.011
   22        0.007   0.003   0.001   0.011
   23        0.007   0.003   0.001   0.012
   24        0.007   0.002   0.001   0.010
   25        0.015   0.029   2.825   2.869
   26        0.015   0.030   2.761   2.806
   27        0.016   0.031   2.740   2.787
   28        0.015   0.030   2.757   2.802
   29        0.016   0.031   2.763   2.810
   30        0.015   0.029   2.771   2.815
   31        0.015   0.029   2.783   2.828
   32        0.017   0.030   2.772   2.818
   33        0.016   0.031   2.744   2.790
   34        0.015   0.029   2.758   2.802
   35        0.015   0.030   2.731   2.777
   36        0.015   0.030   2.743   2.788
   37        0.015   0.030   2.724   2.768
   38        0.015   0.030   2.747   2.791
   39        0.016   0.030   2.745   2.790
   40        0.016   0.031   2.740   2.786
   41        0.002   0.040   0.000   0.041
   42        0.002   0.041   0.000   0.043
   43        0.003   0.049   0.000   0.052
   44        0.002   0.031   0.000   0.033
   45        0.002   0.037   0.000   0.039
   46        0.002   0.015   0.000   0.017
   47        0.002  -0.005   0.000  -0.004
   48        0.002   0.035   0.000   0.037
   49        0.002   0.024   0.000   0.027
   50        0.002   0.021   0.000   0.022
   51        0.002   0.024   0.000   0.026
   52        0.002   0.028   0.000   0.030
   53        0.003   0.055   0.000   0.058
   54        0.002   0.022   0.000   0.024
   55        0.002   0.062   0.000   0.064
   56        0.002   0.044   0.000   0.046
   57        0.002   0.055   0.000   0.057
   58        0.002   0.019   0.000   0.021
   59        0.002   0.038   0.000   0.040
   60        0.002   0.033   0.000   0.035
   61        0.002   0.005   0.000   0.006
   62        0.002   0.042   0.000   0.044
   63        0.002   0.044   0.000   0.047
   64        0.002   0.044   0.000   0.047
   65        0.002   0.022   0.000   0.024
   66        0.002   0.031   0.000   0.033
   67        0.002   0.019   0.000   0.021
   68        0.001   0.013   0.000   0.015
   69        0.002   0.055   0.000   0.057
   70        0.002   0.017   0.000   0.018
   71        0.002   0.036   0.000   0.038
   72        0.002   0.019   0.000   0.021
   73        0.002   0.037   0.000   0.039
   74        0.002   0.036   0.000   0.037
   75        0.002   0.044   0.000   0.046
   76        0.002   0.044   0.000   0.047
   77        0.001   0.022   0.000   0.024
   78        0.002   0.029   0.000   0.031
   79        0.002   0.031   0.000   0.033
   80        0.002   0.028   0.000   0.030
   81        0.002   0.039   0.000   0.041
   82        0.002   0.037   0.000   0.039
   83        0.001   0.003   0.000   0.005
   84        0.002   0.044   0.000   0.046
   85        0.002   0.050   0.000   0.052
   86        0.001   0.027   0.000   0.029
   87        0.002   0.043   0.000   0.045
   88        0.002   0.022   0.000   0.024
--------------------------------------------------
tot          0.423   2.055  44.113  46.591
 

 total amount of memory used by VASP MPI-rank0    88192. kBytes
=======================================================================

   base      :      30000. kBytes
   nonlr-proj:      13683. kBytes
   fftplans  :        992. kBytes
   grid      :      21513. kBytes
   one-center:       2737. kBytes
   wavefun   :      19267. kBytes
 
  
  
 General timing and accounting informations for this job:
 ========================================================
  
                  Total CPU time used (sec):      703.180
                            User time (sec):      696.860
                          System time (sec):        6.320
                         Elapsed time (sec):      707.009
  
                   Maximum memory used (kb):      182736.
                   Average memory used (kb):           0.
  
                          Minor page faults:       318964
                          Major page faults:            0
                 Voluntary context switches:         3904
