 vasp.5.4.4.18Apr17-6-g9f103f2a35 (build Dec 02 2020 12:53:39) complex          
  
 executed on             LinuxIFC date 2021.08.03  03:21:32
 running on   96 total cores
 distrk:  each k-point on   96 cores,    1 groups
 distr:  one band on NCORES_PER_BAND=   1 cores,   96 groups


--------------------------------------------------------------------------------------------------------


 INCAR:
 POTCAR:    PAW_PBE Na_pv 19Sep2006               
 POTCAR:    PAW_PBE Mg_pv 13Apr2007               
 POTCAR:    PAW_PBE Mn_pv 02Aug2007               
 POTCAR:    PAW_PBE O 08Apr2002                   

 ----------------------------------------------------------------------------- 
|                                                                             |
|           W    W    AA    RRRRR   N    N  II  N    N   GGGG   !!!           |
|           W    W   A  A   R    R  NN   N  II  NN   N  G    G  !!!           |
|           W    W  A    A  R    R  N N  N  II  N N  N  G       !!!           |
|           W WW W  AAAAAA  RRRRR   N  N N  II  N  N N  G  GGG   !            |
|           WW  WW  A    A  R   R   N   NN  II  N   NN  G    G                |
|           W    W  A    A  R    R  N    N  II  N    N   GGGG   !!!           |
|                                                                             |
|      For optimal performance we recommend to set                            |
|        NCORE= 4 - approx SQRT( number of cores)                             |
|      NCORE specifies how many cores store one orbital (NPAR=cpu/NCORE).     |
|      This setting can  greatly improve the performance of VASP for DFT.     |
|      The default,   NCORE=1            might be grossly inefficient         |
|      on modern multi-core architectures or massively parallel machines.     |
|      Do your own testing !!!!                                               |
|      Unfortunately you need to use the default for GW and RPA calculations. |
|      (for HF NCORE is supported but not extensively tested yet)             |
|                                                                             |
 ----------------------------------------------------------------------------- 

 POTCAR:    PAW_PBE Na_pv 19Sep2006               
   VRHFIN =Na: p6s1                                                             
   LEXCH  = PE                                                                  
   EATOM  =   766.0439 eV,   56.3026 Ry                                         
                                                                                
   TITEL  = PAW_PBE Na_pv 19Sep2006                                             
   LULTRA =        F    use ultrasoft PP ?                                      
   IUNSCR =        1    unscreen: 0-lin 1-nonlin 2-no                           
   RPACOR =    1.800    partial core radius                                     
   POMASS =   22.990; ZVAL   =    7.000    mass and valenz                      
   RCORE  =    2.200    outmost cutoff radius                                   
   RWIGS  =    2.200; RWIGS  =    1.164    wigner-seitz radius (au A)           
   ENMAX  =  259.561; ENMIN  =  194.671 eV                                      
   ICORE  =        2    local potential                                         
   LCOR   =        T    correct aug charges                                     
   LPAW   =        T    paw PP                                                  
   EAUG   =  368.056                                                            
   DEXC   =    0.000                                                            
   RMAX   =    2.245    core radius for proj-oper                               
   RAUG   =    1.300    factor for augmentation sphere                          
   RDEP   =    2.259    radius for radial grids                                 
   RDEPT  =    1.738    core radius for aug-charge                              
                                                                                
   Atomic configuration                                                         
    5 entries                                                                   
     n  l   j            E        occ.                                          
     1  0  0.50     -1033.6933   2.0000                                         
     2  0  0.50       -56.7526   2.0000                                         
     2  1  1.50       -28.6721   6.0000                                         
     3  0  0.50        -2.7440   1.0000                                         
     3  2  1.50        -1.3606   0.0000                                         
   Description                                                                  
     l       E           TYP  RCUT    TYP  RCUT                                 
     1    -28.6720912     23  2.000                                             
     1      6.8029130     23  2.000                                             
     0     -2.7439560     23  2.200                                             
     0     34.0145650     23  2.200                                             
     2     -1.3605826     23  2.200                                             
  local pseudopotential read in
  partial core-charges read in
  partial kinetic energy density read in
  atomic valenz-charges read in
  non local Contribution for L=           1  read in
    real space projection operators read in
  non local Contribution for L=           1  read in
    real space projection operators read in
  non local Contribution for L=           0  read in
    real space projection operators read in
  non local Contribution for L=           0  read in
    real space projection operators read in
    PAW grid and wavefunctions read in
 
   number of l-projection  operators is LMAX  =           4
   number of lm-projection operators is LMMAX =           8
 
 POTCAR:    PAW_PBE Mg_pv 13Apr2007               
   VRHFIN =Mg: p6s2                                                             
   LEXCH  = PE                                                                  
   EATOM  =  1056.7344 eV,   77.6678 Ry                                         
                                                                                
   TITEL  = PAW_PBE Mg_pv 13Apr2007                                             
   LULTRA =        F    use ultrasoft PP ?                                      
   IUNSCR =        1    unscreen: 0-lin 1-nonlin 2-no                           
   RPACOR =    1.500    partial core radius                                     
   POMASS =   24.305; ZVAL   =    8.000    mass and valenz                      
   RCORE  =    2.000    outmost cutoff radius                                   
   RWIGS  =    2.000; RWIGS  =    1.058    wigner-seitz radius (au A)           
   ENMAX  =  403.929; ENMIN  =  302.947 eV                                      
   RCLOC  =    1.506    cutoff for local pot                                    
   LCOR   =        T    correct aug charges                                     
   LPAW   =        T    paw PP                                                  
   EAUG   =  758.780                                                            
   DEXC   =    0.000                                                            
   RMAX   =    2.045    core radius for proj-oper                               
   RAUG   =    1.300    factor for augmentation sphere                          
   RDEP   =    2.025    radius for radial grids                                 
   RDEPT  =    1.557    core radius for aug-charge                              
                                                                                
   Atomic configuration                                                         
    5 entries                                                                   
     n  l   j            E        occ.                                          
     1  0  0.50     -1259.6230   2.0000                                         
     2  0  0.50       -79.8442   2.0000                                         
     2  1  1.50       -46.6121   6.0000                                         
     3  0  0.50        -4.7055   2.0000                                         
     3  2  1.50        -1.3606   0.0000                                         
   Description                                                                  
     l       E           TYP  RCUT    TYP  RCUT                                 
     1    -46.6121073     23  1.600                                             
     1      2.7211652     23  1.600                                             
     0     -4.7054661     23  2.000                                             
     0     61.2262170     23  2.000                                             
     2     -1.3605826     23  2.000                                             
  local pseudopotential read in
  partial core-charges read in
  partial kinetic energy density read in
  atomic valenz-charges read in
  non local Contribution for L=           1  read in
    real space projection operators read in
  non local Contribution for L=           1  read in
    real space projection operators read in
  non local Contribution for L=           0  read in
    real space projection operators read in
  non local Contribution for L=           0  read in
    real space projection operators read in
  non local Contribution for L=           2  read in
    real space projection operators read in
    PAW grid and wavefunctions read in
 
   number of l-projection  operators is LMAX  =           5
   number of lm-projection operators is LMMAX =          13
 
 POTCAR:    PAW_PBE Mn_pv 02Aug2007               
   VRHFIN =Mn: 3p4s3d                                                           
   LEXCH  = PE                                                                  
   EATOM  =  2025.2664 eV,  148.8529 Ry                                         
                                                                                
   TITEL  = PAW_PBE Mn_pv 02Aug2007                                             
   LULTRA =        F    use ultrasoft PP ?                                      
   IUNSCR =        1    unscreen: 0-lin 1-nonlin 2-no                           
   RPACOR =    2.080    partial core radius                                     
   POMASS =   54.938; ZVAL   =   13.000    mass and valenz                      
   RCORE  =    2.300    outmost cutoff radius                                   
   RWIGS  =    2.500; RWIGS  =    1.323    wigner-seitz radius (au A)           
   ENMAX  =  269.864; ENMIN  =  202.398 eV                                      
   ICORE  =        3    local potential                                         
   LCOR   =        T    correct aug charges                                     
   LPAW   =        T    paw PP                                                  
   EAUG   =  569.085                                                            
   DEXC   =    0.000                                                            
   RMAX   =    2.343    core radius for proj-oper                               
   RAUG   =    1.300    factor for augmentation sphere                          
   RDEP   =    2.338    radius for radial grids                                 
   RDEPT  =    1.798    core radius for aug-charge                              
                                                                                
   Atomic configuration                                                         
    8 entries                                                                   
     n  l   j            E        occ.                                          
     1  0  0.50     -6424.8287   2.0000                                         
     2  0  0.50      -739.1154   2.0000                                         
     2  1  1.50      -625.3949   6.0000                                         
     3  0  0.50       -81.6100   2.0000                                         
     3  1  1.50       -50.4667   6.0000                                         
     3  2  2.50        -3.3745   6.0000                                         
     4  0  0.50        -4.1331   1.0000                                         
     4  3  2.50        -1.3606   0.0000                                         
   Description                                                                  
     l       E           TYP  RCUT    TYP  RCUT                                 
     1    -50.4666628     23  2.000                                             
     1     -1.3605826     23  2.000                                             
     2     -3.3744729     23  2.300                                             
     2     -4.7350555     23  2.300                                             
     0     -4.1331431     23  2.300                                             
     0      7.6656591     23  2.300                                             
     3      9.5240782     23  2.300                                             
  local pseudopotential read in
  partial core-charges read in
  partial kinetic energy density read in
  atomic valenz-charges read in
  non local Contribution for L=           1  read in
    real space projection operators read in
  non local Contribution for L=           1  read in
    real space projection operators read in
  non local Contribution for L=           2  read in
    real space projection operators read in
  non local Contribution for L=           2  read in
    real space projection operators read in
  non local Contribution for L=           0  read in
    real space projection operators read in
  non local Contribution for L=           0  read in
    real space projection operators read in
    PAW grid and wavefunctions read in
 
   number of l-projection  operators is LMAX  =           6
   number of lm-projection operators is LMMAX =          18
 
 POTCAR:    PAW_PBE O 08Apr2002                   
   VRHFIN =O: s2p4                                                              
   LEXCH  = PE                                                                  
   EATOM  =   432.3788 eV,   31.7789 Ry                                         
                                                                                
   TITEL  = PAW_PBE O 08Apr2002                                                 
   LULTRA =        F    use ultrasoft PP ?                                      
   IUNSCR =        1    unscreen: 0-lin 1-nonlin 2-no                           
   RPACOR =    1.200    partial core radius                                     
   POMASS =   16.000; ZVAL   =    6.000    mass and valenz                      
   RCORE  =    1.520    outmost cutoff radius                                   
   RWIGS  =    1.550; RWIGS  =    0.820    wigner-seitz radius (au A)           
   ENMAX  =  400.000; ENMIN  =  300.000 eV                                      
   ICORE  =        2    local potential                                         
   LCOR   =        T    correct aug charges                                     
   LPAW   =        T    paw PP                                                  
   EAUG   =  605.392                                                            
   DEXC   =    0.000                                                            
   RMAX   =    1.553    core radius for proj-oper                               
   RAUG   =    1.300    factor for augmentation sphere                          
   RDEP   =    1.550    radius for radial grids                                 
   RDEPT  =    1.329    core radius for aug-charge                              
                                                                                
   Atomic configuration                                                         
    4 entries                                                                   
     n  l   j            E        occ.                                          
     1  0  0.50      -514.6923   2.0000                                         
     2  0  0.50       -23.9615   2.0000                                         
     2  1  0.50        -9.0305   4.0000                                         
     3  2  1.50        -9.5241   0.0000                                         
   Description                                                                  
     l       E           TYP  RCUT    TYP  RCUT                                 
     0    -23.9615318     23  1.200                                             
     0     -9.5240782     23  1.200                                             
     1     -9.0304911     23  1.520                                             
     1      8.1634956     23  1.520                                             
     2     -9.5240782      7  1.500                                             
  local pseudopotential read in
  partial core-charges read in
  partial kinetic energy density read in
  kinetic energy density of atom read in
  atomic valenz-charges read in
  non local Contribution for L=           0  read in
    real space projection operators read in
  non local Contribution for L=           0  read in
    real space projection operators read in
  non local Contribution for L=           1  read in
    real space projection operators read in
  non local Contribution for L=           1  read in
    real space projection operators read in
    PAW grid and wavefunctions read in
 
   number of l-projection  operators is LMAX  =           4
   number of lm-projection operators is LMMAX =           8
 
 Optimization of the real space projectors (new method)

 maximal supplied QI-value         = 17.01
 optimisation between [QCUT,QGAM] = [ 10.20, 20.41] = [ 29.16,116.64] Ry 
 Optimized for a Real-space Cutoff    1.30 Angstroem

   l    n(q)    QCUT    max X(q) W(low)/X(q) W(high)/X(q)  e(spline) 
   1      7    10.205     4.940    0.23E-03    0.84E-03    0.11E-06
   1      7    10.205     6.253    0.40E-03    0.13E-02    0.18E-06
   0      8    10.205    37.438    0.23E-03    0.37E-03    0.42E-07
   0      8    10.205     9.606    0.16E-03    0.26E-03    0.31E-07
 Optimization of the real space projectors (new method)

 maximal supplied QI-value         = 18.90
 optimisation between [QCUT,QGAM] = [ 10.20, 20.41] = [ 29.16,116.64] Ry 
 Optimized for a Real-space Cutoff    1.26 Angstroem

   l    n(q)    QCUT    max X(q) W(low)/X(q) W(high)/X(q)  e(spline) 
   1      7    10.205     2.974    0.63E-04    0.14E-03    0.13E-06
   1      7    10.205     4.279    0.11E-03    0.45E-03    0.24E-06
   0      8    10.205    16.381    0.44E-03    0.15E-03    0.55E-07
   0      8    10.205     5.611    0.31E-03    0.11E-03    0.40E-07
   2      7    10.205     4.652    0.50E-03    0.47E-03    0.57E-07
 Optimization of the real space projectors (new method)

 maximal supplied QI-value         = 16.25
 optimisation between [QCUT,QGAM] = [ 10.24, 20.48] = [ 29.35,117.42] Ry 
 Optimized for a Real-space Cutoff    1.34 Angstroem

   l    n(q)    QCUT    max X(q) W(low)/X(q) W(high)/X(q)  e(spline) 
   1      8    10.239     3.658    0.23E-03    0.30E-03    0.98E-07
   1      8    10.239     5.612    0.32E-03    0.65E-03    0.21E-06
   2      7    10.239    55.373    0.42E-03    0.45E-03    0.65E-07
   2      7    10.239    50.863    0.43E-03    0.48E-03    0.67E-07
   0      8    10.239    79.536    0.11E-03    0.21E-03    0.56E-07
   0      8    10.239    38.668    0.96E-04    0.19E-03    0.52E-07
 Optimization of the real space projectors (new method)

 maximal supplied QI-value         = 24.76
 optimisation between [QCUT,QGAM] = [ 10.15, 20.30] = [ 28.85,115.39] Ry 
 Optimized for a Real-space Cutoff    1.38 Angstroem

   l    n(q)    QCUT    max X(q) W(low)/X(q) W(high)/X(q)  e(spline) 
   0      8    10.150    20.381    0.22E-03    0.32E-03    0.29E-06
   0      8    10.150    15.268    0.23E-03    0.35E-03    0.30E-06
   1      8    10.150     5.964    0.46E-03    0.53E-03    0.21E-06
   1      8    10.150     5.382    0.38E-03    0.45E-03    0.19E-06
  PAW_PBE Na_pv 19Sep2006               :
 energy of atom  1       EATOM= -766.0439
 kinetic energy error for atom=    0.0103 (will be added to EATOM!!)
  PAW_PBE Mg_pv 13Apr2007               :
 energy of atom  2       EATOM=-1056.7344
 kinetic energy error for atom=    0.0820 (will be added to EATOM!!)
  PAW_PBE Mn_pv 02Aug2007               :
 energy of atom  3       EATOM=-2025.2664
 kinetic energy error for atom=    0.0284 (will be added to EATOM!!)
  PAW_PBE O 08Apr2002                   :
 energy of atom  4       EATOM= -432.3788
 kinetic energy error for atom=    0.1156 (will be added to EATOM!!)
 
 
 POSCAR: Na Mg Mn  O                             
  positions in cartesian coordinates
  No initial velocities read in

 METAGGA = SCAN     LMAXTAU =  6    LMIXTAU =  F

 exchange correlation table for  LEXCH =        8
   RHO(1)=    0.500       N(1)  =     2000
   RHO(2)=  100.500       N(2)  =     4000

 VTST: version 3.2, (02/03/18)

 CHAIN: initializing optimizer
 
 OPT: Using VASP Dynamics algorithm
 CHAIN: Read ICHAIN            0
 
 POSCAR: Na Mg Mn  O                             
  positions in cartesian coordinates
  No initial velocities read in
 


--------------------------------------------------------------------------------------------------------


 ion  position               nearest neighbor table
   1  0.185  0.302  0.246-  64 2.17  41 2.28  55 2.34  50 2.35
   2  0.476  0.598  0.747-  85 2.22  80 2.31  82 2.36  83 2.37
   3  0.022  0.303  0.747-  57 2.14  61 2.37  30 2.92
   4  0.152  0.060  0.747-  72 2.19  27 2.85  25 2.92
   5  0.829  0.099  0.241-  53 2.25  62 2.28  54 2.29
   6  0.481  0.852  0.260-  88 2.22  77 2.33  79 2.36
   7  0.973  0.571  0.756-  60 2.33  71 2.37
   8  0.596  0.350  0.748-  45 2.28  48 2.33  49 2.36
   9  0.138  0.601  0.253-  86 2.25  66 2.33  75 2.35  37 2.78  39 2.88
  10  0.710  0.312  0.231-  53 2.09  52 2.23  43 2.34
  11  0.961  0.859  0.254-  65 2.28  74 2.29  67 2.30
  12  0.659  0.055  0.756-  84 2.25  59 2.29  31 2.87  29 2.93
  13  0.818  0.779  0.751-  85 2.27  82 2.29  69 2.30
  14  0.312  0.781  0.753-  81 2.19  70 2.37  73 2.38
  15  0.600  0.548  0.249-  87 2.14  43 2.23  78 2.35  35 2.81  33 2.86
  16  0.331  0.080  0.253-  42 2.20  50 2.22
  17  0.828  0.446  0.998-  71 1.97  60 1.98  66 1.99  49 2.08  43 2.08  53 2.21  33 2.80  34 2.83

  18  0.474  0.223  0.491-  52 2.00  45 2.05  44 2.07  50 2.10  46 2.13  51 2.19  32 2.80  28 2.81
                            35 2.83
  19  0.323  0.438  0.987-  61 2.01  78 2.02  83 2.04  48 2.06  41 2.07  55 2.15  38 2.80  37 2.81

  20  0.976  0.217  0.496-  57 2.00  64 2.00  58 2.06  63 2.09  56 2.10  62 2.19  39 2.83
  21  0.322  0.929  0.015-  42 2.00  77 2.00  73 2.02  47 2.09  84 2.11  67 2.14
  22  0.962  0.714  0.491-  74 2.01  75 2.06  70 2.06  69 2.07  76 2.13  68 2.18  40 2.81  35 2.84
                            27 2.86
  23  0.835  0.936  0.995-  65 2.00  72 2.02  54 2.08  59 2.10  79 2.19  34 2.79  25 2.81
  24  0.467  0.708  0.495-  86 1.98  88 2.00  87 2.05  80 2.11  82 2.12  81 2.22  35 2.83  32 2.85

  25  0.159  0.102  0.005-  67 1.86  47 1.88  72 1.93  61 1.94  41 1.96  54 1.97  23 2.81  26 2.83
                            34 2.86   4 2.92  30 2.94
  26  0.485  0.267  0.011-  49 1.89  43 1.92  41 1.93  47 1.93  48 1.94  42 2.03  25 2.83  33 2.84
                            29 2.88
  27  0.143  0.042  0.493-  44 1.86  63 1.89  69 1.91  76 1.92  58 1.96  50 1.97  36 2.82   4 2.85
                            22 2.86  40 2.88  32 2.92
  28  0.797  0.375  0.500-  52 1.86  75 1.89  57 1.94  46 1.94  62 1.95  68 1.95  18 2.81  31 2.86
                            35 2.92  39 2.95
  29  0.652  0.102  0.013-  53 1.84  49 1.85  79 1.94  42 1.94  84 1.97  59 2.03  26 2.88  30 2.89
                            12 2.93  38 2.98
  30  0.985  0.266  0.006-  59 1.85  54 1.89  53 1.91  55 1.92  60 1.93  61 2.01  37 2.86  29 2.89
                             3 2.92  25 2.94
  31  0.638  0.045  0.501-  46 1.88  62 1.90  56 1.90  51 1.93  81 1.98  88 2.00  28 2.86  12 2.87
                            36 2.88  40 2.89
  32  0.307  0.379  0.503-  58 1.83  45 1.90  87 1.93  64 1.93  80 1.94  50 2.01  18 2.80  35 2.84
                            24 2.85  39 2.90  27 2.92
  33  0.654  0.594  0.998-  43 1.81  48 1.87  78 1.91  65 1.91  71 1.97  85 1.97  17 2.80  38 2.83
                            26 2.84  15 2.86  34 2.95
  34  0.994  0.772  0.999-  73 1.88  67 1.89  66 1.91  65 1.92  72 1.93  71 1.98  23 2.79  17 2.83
                            25 2.86  33 2.95  37 2.96
  35  0.634  0.549  0.498-  87 1.83  68 1.90  82 1.90  45 1.94  74 1.97  52 2.05  15 2.81  24 2.83
                            18 2.83  32 2.84  22 2.84  28 2.92  40 2.93
  36  0.306  0.880  0.494-  51 1.87  86 1.90  76 1.91  44 1.92  70 1.94  81 1.98  27 2.82  31 2.88
                            39 2.93
  37  0.158  0.596  0.006-  55 1.81  77 1.86  60 1.87  66 1.95  83 1.96  73 1.98   9 2.78  19 2.81
                            30 2.86  38 2.91  34 2.96
  38  0.493  0.760  0.991-  78 1.84  79 1.85  83 1.87  85 1.92  84 1.94  77 2.07  19 2.80  33 2.83
                            37 2.91  29 2.98
  39  0.137  0.543  0.504-  64 1.89  57 1.90  75 1.90  86 1.93  80 1.95  70 2.05  20 2.83   9 2.88
                            32 2.90  36 2.93  28 2.95
  40  0.812  0.887  0.500-  56 1.84  74 1.88  63 1.92  82 1.93  88 1.97  69 1.97  22 2.81  27 2.88
                            31 2.89  35 2.93
  41  0.322  0.272  0.097-  26 1.93  25 1.96  19 2.07   1 2.28
  42  0.489  0.100  0.109-  29 1.94  21 2.00  26 2.03  16 2.20
  43  0.646  0.443  0.091-  33 1.81  26 1.92  17 2.08  15 2.23  10 2.34
  44  0.299  0.040  0.583-  27 1.86  36 1.92  18 2.07
  45  0.472  0.391  0.594-  32 1.90  35 1.94  18 2.05   8 2.28
  46  0.643  0.205  0.593-  31 1.88  28 1.94  18 2.13
  47  0.321  0.106  0.918-  25 1.88  26 1.93  21 2.09
  48  0.505  0.431  0.907-  33 1.87  26 1.94  19 2.06   8 2.33
  49  0.640  0.252  0.926-  29 1.85  26 1.89  17 2.08   8 2.36
  50  0.291  0.214  0.392-  27 1.97  32 2.01  18 2.10  16 2.22   1 2.35
  51  0.470  0.026  0.402-  36 1.87  31 1.93  18 2.19
  52  0.654  0.386  0.402-  28 1.86  18 2.00  35 2.05  10 2.23
  53  0.816  0.250  0.098-  29 1.84  30 1.91  10 2.09  17 2.21   5 2.25
  54  1.000  0.116  0.097-  30 1.89  25 1.97  23 2.08   5 2.29
  55  0.144  0.436  0.094-  37 1.81  30 1.92  19 2.15   1 2.34
  56  0.794  0.033  0.587-  40 1.84  31 1.90  20 2.10
  57  0.968  0.384  0.588-  39 1.90  28 1.94  20 2.00   3 2.14
  58  0.155  0.215  0.584-  32 1.83  27 1.96  20 2.06
  59  0.828  0.120  0.912-  30 1.85  29 2.03  23 2.10  12 2.29
  60  0.999  0.438  0.917-  37 1.87  30 1.93  17 1.98   7 2.33
  61  0.146  0.255  0.908-  25 1.94  30 2.01  19 2.01   3 2.37
  62  0.780  0.208  0.401-  31 1.90  28 1.95  20 2.19   5 2.28
  63  0.980  0.037  0.406-  27 1.89  40 1.92  20 2.09
  64  0.152  0.394  0.412-  39 1.89  32 1.93  20 2.00   1 2.17
  65  0.820  0.756  0.085-  33 1.91  34 1.92  23 2.00  11 2.28
  66  0.998  0.615  0.091-  34 1.91  37 1.95  17 1.99   9 2.33
  67  0.133  0.936  0.097-  25 1.86  34 1.89  21 2.14  11 2.30
  68  0.778  0.528  0.594-  35 1.90  28 1.95  22 2.18
  69  0.982  0.896  0.593-  27 1.91  40 1.97  22 2.07  13 2.30
  70  0.140  0.725  0.591-  36 1.94  39 2.05  22 2.06  14 2.37
  71  0.826  0.609  0.902-  17 1.97  33 1.97  34 1.98   7 2.37
  72  0.012  0.940  0.903-  25 1.93  34 1.93  23 2.02   4 2.19
  73  0.152  0.763  0.916-  34 1.88  37 1.98  21 2.02  14 2.38
  74  0.792  0.724  0.404-  40 1.88  35 1.97  22 2.01  11 2.29
  75  0.969  0.529  0.416-  28 1.89  39 1.90  22 2.06   9 2.35
  76  0.154  0.889  0.396-  36 1.91  27 1.92  22 2.13
  77  0.318  0.749  0.096-  37 1.86  21 2.00  38 2.07   6 2.33
  78  0.496  0.608  0.082-  38 1.84  33 1.91  19 2.02  15 2.35
  79  0.634  0.919  0.087-  38 1.85  29 1.94  23 2.19   6 2.36
  80  0.293  0.531  0.600-  32 1.94  39 1.95  24 2.11   2 2.31
  81  0.468  0.894  0.603-  31 1.98  36 1.98  14 2.19  24 2.22
  82  0.654  0.717  0.591-  35 1.90  40 1.93  24 2.12  13 2.29   2 2.36
  83  0.324  0.617  0.901-  38 1.87  37 1.96  19 2.04   2 2.37
  84  0.501  0.934  0.911-  38 1.94  29 1.97  21 2.11  12 2.25
  85  0.638  0.741  0.890-  38 1.92  33 1.97   2 2.22  13 2.27
  86  0.294  0.709  0.411-  36 1.90  39 1.93  24 1.98   9 2.25
  87  0.474  0.532  0.408-  35 1.83  32 1.93  24 2.05  15 2.14
  88  0.642  0.878  0.406-  40 1.97  24 2.00  31 2.00   6 2.22
 
  LATTYP: Found a hexagonal cell.
 ALAT       =    10.0190000534
 C/A-ratio  =     1.1196726572
  
  Lattice vectors:
  
 A1 = (  10.0190000534,   0.0000000000,   0.0000000000)
 A2 = (  -5.0095000267,   8.6767085668,   0.0000000000)
 A3 = (   0.0000000000,   0.0000000000,  11.2180004120)


Analysis of symmetry for initial positions (statically):
=====================================================================
 Subroutine PRICEL returns:
 Original cell was already a primitive cell.
 

 Routine SETGRP: Setting up the symmetry group for a 
 hexagonal supercell.


 Subroutine GETGRP returns: Found  1 space group operations
 (whereof  1 operations were pure point group operations)
 out of a pool of 24 trial point group operations.


The static configuration has the point symmetry C_1 .


Analysis of symmetry for dynamics (positions and initial velocities):
=====================================================================
 Subroutine PRICEL returns:
 Original cell was already a primitive cell.
 

 Routine SETGRP: Setting up the symmetry group for a 
 hexagonal supercell.


 Subroutine GETGRP returns: Found  1 space group operations
 (whereof  1 operations were pure point group operations)
 out of a pool of 24 trial point group operations.


The dynamic configuration has the point symmetry C_1 .


Analysis of structural, dynamic, and magnetic symmetry:
=====================================================================
 Subroutine PRICEL returns:
 Original cell was already a primitive cell.
 

 Routine SETGRP: Setting up the symmetry group for a 
 hexagonal supercell.


 Subroutine GETGRP returns: Found  1 space group operations
 (whereof  1 operations were pure point group operations)
 out of a pool of 24 trial point group operations.


The magnetic configuration has the point symmetry C_1 .


 Subroutine INISYM returns: Found  1 space group operations
 (whereof  1 operations are pure point group operations),
 and found     1 'primitive' translations

 
 

Automatic generation of k-mesh.
 generate k-points for:    2    2    2
Space group operators:
 irot       det(A)        alpha          n_x          n_y          n_z        tau_x        tau_y        tau_z
    1     1.000000     0.000000     1.000000     0.000000     0.000000     0.000000     0.000000     0.000000
 
 Subroutine IBZKPT returns following result:
 ===========================================
 
 Found      8 irreducible k-points:
 
 Following reciprocal coordinates:
            Coordinates               Weight
  0.000000  0.000000  0.000000      1.000000
  0.500000 -0.000000 -0.000000      1.000000
  0.000000  0.500000  0.000000      1.000000
  0.500000  0.500000 -0.000000      1.000000
  0.000000  0.000000  0.500000      1.000000
  0.500000 -0.000000  0.500000      1.000000
  0.000000  0.500000  0.500000      1.000000
  0.500000  0.500000  0.500000      1.000000
 
 Following cartesian coordinates:
            Coordinates               Weight
  0.000000  0.000000  0.000000      1.000000
  0.049905  0.028813 -0.000000      1.000000
  0.000000  0.057626  0.000000      1.000000
  0.049905  0.086438 -0.000000      1.000000
  0.000000  0.000000  0.044571      1.000000
  0.049905  0.028813  0.044571      1.000000
  0.000000  0.057626  0.044571      1.000000
  0.049905  0.086438  0.044571      1.000000
 


--------------------------------------------------------------------------------------------------------




 Dimension of arrays:
   k-points           NKPTS =      8   k-points in BZ     NKDIM =      8   number of bands    NBANDS=    480
   number of dos      NEDOS =    301   number of ions     NIONS =     88
   non local maximal  LDIM  =      6   non local SUM 2l+1 LMDIM =     18
   total plane-waves  NPLWV = 140000
   max r-space proj   IRMAX =   1632   max aug-charges    IRDMAX=   4555
   dimension x,y,z NGX =    50 NGY =   50 NGZ =   56
   dimension x,y,z NGXF=   100 NGYF=  100 NGZF=  112
   support grid    NGXF=   100 NGYF=  100 NGZF=  112
   ions per type =              16   8  16  48
   NGX,Y,Z   is equivalent  to a cutoff of   8.30,  8.30,  8.30 a.u.
   NGXF,Y,Z  is equivalent  to a cutoff of  16.59, 16.59, 16.60 a.u.

 SYSTEM =  unknown system                          
 POSCAR =  Na Mg Mn  O                             

 Startparameter for this run:
   NWRITE =      2    write-flag & timer
   PREC   = normal    normal or accurate (medium, high low for compatibility)
   ISTART =      0    job   : 0-new  1-cont  2-samecut
   ICHARG =      1    charge: 1-file 2-atom 10-const
   ISPIN  =      2    spin polarized calculation?
   LNONCOLLINEAR =      F non collinear calculations
   LSORBIT =      F    spin-orbit coupling
   INIWAV =      1    electr: 0-lowe 1-rand  2-diag
   LASPH  =      T    aspherical Exc in radial PAW
   METAGGA=      F    non-selfconsistent MetaGGA calc.

 Electronic Relaxation 1
   ENCUT  =  400.0 eV  29.40 Ry    5.42 a.u.  16.34 16.34 18.29*2*pi/ulx,y,z
   ENINI  =  400.0     initial cutoff
   ENAUG  =  758.8 eV  augmentation charge cutoff
   NELM   =    200;   NELMIN=  6; NELMDL=-12     # of ELM steps 
   EDIFF  = 0.1E-04   stopping-criterion for ELM
   LREAL  =      T    real-space projection
   NLSPLINE    = F    spline interpolate recip. space projectors
   LCOMPAT=      F    compatible to vasp.4.4
   GGA_COMPAT  = T    GGA compatible to vasp.4.4-vasp.4.6
   LMAXPAW     = -100 max onsite density
   LMAXMIX     =    4 max onsite mixed and CHGCAR
   VOSKOWN=      0    Vosko Wilk Nusair interpolation
   ROPT   =   -0.00050  -0.00050  -0.00050  -0.00050
 Ionic relaxation
   EDIFFG = 0.1E-03   stopping-criterion for IOM
   NSW    =      1    number of steps for IOM
   NBLOCK =      1;   KBLOCK =      1    inner block; outer block 
   IBRION =     -1    ionic relax: 0-MD 1-quasi-New 2-CG
   NFREE  =      0    steps in history (QN), initial steepest desc. (CG)
   ISIF   =      2    stress and relaxation
   IWAVPR =     10    prediction:  0-non 1-charg 2-wave 3-comb
   ISYM   =      2    0-nonsym 1-usesym 2-fastsym
   LCORR  =      T    Harris-Foulkes like correction to forces

   POTIM  = 0.5000    time-step for ionic-motion
   TEIN   =    0.0    initial temperature
   TEBEG  =    0.0;   TEEND  =   0.0 temperature during run
   SMASS  =  -3.00    Nose mass-parameter (am)
   estimated Nose-frequenzy (Omega)   =  0.10E-29 period in steps =****** mass=  -0.229E-26a.u.
   SCALEE = 1.0000    scale energy and forces
   NPACO  =    256;   APACO  = 16.0  distance and # of slots for P.C.
   PSTRESS=    0.0 pullay stress

  Mass of Ions in am
   POMASS =  22.99 24.30 54.94 16.00
  Ionic Valenz
   ZVAL   =   7.00  8.00 13.00  6.00
  Atomic Wigner-Seitz radii
   RWIGS  =  -1.00 -1.00 -1.00 -1.00
  virtual crystal weights 
   VCA    =   1.00  1.00  1.00  1.00
   NELECT =     672.0000    total number of electrons
   NUPDOWN=      48.0000    fix difference up-down

 DOS related values:
   EMIN   =  10.00;   EMAX   =-10.00  energy-range for DOS
   EFERMI =   0.00
   ISMEAR =     0;   SIGMA  =   0.05  broadening in eV -4-tet -1-fermi 0-gaus

 Electronic relaxation 2 (details)
   IALGO  =     48    algorithm
   LDIAG  =      T    sub-space diagonalisation (order eigenvalues)
   LSUBROT=      F    optimize rotation matrix (better conditioning)
   TURBO    =      0    0=normal 1=particle mesh
   IRESTART =      0    0=no restart 2=restart with 2 vectors
   NREBOOT  =      0    no. of reboots
   NMIN     =      0    reboot dimension
   EREF     =   0.00    reference energy to select bands
   IMIX   =      4    mixing-type and parameters
     AMIX     =   0.40;   BMIX     =  1.00
     AMIX_MAG =   1.60;   BMIX_MAG =  1.00
     AMIN     =   0.10
     WC   =   100.;   INIMIX=   1;  MIXPRE=   1;  MAXMIX= -45

 Intra band minimization:
   WEIMIN = 0.0000     energy-eigenvalue tresh-hold
   EBREAK =  0.52E-08  absolut break condition
   DEPER  =   0.30     relativ break condition  

   TIME   =   0.40     timestep for ELM

  volume/ion in A,a.u.               =      11.08        74.78
  Fermi-wavevector in a.u.,A,eV,Ry     =   1.445993  2.732531 28.448379  2.090897
  Thomas-Fermi vector in A             =   2.564112
 
 Write flags
   LWAVE        =      F    write WAVECAR
   LDOWNSAMPLE  =      F    k-point downsampling of WAVECAR
   LCHARG       =      F    write CHGCAR
   LVTOT        =      F    write LOCPOT, total local potential
   LVHAR        =      F    write LOCPOT, Hartree potential only
   LELF         =      F    write electronic localiz. function (ELF)
   LORBIT       =     11    0 simple, 1 ext, 2 COOP (PROOUT), +10 PAW based schemes


 Dipole corrections
   LMONO  =      F    monopole corrections only (constant potential shift)
   LDIPOL =      F    correct potential (dipole corrections)
   IDIPOL =      0    1-x, 2-y, 3-z, 4-all directions 
   EPSILON=  1.0000000 bulk dielectric constant

 Exchange correlation treatment:
   GGA     =    --    GGA type
   LEXCH   =     8    internal setting for exchange type
   VOSKOWN=      0    Vosko Wilk Nusair interpolation
   LHFCALC =     F    Hartree Fock is set to
   LHFONE  =     F    Hartree Fock one center treatment
   AEXX    =    0.0000 exact exchange contribution

 Linear response parameters
   LEPSILON=     F    determine dielectric tensor
   LRPA    =     F    only Hartree local field effects (RPA)
   LNABLA  =     F    use nabla operator in PAW spheres
   LVEL    =     F    velocity operator in full k-point grid
   LINTERFAST=   F  fast interpolation
   KINTER  =     0    interpolate to denser k-point grid
   CSHIFT  =0.1000    complex shift for real part using Kramers Kronig
   OMEGAMAX=  -1.0    maximum frequency
   DEG_THRESHOLD= 0.2000000E-02 threshold for treating states as degnerate
   RTIME   =   -0.100 relaxation time in fs
  (WPLASMAI=    0.000 imaginary part of plasma frequency in eV, 0.658/RTIME)
   DFIELD  = 0.0000000 0.0000000 0.0000000 field for delta impulse in time
 
 Orbital magnetization related:
   ORBITALMAG=     F  switch on orbital magnetization
   LCHIMAG   =     F  perturbation theory with respect to B field
   DQ        =  0.001000  dq finite difference perturbation B field
   LLRAUG    =     F  two centre corrections for induced B field



--------------------------------------------------------------------------------------------------------


 Static calculation
 charge density and potential will be updated during run
 spin polarized calculation
 RMM-DIIS sequential band-by-band
 perform sub-space diagonalisation
    before iterative eigenvector-optimisation
 modified Broyden-mixing scheme, WC =      100.0
 initial mixing is a Kerker type mixing with AMIX =  0.4000 and BMIX =      1.0000
 Hartree-type preconditioning will be used
 using additional bands          144
 real space projection scheme for non local part
 use partial core corrections
 calculate Harris-corrections to forces 
   (improved forces if not selfconsistent)
 use gradient corrections 
 use of overlap-Matrix (Vanderbilt PP)
 Gauss-broadening in eV      SIGMA  =   0.05


--------------------------------------------------------------------------------------------------------


  energy-cutoff  :      400.00
  volume of cell :      975.20
      direct lattice vectors                 reciprocal lattice vectors
    10.019000053  0.000000000  0.000000000     0.099810360  0.057625538 -0.000000000
    -5.009500027  8.676708567  0.000000000     0.000000000  0.115251076  0.000000000
     0.000000000  0.000000000 11.218000412     0.000000000  0.000000000  0.089142446

  length of vectors
    10.019000053 10.019000053 11.218000412     0.115251076  0.115251076  0.089142446


 
 k-points in units of 2pi/SCALE and weight: read from INCAR                         
   0.00000000  0.00000000  0.00000000       0.125
   0.04990518  0.02881277 -0.00000000       0.125
   0.00000000  0.05762554  0.00000000       0.125
   0.04990518  0.08643831 -0.00000000       0.125
   0.00000000  0.00000000  0.04457122       0.125
   0.04990518  0.02881277  0.04457122       0.125
   0.00000000  0.05762554  0.04457122       0.125
   0.04990518  0.08643831  0.04457122       0.125
 
 k-points in reciprocal lattice and weights: read from INCAR                         
   0.00000000  0.00000000  0.00000000       0.125
   0.50000000 -0.00000000 -0.00000000       0.125
   0.00000000  0.50000000  0.00000000       0.125
   0.50000000  0.50000000 -0.00000000       0.125
   0.00000000  0.00000000  0.50000000       0.125
   0.50000000 -0.00000000  0.50000000       0.125
   0.00000000  0.50000000  0.50000000       0.125
   0.50000000  0.50000000  0.50000000       0.125
 
 position of ions in fractional coordinates (direct lattice) 
   0.18466267  0.30197329  0.24610892
   0.47607203  0.59813662  0.74733640
   0.02193992  0.30338677  0.74745852
   0.15168734  0.06008891  0.74657869
   0.82924496  0.09881331  0.24083615
   0.48079292  0.85171500  0.26013905
   0.97317377  0.57057153  0.75590209
   0.59591055  0.34966123  0.74768227
   0.13774590  0.60091351  0.25272686
   0.71025407  0.31179466  0.23061240
   0.96146388  0.85892939  0.25372704
   0.65882700  0.05491319  0.75612138
   0.81779768  0.77908279  0.75051611
   0.31156937  0.78149779  0.75299783
   0.59971200  0.54836100  0.24870653
   0.33101564  0.07960787  0.25297646
   0.82778110  0.44589258  0.99829306
   0.47350579  0.22296127  0.49127383
   0.32330831  0.43774549  0.98717237
   0.97618012  0.21745458  0.49626046
   0.32241576  0.92881995  0.01512204
   0.96156433  0.71369459  0.49113209
   0.83523433  0.93586640  0.99476187
   0.46717699  0.70761279  0.49525939
   0.15924077  0.10194896  0.00490905
   0.48537739  0.26739517  0.01054136
   0.14340799  0.04230256  0.49269476
   0.79730304  0.37519296  0.49971562
   0.65207747  0.10218868  0.01327260
   0.98458132  0.26622422  0.00570508
   0.63766348  0.04546770  0.50066588
   0.30731317  0.37903198  0.50276696
   0.65351616  0.59404899  0.99785283
   0.99374713  0.77237698  0.99906509
   0.63432332  0.54922555  0.49752182
   0.30579344  0.88021050  0.49383756
   0.15841003  0.59563831  0.00625852
   0.49296349  0.75967286  0.99147494
   0.13710638  0.54320368  0.50398911
   0.81151556  0.88693771  0.50001157
   0.32173513  0.27155689  0.09737119
   0.48945224  0.09999241  0.10926635
   0.64633897  0.44333170  0.09071492
   0.29869968  0.03997846  0.58253786
   0.47227142  0.39111836  0.59426455
   0.64341485  0.20503512  0.59282579
   0.32140381  0.10592968  0.91798891
   0.50532845  0.43104018  0.90691742
   0.64008212  0.25187201  0.92590476
   0.29082261  0.21381610  0.39207611
   0.47039556  0.02633619  0.40243447
   0.65360238  0.38579145  0.40170082
   0.81643401  0.25000148  0.09816990
   0.99983139  0.11601173  0.09699055
   0.14356853  0.43646735  0.09351934
   0.79417107  0.03276374  0.58742020
   0.96756974  0.38415834  0.58800408
   0.15546436  0.21521179  0.58387054
   0.82805242  0.12044659  0.91189157
   0.99936200  0.43825489  0.91729360
   0.14633390  0.25477979  0.90771970
   0.78033727  0.20750956  0.40127829
   0.97967698  0.03709027  0.40556069
   0.15174704  0.39350405  0.41174450
   0.81975087  0.75586266  0.08489222
   0.99846381  0.61452220  0.09101533
   0.13290747  0.93625710  0.09698787
   0.77834112  0.52817839  0.59369939
   0.98246515  0.89607712  0.59273219
   0.14009340  0.72489585  0.59077908
   0.82587061  0.60940966  0.90246030
   0.01156945  0.94045800  0.90317344
   0.15218218  0.76252187  0.91636652
   0.79171962  0.72409600  0.40412906
   0.96855059  0.52940582  0.41575235
   0.15391075  0.88922083  0.39612407
   0.31776397  0.74870211  0.09580139
   0.49579079  0.60783072  0.08242485
   0.63422119  0.91908815  0.08685799
   0.29257793  0.53118760  0.59985557
   0.46823006  0.89401297  0.60263503
   0.65440957  0.71676604  0.59083079
   0.32424374  0.61740693  0.90139950
   0.50053561  0.93444881  0.91101797
   0.63768185  0.74124652  0.89022639
   0.29404962  0.70929777  0.41079246
   0.47383042  0.53171314  0.40777321
   0.64212804  0.87838723  0.40559189
 
 position of ions in cartesian coordinates  (Angst):
   0.33740005  2.62013427  2.76085000
   1.77340029  5.18985717  8.38362000
  -1.29999992  2.63239857  8.38499000
   1.21874000  0.52137400  8.37512000
   7.81319997  0.85737430  2.70170000
   0.55039800  7.39008287  2.91824000
   6.89195000  4.95068287  8.47971000
   4.21879992  3.03390857  8.38750000
  -1.63020011  5.21395140  2.83509000
   5.55410021  2.70535140  2.58701000
   5.33009989  7.45268000  2.84631000
   6.32570011  0.47646573  8.48217000
   4.29069976  6.75987430  8.41929000
  -0.79329971  6.78082857  8.44713000
   3.26150008  4.75796857  2.78999000
   2.91765005  0.69073427  2.83789000
   6.05984000  3.86888000 11.19885191
   3.62713000  1.93457000  5.51111000
   1.04634000  3.79819000 11.07410000
   8.69101000  1.88679000  5.56705000
  -1.42264000  8.05910000  0.16963900
   6.05866000  6.19252000  5.50952000
   3.67999000  8.12024000 11.15923911
   1.13586000  6.13975000  5.55582000
   1.08471997  0.88458143  0.05506970
   3.52348000  2.32011000  0.11825300
   1.22489000  0.36704700  5.52705000
   6.10865000  3.25544000  5.60581000
   6.02125003  0.88666143  0.14889200
   8.53087000  2.30995000  0.06399959
   6.16098000  0.39451000  5.61647000
   1.18021000  3.28875000  5.64004000
   3.57169000  5.15439000 11.19391341
   6.08713000  6.70169000 11.20751261
   3.60394000  4.76547000  5.58120000
  -1.34567000  7.63733000  5.53987000
  -1.39674000  5.16818000  0.07020810
   1.13342000  6.59146000 11.12236631
  -1.34751000  4.71322000  5.65375000
   3.68746000  7.69570000  5.60913000
   1.86310000  2.35622000  1.09231000
   4.40291000  0.86760500  1.22575000
   4.25480000  3.84666000  1.01764000
   2.79240003  0.34688143  6.53491000
   2.77238000  3.39362000  6.66646000
   5.41925000  1.77903000  6.65032000
   2.68949000  0.91912100 10.29800000
   2.90359000  3.74001000 10.17380000
   5.15123000  2.18542000 10.38680000
   1.84264000  1.85522000  4.39831000
   4.58096203  0.22851143  4.51451000
   4.61582000  3.34740000  4.50628000
   6.92747000  2.16919000  1.10127000
   9.43615000  1.00660000  1.08804000
  -0.74807005  3.78710000  1.04910000
   7.79267003  0.28428143  6.58968000
   7.76964000  3.33323000  6.59623000
   0.47949400  1.86733000  6.54986000
   7.69288000  1.04508000 10.22960000
   7.81717000  3.80261000 10.29020000
   0.18979995  2.21065000 10.18280000
   6.77868000  1.80050000  4.50154000
   9.62958003  0.32182143  4.54958000
  -0.45090500  3.41432000  4.61895000
   4.42659000  6.55840000  0.95232100
   6.92516000  5.33203000  1.02101000
  -3.35858005  8.12363000  1.08801000
   5.15229000  4.58285000  6.66012000
   5.35442000  7.77500000  6.64927000
  -2.22777000  6.28971000  6.62736000
   5.22156000  5.28767000 10.12380000
  -4.59531005  8.16008000 10.13180000
  -2.29514005  6.61618000 10.27980000
   4.30488000  6.28277000  4.53352000
   7.05185000  4.59350000  4.66391000
  -2.91252000  7.71551000  4.44372000
  -0.56694600  6.49627000  1.07470000
   1.92240000  5.27397000  0.92464200
   1.75009000  7.97466000  0.97437300
   0.27035400  4.60896000  6.72918000
   0.21263900  7.75709000  6.76036000
   2.96589000  6.21917000  6.62794000
   0.15569800  5.35706000 10.11190000
   0.33374500  8.10794000 10.21980000
   2.67566000  6.43158000  9.98656000
  -0.60714400  6.15437000  4.60827000
   2.08369000  4.61352000  4.57440000
   2.03320000  7.62151000  4.54993000
 


--------------------------------------------------------------------------------------------------------


 k-point  1 :   0.0000 0.0000 0.0000  plane waves:   17725
 k-point  2 :   0.5000-0.0000-0.0000  plane waves:   17736
 k-point  3 :   0.0000 0.5000 0.0000  plane waves:   17736
 k-point  4 :   0.5000 0.5000-0.0000  plane waves:   17736
 k-point  5 :   0.0000 0.0000 0.5000  plane waves:   17676
 k-point  6 :   0.5000-0.0000 0.5000  plane waves:   17700
 k-point  7 :   0.0000 0.5000 0.5000  plane waves:   17700
 k-point  8 :   0.5000 0.5000 0.5000  plane waves:   17700

 maximum and minimum number of plane-waves per node :     17736    17676

 maximum number of plane-waves:     17736
 maximum index in each direction: 
   IXMAX=   16   IYMAX=   16   IZMAX=   18
   IXMIN=  -16   IYMIN=  -16   IZMIN=  -18


 serial   3D FFT for wavefunctions
 parallel 3D FFT for charge:
    minimum data exchange during FFTs selected (reduces bandwidth)


 total amount of memory used by VASP MPI-rank0    94432. kBytes
=======================================================================

   base      :      30000. kBytes
   nonlr-proj:      13673. kBytes
   fftplans  :       1275. kBytes
   grid      :      22786. kBytes
   one-center:       2737. kBytes
   wavefun   :      23961. kBytes
 
     INWAV:  cpu time    0.0000: real time    0.0001
 Broyden mixing: mesh for mixing (old mesh)
   NGX = 33   NGY = 33   NGZ = 37
  (NGX  =100   NGY  =100   NGZ  =112)
  gives a total of  40293 points

 initial charge density was supplied:
 charge density of overlapping atoms calculated
 number of electron     672.0000000 magnetization      48.0000000
 keeping initial charge density in first step


--------------------------------------------------------------------------------------------------------


 Maximum index for non-local projection operator         1549
 Maximum index for augmentation-charges          551 (set IRDMAX)


--------------------------------------------------------------------------------------------------------


 First call to EWALD:  gamma=   0.179
 Maximum number of real-space cells 3x 3x 2
 Maximum number of reciprocal cells 3x 3x 3

    FEWALD:  cpu time    0.0033: real time    0.0033


--------------------------------------- Iteration      1(   1)  ---------------------------------------


    POTLOK:  cpu time    0.1904: real time    0.1915
    SETDIJ:  cpu time    4.6569: real time    4.6597
    EDDIAG:  cpu time    4.3573: real time    4.7731
  RMM-DIIS:  cpu time    9.0138: real time    9.0468
    ORTHCH:  cpu time    1.2233: real time    1.3076
       DOS:  cpu time    0.0020: real time    0.0022
    --------------------------------------------
      LOOP:  cpu time   19.4437: real time   19.9809

 eigenvalue-minimisations  :  7680
 total energy-change (2. order) : 0.1598442E+04  (-0.3497281E+05)
 number of electron     672.0000000 magnetization      48.0000000
 augmentation part      672.0000000 magnetization      48.0000000

 Free energy of the ion-electron system (eV)
  ---------------------------------------------------
  alpha Z        PSCENC =      2652.81237852
  Ewald energy   TEWEN  =    -41762.08023867
  -Hartree energ DENC   =    -25845.85208870
  -exchange      EXHF   =         0.00000000
  -V(xc)+E(xc)   XCENC  =      3606.47865578
  PAW double counting   =     55594.23204139   -59034.67079123
  entropy T*S    EENTRO =        -0.05292001
  eigenvalues    EBANDS =     -7474.62315074
  atomic energy  EATOM  =     73862.19814772
  Solvation  Ediel_sol  =         0.00000000
  ---------------------------------------------------
  free energy    TOTEN  =      1598.44203406 eV

  energy without entropy =     1598.49495407  energy(sigma->0) =     1598.46849406


--------------------------------------------------------------------------------------------------------




--------------------------------------- Iteration      1(   2)  ---------------------------------------


    EDDIAG:  cpu time    4.3645: real time    4.7751
  RMM-DIIS:  cpu time    9.0534: real time    9.0601
    ORTHCH:  cpu time    1.1564: real time    1.2408
       DOS:  cpu time    0.0022: real time    0.0022
    --------------------------------------------
      LOOP:  cpu time   14.5766: real time   15.0782

 eigenvalue-minimisations  :  7680
 total energy-change (2. order) :-0.2328445E+04  (-0.8048000E+04)
 number of electron     672.0000000 magnetization      48.0000000
 augmentation part      672.0000000 magnetization      48.0000000

 Free energy of the ion-electron system (eV)
  ---------------------------------------------------
  alpha Z        PSCENC =      2652.81237852
  Ewald energy   TEWEN  =    -41762.08023867
  -Hartree energ DENC   =    -25845.85208870
  -exchange      EXHF   =         0.00000000
  -V(xc)+E(xc)   XCENC  =      3606.47865578
  PAW double counting   =     55594.23204139   -59034.67079123
  entropy T*S    EENTRO =        -0.05314543
  eigenvalues    EBANDS =     -9803.06759114
  atomic energy  EATOM  =     73862.19814772
  Solvation  Ediel_sol  =         0.00000000
  ---------------------------------------------------
  free energy    TOTEN  =      -730.00263176 eV

  energy without entropy =     -729.94948633  energy(sigma->0) =     -729.97605905


--------------------------------------------------------------------------------------------------------




--------------------------------------- Iteration      1(   3)  ---------------------------------------


    EDDIAG:  cpu time    4.3597: real time    4.7843
  RMM-DIIS:  cpu time    8.9627: real time    9.0643
    ORTHCH:  cpu time    1.1829: real time    1.2665
       DOS:  cpu time    0.0018: real time    0.0018
    --------------------------------------------
      LOOP:  cpu time   14.5071: real time   15.1168

 eigenvalue-minimisations  :  7680
 total energy-change (2. order) : 0.8528372E+02  (-0.1425119E+04)
 number of electron     672.0000000 magnetization      48.0000000
 augmentation part      672.0000000 magnetization      48.0000000

 Free energy of the ion-electron system (eV)
  ---------------------------------------------------
  alpha Z        PSCENC =      2652.81237852
  Ewald energy   TEWEN  =    -41762.08023867
  -Hartree energ DENC   =    -25845.85208870
  -exchange      EXHF   =         0.00000000
  -V(xc)+E(xc)   XCENC  =      3606.47865578
  PAW double counting   =     55594.23204139   -59034.67079123
  entropy T*S    EENTRO =        -0.04515275
  eigenvalues    EBANDS =     -9717.79186260
  atomic energy  EATOM  =     73862.19814772
  Solvation  Ediel_sol  =         0.00000000
  ---------------------------------------------------
  free energy    TOTEN  =      -644.71891054 eV

  energy without entropy =     -644.67375780  energy(sigma->0) =     -644.69633417


--------------------------------------------------------------------------------------------------------




--------------------------------------- Iteration      1(   4)  ---------------------------------------


    EDDIAG:  cpu time    4.3690: real time    4.7853
  RMM-DIIS:  cpu time    9.0466: real time    9.0632
    ORTHCH:  cpu time    1.1583: real time    1.2416
       DOS:  cpu time    0.0015: real time    0.0015
    --------------------------------------------
      LOOP:  cpu time   14.5754: real time   15.0916

 eigenvalue-minimisations  :  7680
 total energy-change (2. order) :-0.4657090E+03  (-0.4285159E+03)
 number of electron     672.0000000 magnetization      48.0000000
 augmentation part      672.0000000 magnetization      48.0000000

 Free energy of the ion-electron system (eV)
  ---------------------------------------------------
  alpha Z        PSCENC =      2652.81237852
  Ewald energy   TEWEN  =    -41762.08023867
  -Hartree energ DENC   =    -25845.85208870
  -exchange      EXHF   =         0.00000000
  -V(xc)+E(xc)   XCENC  =      3606.47865578
  PAW double counting   =     55594.23204139   -59034.67079123
  entropy T*S    EENTRO =        -0.00000000
  eigenvalues    EBANDS =    -10183.54602372
  atomic energy  EATOM  =     73862.19814772
  Solvation  Ediel_sol  =         0.00000000
  ---------------------------------------------------
  free energy    TOTEN  =     -1110.42791892 eV

  energy without entropy =    -1110.42791892  energy(sigma->0) =    -1110.42791892


--------------------------------------------------------------------------------------------------------




--------------------------------------- Iteration      1(   5)  ---------------------------------------


    EDDIAG:  cpu time    4.3543: real time    4.7840
  RMM-DIIS:  cpu time    8.9506: real time    9.0447
    ORTHCH:  cpu time    1.1781: real time    1.2617
       DOS:  cpu time    0.0013: real time    0.0013
    --------------------------------------------
      LOOP:  cpu time   14.4843: real time   15.0917

 eigenvalue-minimisations  :  7680
 total energy-change (2. order) :-0.1042843E+03  (-0.1596064E+03)
 number of electron     672.0000000 magnetization      48.0000000
 augmentation part      672.0000000 magnetization      48.0000000

 Free energy of the ion-electron system (eV)
  ---------------------------------------------------
  alpha Z        PSCENC =      2652.81237852
  Ewald energy   TEWEN  =    -41762.08023867
  -Hartree energ DENC   =    -25845.85208870
  -exchange      EXHF   =         0.00000000
  -V(xc)+E(xc)   XCENC  =      3606.47865578
  PAW double counting   =     55594.23204139   -59034.67079123
  entropy T*S    EENTRO =        -0.00000000
  eigenvalues    EBANDS =    -10287.83036183
  atomic energy  EATOM  =     73862.19814772
  Solvation  Ediel_sol  =         0.00000000
  ---------------------------------------------------
  free energy    TOTEN  =     -1214.71225702 eV

  energy without entropy =    -1214.71225702  energy(sigma->0) =    -1214.71225702


--------------------------------------------------------------------------------------------------------




--------------------------------------- Iteration      1(   6)  ---------------------------------------


    EDDIAG:  cpu time    4.3752: real time    4.7866
  RMM-DIIS:  cpu time    9.0412: real time    9.0592
    ORTHCH:  cpu time    1.1575: real time    1.2423
       DOS:  cpu time    0.0014: real time    0.0014
    --------------------------------------------
      LOOP:  cpu time   14.5753: real time   15.0895

 eigenvalue-minimisations  :  7680
 total energy-change (2. order) :-0.9027352E+01  (-0.7907620E+02)
 number of electron     672.0000000 magnetization      48.0000000
 augmentation part      672.0000000 magnetization      48.0000000

 Free energy of the ion-electron system (eV)
  ---------------------------------------------------
  alpha Z        PSCENC =      2652.81237852
  Ewald energy   TEWEN  =    -41762.08023867
  -Hartree energ DENC   =    -25845.85208870
  -exchange      EXHF   =         0.00000000
  -V(xc)+E(xc)   XCENC  =      3606.47865578
  PAW double counting   =     55594.23204139   -59034.67079123
  entropy T*S    EENTRO =        -0.00000000
  eigenvalues    EBANDS =    -10296.85771409
  atomic energy  EATOM  =     73862.19814772
  Solvation  Ediel_sol  =         0.00000000
  ---------------------------------------------------
  free energy    TOTEN  =     -1223.73960929 eV

  energy without entropy =    -1223.73960929  energy(sigma->0) =    -1223.73960929


--------------------------------------------------------------------------------------------------------




--------------------------------------- Iteration      1(   7)  ---------------------------------------


    EDDIAG:  cpu time    4.3560: real time    4.7772
  RMM-DIIS:  cpu time    8.9995: real time    9.0419
    ORTHCH:  cpu time    1.1862: real time    1.2688
       DOS:  cpu time    0.0012: real time    0.0012
    --------------------------------------------
      LOOP:  cpu time   14.5429: real time   15.0891

 eigenvalue-minimisations  :  7680
 total energy-change (2. order) :-0.1885085E+01  (-0.4826469E+02)
 number of electron     672.0000000 magnetization      48.0000000
 augmentation part      672.0000000 magnetization      48.0000000

 Free energy of the ion-electron system (eV)
  ---------------------------------------------------
  alpha Z        PSCENC =      2652.81237852
  Ewald energy   TEWEN  =    -41762.08023867
  -Hartree energ DENC   =    -25845.85208870
  -exchange      EXHF   =         0.00000000
  -V(xc)+E(xc)   XCENC  =      3606.47865578
  PAW double counting   =     55594.23204139   -59034.67079123
  entropy T*S    EENTRO =        -0.00000000
  eigenvalues    EBANDS =    -10298.74279885
  atomic energy  EATOM  =     73862.19814772
  Solvation  Ediel_sol  =         0.00000000
  ---------------------------------------------------
  free energy    TOTEN  =     -1225.62469405 eV

  energy without entropy =    -1225.62469405  energy(sigma->0) =    -1225.62469405


--------------------------------------------------------------------------------------------------------




--------------------------------------- Iteration      1(   8)  ---------------------------------------


    EDDIAG:  cpu time    4.3479: real time    4.7810
  RMM-DIIS:  cpu time    9.0567: real time    9.0628
    ORTHCH:  cpu time    1.1606: real time    1.2430
       DOS:  cpu time    0.0013: real time    0.0013
    --------------------------------------------
      LOOP:  cpu time   14.5665: real time   15.0881

 eigenvalue-minimisations  :  7680
 total energy-change (2. order) : 0.4973236E+01  (-0.3001191E+02)
 number of electron     672.0000000 magnetization      48.0000000
 augmentation part      672.0000000 magnetization      48.0000000

 Free energy of the ion-electron system (eV)
  ---------------------------------------------------
  alpha Z        PSCENC =      2652.81237852
  Ewald energy   TEWEN  =    -41762.08023867
  -Hartree energ DENC   =    -25845.85208870
  -exchange      EXHF   =         0.00000000
  -V(xc)+E(xc)   XCENC  =      3606.47865578
  PAW double counting   =     55594.23204139   -59034.67079123
  entropy T*S    EENTRO =        -0.00000000
  eigenvalues    EBANDS =    -10293.76956249
  atomic energy  EATOM  =     73862.19814772
  Solvation  Ediel_sol  =         0.00000000
  ---------------------------------------------------
  free energy    TOTEN  =     -1220.65145769 eV

  energy without entropy =    -1220.65145769  energy(sigma->0) =    -1220.65145769


--------------------------------------------------------------------------------------------------------




--------------------------------------- Iteration      1(   9)  ---------------------------------------


    EDDIAG:  cpu time    4.3664: real time    4.7839
  RMM-DIIS:  cpu time   18.9692: real time   19.0278
    ORTHCH:  cpu time    1.1572: real time    1.2410
       DOS:  cpu time    0.0014: real time    0.0014
    --------------------------------------------
      LOOP:  cpu time   24.4942: real time   25.0541

 eigenvalue-minimisations  : 21799
 total energy-change (2. order) : 0.9319537E+01  (-0.1323622E+02)
 number of electron     672.0000000 magnetization      48.0000000
 augmentation part      672.0000000 magnetization      48.0000000

 Free energy of the ion-electron system (eV)
  ---------------------------------------------------
  alpha Z        PSCENC =      2652.81237852
  Ewald energy   TEWEN  =    -41762.08023867
  -Hartree energ DENC   =    -25845.85208870
  -exchange      EXHF   =         0.00000000
  -V(xc)+E(xc)   XCENC  =      3606.47865578
  PAW double counting   =     55594.23204139   -59034.67079123
  entropy T*S    EENTRO =        -0.00000000
  eigenvalues    EBANDS =    -10284.45002514
  atomic energy  EATOM  =     73862.19814772
  Solvation  Ediel_sol  =         0.00000000
  ---------------------------------------------------
  free energy    TOTEN  =     -1211.33192034 eV

  energy without entropy =    -1211.33192034  energy(sigma->0) =    -1211.33192034


--------------------------------------------------------------------------------------------------------




--------------------------------------- Iteration      1(  10)  ---------------------------------------


    EDDIAG:  cpu time    4.3808: real time    4.7987
  RMM-DIIS:  cpu time   17.4919: real time   17.5623
    ORTHCH:  cpu time    1.1572: real time    1.2407
       DOS:  cpu time    0.0017: real time    0.0017
    --------------------------------------------
      LOOP:  cpu time   23.0315: real time   23.6033

 eigenvalue-minimisations  : 19626
 total energy-change (2. order) :-0.1888053E+01  (-0.5264061E+00)
 number of electron     672.0000000 magnetization      48.0000000
 augmentation part      672.0000000 magnetization      48.0000000

 Free energy of the ion-electron system (eV)
  ---------------------------------------------------
  alpha Z        PSCENC =      2652.81237852
  Ewald energy   TEWEN  =    -41762.08023867
  -Hartree energ DENC   =    -25845.85208870
  -exchange      EXHF   =         0.00000000
  -V(xc)+E(xc)   XCENC  =      3606.47865578
  PAW double counting   =     55594.23204139   -59034.67079123
  entropy T*S    EENTRO =        -0.00000006
  eigenvalues    EBANDS =    -10286.33807789
  atomic energy  EATOM  =     73862.19814772
  Solvation  Ediel_sol  =         0.00000000
  ---------------------------------------------------
  free energy    TOTEN  =     -1213.21997315 eV

  energy without entropy =    -1213.21997309  energy(sigma->0) =    -1213.21997312


--------------------------------------------------------------------------------------------------------




--------------------------------------- Iteration      1(  11)  ---------------------------------------


    EDDIAG:  cpu time    4.3538: real time    4.7847
  RMM-DIIS:  cpu time   19.7034: real time   19.7432
    ORTHCH:  cpu time    1.1927: real time    1.2743
       DOS:  cpu time    0.0012: real time    0.0012
    --------------------------------------------
      LOOP:  cpu time   25.2511: real time   25.8034

 eigenvalue-minimisations  : 22585
 total energy-change (2. order) : 0.7181311E-01  (-0.4307869E-01)
 number of electron     672.0000000 magnetization      48.0000000
 augmentation part      672.0000000 magnetization      48.0000000

 Free energy of the ion-electron system (eV)
  ---------------------------------------------------
  alpha Z        PSCENC =      2652.81237852
  Ewald energy   TEWEN  =    -41762.08023867
  -Hartree energ DENC   =    -25845.85208870
  -exchange      EXHF   =         0.00000000
  -V(xc)+E(xc)   XCENC  =      3606.47865578
  PAW double counting   =     55594.23204139   -59034.67079123
  entropy T*S    EENTRO =        -0.00000005
  eigenvalues    EBANDS =    -10286.26626480
  atomic energy  EATOM  =     73862.19814772
  Solvation  Ediel_sol  =         0.00000000
  ---------------------------------------------------
  free energy    TOTEN  =     -1213.14816005 eV

  energy without entropy =    -1213.14815999  energy(sigma->0) =    -1213.14816002


--------------------------------------------------------------------------------------------------------




--------------------------------------- Iteration      1(  12)  ---------------------------------------


    EDDIAG:  cpu time    4.3456: real time    4.7830
  RMM-DIIS:  cpu time   21.5366: real time   21.5925
    ORTHCH:  cpu time    1.1595: real time    1.2409
       DOS:  cpu time    0.0016: real time    0.0016
    CHARGE:  cpu time    1.8026: real time    1.8048
    MIXING:  cpu time    0.0009: real time    0.0011
    --------------------------------------------
      LOOP:  cpu time   28.8469: real time   29.4240

 eigenvalue-minimisations  : 24439
 total energy-change (2. order) :-0.9554358E-03  (-0.4319567E-02)
 number of electron     671.9999432 magnetization      47.9999989
 augmentation part      239.1604307 magnetization      29.0501264

 Broyden mixing:
  rms(total) = 0.12698E+02    rms(broyden)= 0.12688E+02
  rms(prec ) = 0.14520E+02
  weight for this iteration     100.00

 Free energy of the ion-electron system (eV)
  ---------------------------------------------------
  alpha Z        PSCENC =      2652.81237852
  Ewald energy   TEWEN  =    -41762.08023867
  -Hartree energ DENC   =    -25845.85208870
  -exchange      EXHF   =         0.00000000
  -V(xc)+E(xc)   XCENC  =      3606.47865578
  PAW double counting   =     55594.23204139   -59034.67079123
  entropy T*S    EENTRO =        -0.00000005
  eigenvalues    EBANDS =    -10286.26722023
  atomic energy  EATOM  =     73862.19814772
  Solvation  Ediel_sol  =         0.00000000
  ---------------------------------------------------
  free energy    TOTEN  =     -1213.14911548 eV

  energy without entropy =    -1213.14911543  energy(sigma->0) =    -1213.14911546


--------------------------------------------------------------------------------------------------------




--------------------------------------- Iteration      1(  13)  ---------------------------------------


    POTLOK:  cpu time    0.1713: real time    0.1718
    SETDIJ:  cpu time    5.0103: real time    5.0140
    EDDIAG:  cpu time    4.4436: real time    4.8625
  RMM-DIIS:  cpu time   17.2486: real time   17.2879
    ORTHCH:  cpu time    1.1556: real time    1.2414
       DOS:  cpu time    0.0015: real time    0.0015
    CHARGE:  cpu time    1.8047: real time    1.8060
    MIXING:  cpu time    0.0011: real time    0.0011
    --------------------------------------------
      LOOP:  cpu time   29.8367: real time   30.3863

 eigenvalue-minimisations  : 18726
 total energy-change (2. order) : 0.2298477E+03  (-0.1206408E+03)
 number of electron     671.9999407 magnetization      47.9999985
 augmentation part      268.5211230 magnetization      26.7727010

 Broyden mixing:
  rms(total) = 0.13804E+02    rms(broyden)= 0.13801E+02
  rms(prec ) = 0.15476E+02
  weight for this iteration     100.00

 eigenvalues of (default mixing * dielectric matrix)
  average eigenvalue GAMMA=   0.3212
  0.3212

 Free energy of the ion-electron system (eV)
  ---------------------------------------------------
  alpha Z        PSCENC =      2652.81237852
  Ewald energy   TEWEN  =    -41762.08023867
  -Hartree energ DENC   =    -25182.64291454
  -exchange      EXHF   =         0.00000000
  -V(xc)+E(xc)   XCENC  =      3697.24285888
  PAW double counting   =     60005.14230754   -63430.76059841
  entropy T*S    EENTRO =        -0.08658486
  eigenvalues    EBANDS =    -10825.12672967
  atomic energy  EATOM  =     73862.19814772
  Solvation  Ediel_sol  =         0.00000000
  ---------------------------------------------------
  free energy    TOTEN  =      -983.30137349 eV

  energy without entropy =     -983.21478863  energy(sigma->0) =     -983.25808106


--------------------------------------------------------------------------------------------------------




--------------------------------------- Iteration      1(  14)  ---------------------------------------


    POTLOK:  cpu time    0.2198: real time    0.2200
    SETDIJ:  cpu time    4.9992: real time    5.0026
    EDDIAG:  cpu time    4.3905: real time    4.8037
  RMM-DIIS:  cpu time   17.6557: real time   17.6831
    ORTHCH:  cpu time    1.1526: real time    1.2363
       DOS:  cpu time    0.0011: real time    0.0011
    CHARGE:  cpu time    1.8067: real time    1.8094
    MIXING:  cpu time    0.0011: real time    0.0011
    --------------------------------------------
      LOOP:  cpu time   30.2266: real time   30.7573

 eigenvalue-minimisations  : 19348
 total energy-change (2. order) : 0.6835805E+02  (-0.1726449E+02)
 number of electron     671.9999414 magnetization      47.9999977
 augmentation part      246.6752968 magnetization      32.2044527

 Broyden mixing:
  rms(total) = 0.53564E+01    rms(broyden)= 0.53522E+01
  rms(prec ) = 0.57635E+01
  weight for this iteration     100.00

 eigenvalues of (default mixing * dielectric matrix)
  average eigenvalue GAMMA=   0.7366
  1.1134  0.3598

 Free energy of the ion-electron system (eV)
  ---------------------------------------------------
  alpha Z        PSCENC =      2652.81237852
  Ewald energy   TEWEN  =    -41762.08023867
  -Hartree energ DENC   =    -25791.69709920
  -exchange      EXHF   =         0.00000000
  -V(xc)+E(xc)   XCENC  =      3674.97240042
  PAW double counting   =     63433.67524858   -66916.85441201
  entropy T*S    EENTRO =        -0.00000000
  eigenvalues    EBANDS =    -10067.96975078
  atomic energy  EATOM  =     73862.19814772
  Solvation  Ediel_sol  =         0.00000000
  ---------------------------------------------------
  free energy    TOTEN  =      -914.94332541 eV

  energy without entropy =     -914.94332541  energy(sigma->0) =     -914.94332541


--------------------------------------------------------------------------------------------------------




--------------------------------------- Iteration      1(  15)  ---------------------------------------


    POTLOK:  cpu time    0.1697: real time    0.1698
    SETDIJ:  cpu time    5.0091: real time    5.0116
    EDDIAG:  cpu time    4.3852: real time    4.8016
  RMM-DIIS:  cpu time   18.0614: real time   18.1038
    ORTHCH:  cpu time    1.2000: real time    1.2822
       DOS:  cpu time    0.0043: real time    0.0043
    CHARGE:  cpu time    1.8028: real time    1.8060
    MIXING:  cpu time    0.0010: real time    0.0010
    --------------------------------------------
      LOOP:  cpu time   30.6336: real time   31.1803

 eigenvalue-minimisations  : 20236
 total energy-change (2. order) : 0.1382620E+02  (-0.1814448E+01)
 number of electron     671.9999410 magnetization      47.9999972
 augmentation part      249.6119401 magnetization      33.7881868

 Broyden mixing:
  rms(total) = 0.21548E+01    rms(broyden)= 0.21546E+01
  rms(prec ) = 0.22386E+01
  weight for this iteration     100.00

 eigenvalues of (default mixing * dielectric matrix)
  average eigenvalue GAMMA=   0.9720
  0.3875  0.7600  1.7685

 Free energy of the ion-electron system (eV)
  ---------------------------------------------------
  alpha Z        PSCENC =      2652.81237852
  Ewald energy   TEWEN  =    -41762.08023867
  -Hartree energ DENC   =    -25718.56085218
  -exchange      EXHF   =         0.00000000
  -V(xc)+E(xc)   XCENC  =      3707.66248100
  PAW double counting   =     67596.36535018   -71120.21362493
  entropy T*S    EENTRO =        -0.00000000
  eigenvalues    EBANDS =    -10119.30076878
  atomic energy  EATOM  =     73862.19814772
  Solvation  Ediel_sol  =         0.00000000
  ---------------------------------------------------
  free energy    TOTEN  =      -901.11712714 eV

  energy without entropy =     -901.11712714  energy(sigma->0) =     -901.11712714


--------------------------------------------------------------------------------------------------------




--------------------------------------- Iteration      1(  16)  ---------------------------------------


    POTLOK:  cpu time    0.1736: real time    0.1740
    SETDIJ:  cpu time    5.0701: real time    5.0727
    EDDIAG:  cpu time    4.3945: real time    4.8035
  RMM-DIIS:  cpu time   17.1963: real time   17.2292
    ORTHCH:  cpu time    1.1827: real time    1.2660
       DOS:  cpu time    0.0012: real time    0.0012
    CHARGE:  cpu time    1.8003: real time    1.8028
    MIXING:  cpu time    0.0011: real time    0.0011
    --------------------------------------------
      LOOP:  cpu time   29.8197: real time   30.3506

 eigenvalue-minimisations  : 18979
 total energy-change (2. order) :-0.1584983E+01  (-0.6681986E+00)
 number of electron     671.9999414 magnetization      47.9999970
 augmentation part      251.2272055 magnetization      33.8600650

 Broyden mixing:
  rms(total) = 0.13853E+01    rms(broyden)= 0.13848E+01
  rms(prec ) = 0.14779E+01
  weight for this iteration     100.00

 eigenvalues of (default mixing * dielectric matrix)
  average eigenvalue GAMMA=   0.9852
  2.1057  0.9044  0.3953  0.5352

 Free energy of the ion-electron system (eV)
  ---------------------------------------------------
  alpha Z        PSCENC =      2652.81237852
  Ewald energy   TEWEN  =    -41762.08023867
  -Hartree energ DENC   =    -25663.77508196
  -exchange      EXHF   =         0.00000000
  -V(xc)+E(xc)   XCENC  =      3709.06351294
  PAW double counting   =     70699.98440940   -74254.73765736
  entropy T*S    EENTRO =        -0.00000000
  eigenvalues    EBANDS =    -10146.16758042
  atomic energy  EATOM  =     73862.19814772
  Solvation  Ediel_sol  =         0.00000000
  ---------------------------------------------------
  free energy    TOTEN  =      -902.70210982 eV

  energy without entropy =     -902.70210982  energy(sigma->0) =     -902.70210982


--------------------------------------------------------------------------------------------------------




--------------------------------------- Iteration      1(  17)  ---------------------------------------


    POTLOK:  cpu time    0.1750: real time    0.1752
    SETDIJ:  cpu time    5.0751: real time    5.0773
    EDDIAG:  cpu time    4.4078: real time    4.8256
  RMM-DIIS:  cpu time   18.3232: real time   18.3683
    ORTHCH:  cpu time    1.1559: real time    1.2399
       DOS:  cpu time    0.0022: real time    0.0022
    CHARGE:  cpu time    1.8013: real time    1.8030
    MIXING:  cpu time    0.0021: real time    0.0021
    --------------------------------------------
      LOOP:  cpu time   30.9427: real time   31.4935

 eigenvalue-minimisations  : 20756
 total energy-change (2. order) : 0.2052810E+00  (-0.5295598E-01)
 number of electron     671.9999412 magnetization      47.9999969
 augmentation part      251.0911835 magnetization      33.8517531

 Broyden mixing:
  rms(total) = 0.74301E+00    rms(broyden)= 0.74293E+00
  rms(prec ) = 0.83593E+00
  weight for this iteration     100.00

 eigenvalues of (default mixing * dielectric matrix)
  average eigenvalue GAMMA=   1.0176
  2.2644  1.1562  0.3857  0.7057  0.5762

 Free energy of the ion-electron system (eV)
  ---------------------------------------------------
  alpha Z        PSCENC =      2652.81237852
  Ewald energy   TEWEN  =    -41762.08023867
  -Hartree energ DENC   =    -25656.25348767
  -exchange      EXHF   =         0.00000000
  -V(xc)+E(xc)   XCENC  =      3705.70741692
  PAW double counting   =     71493.78841926   -75056.16882863
  entropy T*S    EENTRO =        -0.00000000
  eigenvalues    EBANDS =    -10142.50063630
  atomic energy  EATOM  =     73862.19814772
  Solvation  Ediel_sol  =         0.00000000
  ---------------------------------------------------
  free energy    TOTEN  =      -902.49682884 eV

  energy without entropy =     -902.49682884  energy(sigma->0) =     -902.49682884


--------------------------------------------------------------------------------------------------------




--------------------------------------- Iteration      1(  18)  ---------------------------------------


    POTLOK:  cpu time    0.1726: real time    0.1728
    SETDIJ:  cpu time    5.0286: real time    5.0309
    EDDIAG:  cpu time    4.4039: real time    4.8040
  RMM-DIIS:  cpu time   17.4996: real time   17.6352
    ORTHCH:  cpu time    1.1519: real time    1.2371
       DOS:  cpu time    0.0016: real time    0.0016
    CHARGE:  cpu time    1.8054: real time    1.8082
    MIXING:  cpu time    0.0013: real time    0.0013
    --------------------------------------------
      LOOP:  cpu time   30.0649: real time   30.6909

 eigenvalue-minimisations  : 18966
 total energy-change (2. order) : 0.3815700E+00  (-0.7203589E-01)
 number of electron     671.9999413 magnetization      47.9999969
 augmentation part      250.5867584 magnetization      33.8124491

 Broyden mixing:
  rms(total) = 0.25957E+00    rms(broyden)= 0.25925E+00
  rms(prec ) = 0.27165E+00
  weight for this iteration     100.00

 eigenvalues of (default mixing * dielectric matrix)
  average eigenvalue GAMMA=   1.0225
[...]
   4      -1.067    -0.820     1.888     0.002     0.026    -0.022
   5      -0.618    -0.811     1.429     0.024     0.064    -0.503
   6      -0.825    -0.603     1.428     0.097    -0.440     0.287
   7      -0.584    -0.731     1.315    -0.051     0.037     0.448
   8      -0.835    -0.721     1.556    -0.136    -0.334    -0.226
   9      -1.081    -0.776     1.857    -0.013     0.057     0.071
  10      -0.713    -0.670     1.383    -0.118     0.197     0.314
  11      -0.844    -0.686     1.529     0.180    -0.351     0.290
  12      -1.067    -0.768     1.835    -0.009    -0.122    -0.028
  13      -0.879    -0.672     1.551     0.091     0.353    -0.235
  14      -0.823    -0.685     1.508     0.030     0.365    -0.290
  15      -1.058    -0.836     1.894    -0.005    -0.088     0.004
  16      -0.625    -0.744     1.369     0.068     0.047    -0.589
  17       1.607     1.459    -3.066     0.143    -0.049    -0.062
  18       1.333     1.482    -2.815     0.112    -0.032    -0.028
  19       1.409     1.468    -2.876     0.021     0.016    -0.120
  20       1.349     1.603    -2.952     0.060    -0.074     0.027
  21       1.380     1.538    -2.918    -0.045     0.046     0.081
  22       1.426     1.431    -2.856    -0.050     0.021    -0.008
  23       1.297     1.476    -2.773    -0.122    -0.023     0.044
  24       1.527     1.349    -2.877    -0.003     0.003    -0.014
  25       1.129    -1.318     0.189     0.649     0.895    -0.138
  26      -0.379    -0.980     1.359    -0.150     0.676     0.410
  27      -0.556     1.329    -0.773     0.659    -0.290     0.900
  28      -0.200     0.187     0.013    -0.114    -0.499     0.610
  29       0.628    -2.195     1.567    -0.248     0.217    -0.636
  30       0.216    -0.380     0.165    -0.154    -1.776    -0.145
  31       0.723     0.351    -1.075     0.327     0.080     0.239
  32      -0.036     0.478    -0.441    -1.503    -0.616     0.068
  33       0.232    -0.019    -0.212     0.042    -0.647     0.963
  34       0.089    -0.880     0.791     0.619     0.246    -0.491
  35       1.129    -0.069    -1.060    -0.312    -2.350    -0.197
  36       0.242     0.244    -0.486    -0.554     0.090    -0.530
  37       0.564    -2.062     1.498    -0.799    -0.641     0.342
  38       1.859    -0.816    -1.043     0.870     0.121    -1.382
  39      -2.203    -0.667     2.870    -0.437     0.496     0.672
  40      -0.179    -0.150     0.329    -0.822     0.845    -1.318
  41      -2.960     0.282     2.678    -4.295     3.750    -4.458
  42      -3.638     1.662     1.976     3.371     2.892     3.744
  43       4.483    -6.613     2.131    -0.159    -4.582     1.065
  44      -4.197     3.387     0.811     4.459    -3.582    -4.694
  45      -2.913     2.224     0.689    -6.026    -3.066     5.326
  46       6.459    -5.914    -0.545     1.824     5.030     0.153
  47      -4.544     2.928     1.616    -5.503     3.247    -5.848
  48       6.633    -5.558    -1.075     0.091    -4.778     1.142
  49      -4.392     3.766     0.626     4.174     1.333     4.674
  50       6.063    -4.860    -1.203    -0.310     3.046    -0.084
  51      -1.124     1.718    -0.594    -6.336    -1.873     3.394
  52      -3.199     3.962    -0.763     4.451    -3.849    -3.153
  53      -3.517     2.074     1.443    -5.337     1.926    -3.167
  54      -2.096     2.240    -0.145     4.876     0.276     4.226
  55       6.437    -7.671     1.235    -0.241    -6.055     1.635
  56      -4.975     2.986     1.989     5.957    -1.562    -3.818
  57      -3.087     1.043     2.044    -4.241    -1.386     4.864
  58       4.669    -7.341     2.671    -0.719     4.563     0.571
  59      -2.643     3.365    -0.722    -4.497     1.284    -4.761
  60       4.128    -5.293     1.165    -1.079    -4.853     0.148
  61      -3.985     3.859     0.126     4.286     1.937     2.756
  62       6.557    -6.153    -0.403     0.084     3.144     0.753
  63      -3.737     2.815     0.922    -4.148    -0.329     4.376
  64      -2.415     2.222     0.193     4.731    -0.992    -4.325
  65      -3.094     1.172     1.922    -5.036     2.683    -3.551
  66      -3.658     1.142     2.515     4.917     1.992     4.777
  67       7.404    -6.814    -0.591    -0.256    -2.459     0.025
  68      -2.095     2.431    -0.337     6.719    -1.231    -2.922
  69      -4.852     4.578     0.274    -3.564    -1.688     4.485
  70       3.384    -5.386     2.002     0.892     4.493     0.271
  71      -1.502     1.488     0.013    -4.554     1.803    -2.618
  72       5.187    -4.603    -0.584    -0.094    -4.672    -0.139
  73      -3.641     2.458     1.183     4.535     3.470     3.597
  74       5.636    -5.410    -0.226    -1.780     3.742    -0.504
  75      -4.955     3.154     1.801    -5.195    -3.689     4.647
  76      -3.492     3.037     0.455     4.669    -1.358    -4.309
  77      -1.261     0.032     1.229    -4.448     1.051    -4.359
  78      -3.796     2.821     0.976     5.290     2.193     4.765
  79       7.093    -7.141     0.048     2.853    -3.958    -1.693
  80      -2.906     1.709     1.198     5.537    -2.750    -3.911
  81      -2.737     3.635    -0.898    -5.206    -2.031     3.053
  82       6.396    -6.337    -0.059     0.449     3.905    -1.938
  83      -1.946     3.146    -1.200    -5.521     1.501    -1.275
  84       5.885    -5.497    -0.387     2.816    -5.574    -2.529
  85      -2.997     3.957    -0.961     4.435     2.713     2.061
  86       4.360    -5.599     1.238     0.268     4.651     0.955
  87      -3.613     4.339    -0.725    -6.391    -3.201     2.502
  88      -3.223     1.684     1.539     3.275    -2.879    -5.169
 ---------------------------------------------------------------------


 Total hyperfine coupling parameters after diagonalization (MHz)
 (convention: |A_zz| > |A_xx| > |A_yy|)
 ----------------------------------------------------------------------
  ion      A_xx      A_yy      A_zz     asymmetry (A_yy - A_xx)/ A_zz 
 ----------------------------------------------------------------------
   1       1.649     1.243     3.620      -0.112
   2       2.573     2.334     4.908      -0.049
   3       1.222     1.073     3.254      -0.046
   4       0.741     0.494     3.449      -0.072
   5       2.172     1.864     4.326      -0.071
   6       2.026     1.625     4.141      -0.097
   7       1.646     1.380     3.628      -0.073
   8       2.054     1.695     4.305      -0.083
   9       0.390     0.084     3.027      -0.101
  10       1.737     1.447     3.759      -0.077
  11       2.339     1.867     4.518      -0.104
  12       0.534     0.230     3.143      -0.097
  13       1.399     1.057     3.661      -0.093
  14       1.456     1.239     3.745      -0.058
  15       0.368     0.143     3.101      -0.072
  16       1.613     1.301     3.741      -0.084
  17      16.027    11.588    16.350      -0.271
  18      13.300     9.212    13.570      -0.301
  19      14.780    10.498    14.855      -0.288
  20      16.020    11.730    16.299      -0.263
  21      14.306    10.017    14.488      -0.296
  22      13.329     9.095    13.430      -0.315
  23      13.590     9.581    13.892      -0.289
  24      13.427     9.201    13.605      -0.311
  25      97.106    95.733    99.043      -0.014
  26     101.606   100.922   103.717      -0.007
  27      95.637    94.567    97.773      -0.011
  28      95.042    94.454    96.074      -0.006
  29      98.187    95.289    99.334      -0.029
  30      96.244    94.966    98.554      -0.013
  31      96.230    94.934    96.979      -0.013
  32      95.226    94.083    97.409      -0.012
  33      96.521    95.065    97.407      -0.015
  34      95.834    94.119    96.377      -0.018
  35      97.251    94.684    99.922      -0.026
  36      94.495    93.830    95.572      -0.007
  37      93.386    90.741    94.975      -0.028
  38      93.672    90.965    95.539      -0.028
  39      97.565    95.788   101.215      -0.018
  40      95.228    94.750    98.063      -0.005
  41       6.989     3.791    18.562      -0.172
  42       4.625     1.049    13.859      -0.258
  43       7.529     2.093    16.929      -0.321
  44       7.484     3.638    19.625      -0.196
  45       4.361     0.687    17.788      -0.207
  46       5.770     2.521    18.056      -0.180
  47       6.440     2.259    20.466      -0.204
  48       3.687     0.611    15.543      -0.198
  49       6.909     2.961    17.673      -0.223
  50       2.684     0.126    12.174      -0.210
  51       6.085     1.919    16.625      -0.251
  52       5.271     0.804    15.627      -0.286
  53       7.694     1.753    16.052      -0.370
  54       6.029     1.048    14.523      -0.343
  55       7.626     2.069    20.587      -0.270
  56       9.434     1.764    18.631      -0.412
  57       3.464    -0.844    13.098      -0.329
  58       6.509    -0.082    15.729      -0.419
  59       3.598     0.939    14.781      -0.180
  60       4.958     1.843    15.085      -0.206
  61       4.350    -0.286    12.951      -0.358
  62       5.201     0.458    14.492      -0.327
  63       6.593     1.630    15.294      -0.325
  64       5.179     1.105    14.543      -0.280
  65       6.059     1.018    15.304      -0.329
  66       3.131    -1.968    13.423      -0.380
  67       7.567     2.034    16.957      -0.326
  68       6.760     1.113    16.478      -0.343
  69       4.747     1.185    15.785      -0.226
  70       4.005     0.337    13.115      -0.280
  71       4.778     1.551    12.726      -0.254
  72       3.924     2.472    14.887      -0.098
  73       5.015     0.441    15.056      -0.304
  74       5.200     1.529    14.931      -0.246
  75       4.300    -1.257    16.355      -0.340
  76       5.817     1.790    15.925      -0.253
  77       4.659    -0.225    12.534      -0.390
  78       7.451     3.058    18.929      -0.232
  79       7.798     1.688    19.025      -0.321
  80       6.111     1.433    16.552      -0.283
  81       3.884     0.580    14.303      -0.231
  82       4.585    -1.324    14.000      -0.422
  83       7.722     3.706    16.376      -0.245
  84       2.780    -0.329    16.273      -0.191
  85       5.008     0.784    13.795      -0.306
  86       4.694     0.947    14.446      -0.259
  87       9.972     4.108    21.000      -0.279
  88       0.827    -0.548    12.755      -0.108
 ---------------------------------------------------------------------



--------------------------------------------------------------------------------------------------------


 stress matrix after NEB project (eV)
    -40.20359     -0.26132      8.74872
     -0.27321    -42.48591     -2.73815
      8.75368     -2.73480    -53.09346
  FORCES: max atom, RMS     2.720956    1.116795
  FORCE total and by dimension   10.476464    2.170569
  Stress total and by dimension   80.053625   53.093456
     LOOP+:  cpu time  782.1522: real time  798.8937
    4ORBIT:  cpu time    0.0000: real time    0.0000
 


 total charge     
 
# of ion       s       p       d       tot
------------------------------------------
    1        0.054   5.998   0.000   6.053
    2        0.053   5.996   0.000   6.049
    3        0.050   5.992   0.000   6.042
    4        0.049   5.993   0.000   6.042
    5        0.052   5.994   0.000   6.046
    6        0.053   5.996   0.000   6.048
    7        0.046   5.986   0.000   6.032
    8        0.046   5.989   0.000   6.035
    9        0.051   5.995   0.000   6.046
   10        0.059   6.004   0.000   6.063
   11        0.052   5.995   0.000   6.048
   12        0.050   5.994   0.000   6.044
   13        0.052   5.995   0.000   6.047
   14        0.052   5.994   0.000   6.047
   15        0.053   5.998   0.000   6.051
   16        0.055   5.998   0.000   6.053
   17        0.153   6.134   0.088   6.376
   18        0.146   6.122   0.078   6.345
   19        0.149   6.128   0.084   6.361
   20        0.147   6.125   0.081   6.354
   21        0.148   6.128   0.084   6.360
   22        0.145   6.120   0.077   6.342
   23        0.141   6.114   0.073   6.329
   24        0.148   6.125   0.081   6.354
   25        0.379   6.462   4.842  11.684
   26        0.367   6.439   4.816  11.622
   27        0.381   6.468   4.847  11.695
   28        0.379   6.462   4.832  11.673
   29        0.378   6.459   4.838  11.675
   30        0.381   6.467   4.841  11.689
   31        0.372   6.448   4.823  11.643
   32        0.380   6.464   4.841  11.685
   33        0.391   6.487   4.869  11.748
   34        0.380   6.463   4.835  11.678
   35        0.378   6.459   4.849  11.685
   36        0.377   6.460   4.826  11.663
   37        0.392   6.488   4.871  11.751
   38        0.385   6.476   4.852  11.713
   39        0.372   6.445   4.817  11.634
   40        0.380   6.468   4.839  11.687
   41        1.599   3.491   0.000   5.091
   42        1.596   3.498   0.000   5.094
   43        1.601   3.552   0.000   5.153
   44        1.605   3.495   0.000   5.100
   45        1.602   3.500   0.000   5.102
   46        1.600   3.498   0.000   5.098
   47        1.606   3.474   0.000   5.080
   48        1.601   3.508   0.000   5.110
   49        1.602   3.524   0.000   5.125
   50        1.597   3.484   0.000   5.081
   51        1.600   3.500   0.000   5.100
   52        1.599   3.513   0.000   5.112
   53        1.601   3.545   0.000   5.146
   54        1.597   3.513   0.000   5.110
   55        1.601   3.525   0.000   5.126
   56        1.600   3.514   0.000   5.114
   57        1.597   3.539   0.000   5.136
   58        1.600   3.516   0.000   5.116
   59        1.600   3.494   0.000   5.094
   60        1.597   3.547   0.000   5.144
   61        1.597   3.486   0.000   5.084
   62        1.598   3.496   0.000   5.094
   63        1.598   3.511   0.000   5.109
   64        1.601   3.527   0.000   5.127
   65        1.599   3.519   0.000   5.118
   66        1.600   3.501   0.000   5.101
   67        1.600   3.521   0.000   5.122
   68        1.597   3.491   0.000   5.088
   69        1.599   3.500   0.000   5.099
   70        1.596   3.478   0.000   5.074
   71        1.595   3.511   0.000   5.105
   72        1.599   3.519   0.000   5.117
   73        1.599   3.509   0.000   5.108
   74        1.598   3.517   0.000   5.116
   75        1.601   3.505   0.000   5.106
   76        1.598   3.494   0.000   5.093
   77        1.598   3.513   0.000   5.110
   78        1.605   3.516   0.000   5.121
   79        1.598   3.507   0.000   5.105
   80        1.598   3.481   0.000   5.079
   81        1.597   3.468   0.000   5.065
   82        1.599   3.506   0.000   5.105
   83        1.598   3.522   0.000   5.120
   84        1.598   3.493   0.000   5.091
   85        1.598   3.488   0.000   5.086
   86        1.598   3.538   0.000   5.135
   87        1.603   3.533   0.000   5.136
   88        1.599   3.488   0.000   5.086
--------------------------------------------------
tot         84.841 416.698  78.084 579.623
 


 magnetization (x)
 
# of ion       s       p       d       tot
------------------------------------------
    1        0.002   0.000   0.000   0.002
    2        0.002   0.000   0.000   0.003
    3        0.001   0.001   0.000   0.002
    4        0.001   0.001   0.000   0.002
    5        0.002   0.000   0.000   0.002
    6        0.002   0.000   0.000   0.002
    7        0.002   0.000   0.000   0.002
    8        0.002   0.001   0.000   0.003
    9        0.001   0.000   0.000   0.001
   10        0.002   0.000   0.000   0.002
   11        0.002   0.000   0.000   0.003
   12        0.001   0.000   0.000   0.001
   13        0.001   0.000   0.000   0.001
   14        0.002   0.000   0.000   0.002
   15        0.001   0.000   0.000   0.001
   16        0.002  -0.000   0.000   0.001
   17        0.008   0.003   0.002   0.013
   18        0.007   0.002   0.001   0.010
   19        0.007   0.002   0.001   0.010
   20        0.008   0.003   0.001   0.012
   21        0.007   0.003   0.001   0.011
   22        0.007   0.002   0.001   0.010
   23        0.007   0.002   0.001   0.010
   24        0.007   0.002   0.001   0.010
   25        0.016   0.030   2.741   2.787
   26        0.017   0.030   2.780   2.828
   27        0.015   0.030   2.739   2.785
   28        0.015   0.031   2.747   2.793
   29        0.016   0.032   2.748   2.795
   30        0.015   0.031   2.749   2.795
   31        0.015   0.030   2.759   2.804
   32        0.015   0.030   2.738   2.783
   33        0.015   0.031   2.720   2.766
   34        0.015   0.031   2.746   2.792
   35        0.015   0.030   2.740   2.786
   36        0.015   0.030   2.753   2.798
   37        0.014   0.030   2.719   2.763
   38        0.015   0.031   2.721   2.766
   39        0.015   0.030   2.781   2.826
   40        0.015   0.031   2.745   2.792
   41        0.003   0.046   0.000   0.048
   42        0.002   0.019   0.000   0.021
   43        0.002   0.057   0.000   0.060
   44        0.003   0.053   0.000   0.055
   45        0.002   0.035   0.000   0.037
   46        0.002   0.043   0.000   0.045
   47        0.003   0.044   0.000   0.047
   48        0.002   0.022   0.000   0.024
   49        0.002   0.049   0.000   0.051
   50        0.002   0.006   0.000   0.008
   51        0.002   0.039   0.000   0.041
   52        0.002   0.031   0.000   0.033
   53        0.002   0.050   0.000   0.052
   54        0.002   0.032   0.000   0.034
   55        0.002   0.068   0.000   0.070
   56        0.002   0.064   0.000   0.066
   57        0.001   0.026   0.000   0.028
   58        0.002   0.043   0.000   0.045
   59        0.002   0.024   0.000   0.026
   60        0.002   0.041   0.000   0.043
   61        0.002   0.016   0.000   0.017
   62        0.002   0.029   0.000   0.031
   63        0.002   0.040   0.000   0.042
   64        0.002   0.025   0.000   0.027
   65        0.002   0.042   0.000   0.043
   66        0.001   0.017   0.000   0.018
   67        0.002   0.047   0.000   0.050
   68        0.002   0.042   0.000   0.044
   69        0.002   0.030   0.000   0.032
   70        0.002   0.015   0.000   0.016
   71        0.002   0.016   0.000   0.018
   72        0.002   0.028   0.000   0.030
   73        0.002   0.031   0.000   0.033
   74        0.002   0.032   0.000   0.034
   75        0.002   0.031   0.000   0.033
   76        0.002   0.036   0.000   0.038
   77        0.001   0.025   0.000   0.026
   78        0.002   0.051   0.000   0.054
   79        0.002   0.054   0.000   0.057
   80        0.002   0.033   0.000   0.036
   81        0.002   0.023   0.000   0.025
   82        0.002   0.020   0.000   0.022
   83        0.002   0.040   0.000   0.043
   84        0.002   0.025   0.000   0.027
   85        0.002   0.029   0.000   0.030
   86        0.002   0.035   0.000   0.037
   87        0.003   0.069   0.000   0.072
   88        0.001   0.004   0.000   0.005
--------------------------------------------------
tot          0.423   2.189  43.934  46.547
 

 total amount of memory used by VASP MPI-rank0    94432. kBytes
=======================================================================

   base      :      30000. kBytes
   nonlr-proj:      13673. kBytes
   fftplans  :       1275. kBytes
   grid      :      22786. kBytes
   one-center:       2737. kBytes
   wavefun   :      23961. kBytes
 
  
  
 General timing and accounting informations for this job:
 ========================================================
  
                  Total CPU time used (sec):      803.034
                            User time (sec):      794.697
                          System time (sec):        8.337
                         Elapsed time (sec):      822.308
  
                   Maximum memory used (kb):      193368.
                   Average memory used (kb):           0.
  
                          Minor page faults:       323986
                          Major page faults:            0
                 Voluntary context switches:       280527
