 vasp.5.4.4.18Apr17-6-g9f103f2a35 (build Dec 02 2020 12:53:39) complex          
  
 executed on             LinuxIFC date 2021.07.31  03:31:43
 running on  112 total cores
 distrk:  each k-point on  112 cores,    1 groups
 distr:  one band on NCORES_PER_BAND=   1 cores,  112 groups


--------------------------------------------------------------------------------------------------------


 INCAR:
 POTCAR:    PAW_PBE Na_pv 19Sep2006               
 POTCAR:    PAW_PBE Mg_pv 13Apr2007               
 POTCAR:    PAW_PBE Mn_pv 02Aug2007               
 POTCAR:    PAW_PBE O 08Apr2002                   

 ----------------------------------------------------------------------------- 
|                                                                             |
|           W    W    AA    RRRRR   N    N  II  N    N   GGGG   !!!           |
|           W    W   A  A   R    R  NN   N  II  NN   N  G    G  !!!           |
|           W    W  A    A  R    R  N N  N  II  N N  N  G       !!!           |
|           W WW W  AAAAAA  RRRRR   N  N N  II  N  N N  G  GGG   !            |
|           WW  WW  A    A  R   R   N   NN  II  N   NN  G    G                |
|           W    W  A    A  R    R  N    N  II  N    N   GGGG   !!!           |
|                                                                             |
|      For optimal performance we recommend to set                            |
|        NCORE= 4 - approx SQRT( number of cores)                             |
|      NCORE specifies how many cores store one orbital (NPAR=cpu/NCORE).     |
|      This setting can  greatly improve the performance of VASP for DFT.     |
|      The default,   NCORE=1            might be grossly inefficient         |
|      on modern multi-core architectures or massively parallel machines.     |
|      Do your own testing !!!!                                               |
|      Unfortunately you need to use the default for GW and RPA calculations. |
|      (for HF NCORE is supported but not extensively tested yet)             |
|                                                                             |
 ----------------------------------------------------------------------------- 

 POTCAR:    PAW_PBE Na_pv 19Sep2006               
   VRHFIN =Na: p6s1                                                             
   LEXCH  = PE                                                                  
   EATOM  =   766.0439 eV,   56.3026 Ry                                         
                                                                                
   TITEL  = PAW_PBE Na_pv 19Sep2006                                             
   LULTRA =        F    use ultrasoft PP ?                                      
   IUNSCR =        1    unscreen: 0-lin 1-nonlin 2-no                           
   RPACOR =    1.800    partial core radius                                     
   POMASS =   22.990; ZVAL   =    7.000    mass and valenz                      
   RCORE  =    2.200    outmost cutoff radius                                   
   RWIGS  =    2.200; RWIGS  =    1.164    wigner-seitz radius (au A)           
   ENMAX  =  259.561; ENMIN  =  194.671 eV                                      
   ICORE  =        2    local potential                                         
   LCOR   =        T    correct aug charges                                     
   LPAW   =        T    paw PP                                                  
   EAUG   =  368.056                                                            
   DEXC   =    0.000                                                            
   RMAX   =    2.245    core radius for proj-oper                               
   RAUG   =    1.300    factor for augmentation sphere                          
   RDEP   =    2.259    radius for radial grids                                 
   RDEPT  =    1.738    core radius for aug-charge                              
                                                                                
   Atomic configuration                                                         
    5 entries                                                                   
     n  l   j            E        occ.                                          
     1  0  0.50     -1033.6933   2.0000                                         
     2  0  0.50       -56.7526   2.0000                                         
     2  1  1.50       -28.6721   6.0000                                         
     3  0  0.50        -2.7440   1.0000                                         
     3  2  1.50        -1.3606   0.0000                                         
   Description                                                                  
     l       E           TYP  RCUT    TYP  RCUT                                 
     1    -28.6720912     23  2.000                                             
     1      6.8029130     23  2.000                                             
     0     -2.7439560     23  2.200                                             
     0     34.0145650     23  2.200                                             
     2     -1.3605826     23  2.200                                             
  local pseudopotential read in
  partial core-charges read in
  partial kinetic energy density read in
  atomic valenz-charges read in
  non local Contribution for L=           1  read in
    real space projection operators read in
  non local Contribution for L=           1  read in
    real space projection operators read in
  non local Contribution for L=           0  read in
    real space projection operators read in
  non local Contribution for L=           0  read in
    real space projection operators read in
    PAW grid and wavefunctions read in
 
   number of l-projection  operators is LMAX  =           4
   number of lm-projection operators is LMMAX =           8
 
 POTCAR:    PAW_PBE Mg_pv 13Apr2007               
   VRHFIN =Mg: p6s2                                                             
   LEXCH  = PE                                                                  
   EATOM  =  1056.7344 eV,   77.6678 Ry                                         
                                                                                
   TITEL  = PAW_PBE Mg_pv 13Apr2007                                             
   LULTRA =        F    use ultrasoft PP ?                                      
   IUNSCR =        1    unscreen: 0-lin 1-nonlin 2-no                           
   RPACOR =    1.500    partial core radius                                     
   POMASS =   24.305; ZVAL   =    8.000    mass and valenz                      
   RCORE  =    2.000    outmost cutoff radius                                   
   RWIGS  =    2.000; RWIGS  =    1.058    wigner-seitz radius (au A)           
   ENMAX  =  403.929; ENMIN  =  302.947 eV                                      
   RCLOC  =    1.506    cutoff for local pot                                    
   LCOR   =        T    correct aug charges                                     
   LPAW   =        T    paw PP                                                  
   EAUG   =  758.780                                                            
   DEXC   =    0.000                                                            
   RMAX   =    2.045    core radius for proj-oper                               
   RAUG   =    1.300    factor for augmentation sphere                          
   RDEP   =    2.025    radius for radial grids                                 
   RDEPT  =    1.557    core radius for aug-charge                              
                                                                                
   Atomic configuration                                                         
    5 entries                                                                   
     n  l   j            E        occ.                                          
     1  0  0.50     -1259.6230   2.0000                                         
     2  0  0.50       -79.8442   2.0000                                         
     2  1  1.50       -46.6121   6.0000                                         
     3  0  0.50        -4.7055   2.0000                                         
     3  2  1.50        -1.3606   0.0000                                         
   Description                                                                  
     l       E           TYP  RCUT    TYP  RCUT                                 
     1    -46.6121073     23  1.600                                             
     1      2.7211652     23  1.600                                             
     0     -4.7054661     23  2.000                                             
     0     61.2262170     23  2.000                                             
     2     -1.3605826     23  2.000                                             
  local pseudopotential read in
  partial core-charges read in
  partial kinetic energy density read in
  atomic valenz-charges read in
  non local Contribution for L=           1  read in
    real space projection operators read in
  non local Contribution for L=           1  read in
    real space projection operators read in
  non local Contribution for L=           0  read in
    real space projection operators read in
  non local Contribution for L=           0  read in
    real space projection operators read in
  non local Contribution for L=           2  read in
    real space projection operators read in
    PAW grid and wavefunctions read in
 
   number of l-projection  operators is LMAX  =           5
   number of lm-projection operators is LMMAX =          13
 
 POTCAR:    PAW_PBE Mn_pv 02Aug2007               
   VRHFIN =Mn: 3p4s3d                                                           
   LEXCH  = PE                                                                  
   EATOM  =  2025.2664 eV,  148.8529 Ry                                         
                                                                                
   TITEL  = PAW_PBE Mn_pv 02Aug2007                                             
   LULTRA =        F    use ultrasoft PP ?                                      
   IUNSCR =        1    unscreen: 0-lin 1-nonlin 2-no                           
   RPACOR =    2.080    partial core radius                                     
   POMASS =   54.938; ZVAL   =   13.000    mass and valenz                      
   RCORE  =    2.300    outmost cutoff radius                                   
   RWIGS  =    2.500; RWIGS  =    1.323    wigner-seitz radius (au A)           
   ENMAX  =  269.864; ENMIN  =  202.398 eV                                      
   ICORE  =        3    local potential                                         
   LCOR   =        T    correct aug charges                                     
   LPAW   =        T    paw PP                                                  
   EAUG   =  569.085                                                            
   DEXC   =    0.000                                                            
   RMAX   =    2.343    core radius for proj-oper                               
   RAUG   =    1.300    factor for augmentation sphere                          
   RDEP   =    2.338    radius for radial grids                                 
   RDEPT  =    1.798    core radius for aug-charge                              
                                                                                
   Atomic configuration                                                         
    8 entries                                                                   
     n  l   j            E        occ.                                          
     1  0  0.50     -6424.8287   2.0000                                         
     2  0  0.50      -739.1154   2.0000                                         
     2  1  1.50      -625.3949   6.0000                                         
     3  0  0.50       -81.6100   2.0000                                         
     3  1  1.50       -50.4667   6.0000                                         
     3  2  2.50        -3.3745   6.0000                                         
     4  0  0.50        -4.1331   1.0000                                         
     4  3  2.50        -1.3606   0.0000                                         
   Description                                                                  
     l       E           TYP  RCUT    TYP  RCUT                                 
     1    -50.4666628     23  2.000                                             
     1     -1.3605826     23  2.000                                             
     2     -3.3744729     23  2.300                                             
     2     -4.7350555     23  2.300                                             
     0     -4.1331431     23  2.300                                             
     0      7.6656591     23  2.300                                             
     3      9.5240782     23  2.300                                             
  local pseudopotential read in
  partial core-charges read in
  partial kinetic energy density read in
  atomic valenz-charges read in
  non local Contribution for L=           1  read in
    real space projection operators read in
  non local Contribution for L=           1  read in
    real space projection operators read in
  non local Contribution for L=           2  read in
    real space projection operators read in
  non local Contribution for L=           2  read in
    real space projection operators read in
  non local Contribution for L=           0  read in
    real space projection operators read in
  non local Contribution for L=           0  read in
    real space projection operators read in
    PAW grid and wavefunctions read in
 
   number of l-projection  operators is LMAX  =           6
   number of lm-projection operators is LMMAX =          18
 
 POTCAR:    PAW_PBE O 08Apr2002                   
   VRHFIN =O: s2p4                                                              
   LEXCH  = PE                                                                  
   EATOM  =   432.3788 eV,   31.7789 Ry                                         
                                                                                
   TITEL  = PAW_PBE O 08Apr2002                                                 
   LULTRA =        F    use ultrasoft PP ?                                      
   IUNSCR =        1    unscreen: 0-lin 1-nonlin 2-no                           
   RPACOR =    1.200    partial core radius                                     
   POMASS =   16.000; ZVAL   =    6.000    mass and valenz                      
   RCORE  =    1.520    outmost cutoff radius                                   
   RWIGS  =    1.550; RWIGS  =    0.820    wigner-seitz radius (au A)           
   ENMAX  =  400.000; ENMIN  =  300.000 eV                                      
   ICORE  =        2    local potential                                         
   LCOR   =        T    correct aug charges                                     
   LPAW   =        T    paw PP                                                  
   EAUG   =  605.392                                                            
   DEXC   =    0.000                                                            
   RMAX   =    1.553    core radius for proj-oper                               
   RAUG   =    1.300    factor for augmentation sphere                          
   RDEP   =    1.550    radius for radial grids                                 
   RDEPT  =    1.329    core radius for aug-charge                              
                                                                                
   Atomic configuration                                                         
    4 entries                                                                   
     n  l   j            E        occ.                                          
     1  0  0.50      -514.6923   2.0000                                         
     2  0  0.50       -23.9615   2.0000                                         
     2  1  0.50        -9.0305   4.0000                                         
     3  2  1.50        -9.5241   0.0000                                         
   Description                                                                  
     l       E           TYP  RCUT    TYP  RCUT                                 
     0    -23.9615318     23  1.200                                             
     0     -9.5240782     23  1.200                                             
     1     -9.0304911     23  1.520                                             
     1      8.1634956     23  1.520                                             
     2     -9.5240782      7  1.500                                             
  local pseudopotential read in
  partial core-charges read in
  partial kinetic energy density read in
  kinetic energy density of atom read in
  atomic valenz-charges read in
  non local Contribution for L=           0  read in
    real space projection operators read in
  non local Contribution for L=           0  read in
    real space projection operators read in
  non local Contribution for L=           1  read in
    real space projection operators read in
  non local Contribution for L=           1  read in
    real space projection operators read in
    PAW grid and wavefunctions read in
 
   number of l-projection  operators is LMAX  =           4
   number of lm-projection operators is LMMAX =           8
 
 Optimization of the real space projectors (new method)

 maximal supplied QI-value         = 17.01
 optimisation between [QCUT,QGAM] = [ 10.20, 20.41] = [ 29.16,116.64] Ry 
 Optimized for a Real-space Cutoff    1.30 Angstroem

   l    n(q)    QCUT    max X(q) W(low)/X(q) W(high)/X(q)  e(spline) 
   1      7    10.205     4.940    0.23E-03    0.84E-03    0.11E-06
   1      7    10.205     6.253    0.40E-03    0.13E-02    0.18E-06
   0      8    10.205    37.438    0.23E-03    0.37E-03    0.42E-07
   0      8    10.205     9.606    0.16E-03    0.26E-03    0.31E-07
 Optimization of the real space projectors (new method)

 maximal supplied QI-value         = 18.90
 optimisation between [QCUT,QGAM] = [ 10.20, 20.41] = [ 29.16,116.64] Ry 
 Optimized for a Real-space Cutoff    1.26 Angstroem

   l    n(q)    QCUT    max X(q) W(low)/X(q) W(high)/X(q)  e(spline) 
   1      7    10.205     2.974    0.63E-04    0.14E-03    0.13E-06
   1      7    10.205     4.279    0.11E-03    0.45E-03    0.24E-06
   0      8    10.205    16.381    0.44E-03    0.15E-03    0.55E-07
   0      8    10.205     5.611    0.31E-03    0.11E-03    0.40E-07
   2      7    10.205     4.652    0.50E-03    0.47E-03    0.57E-07
 Optimization of the real space projectors (new method)

 maximal supplied QI-value         = 16.25
 optimisation between [QCUT,QGAM] = [ 10.24, 20.48] = [ 29.35,117.42] Ry 
 Optimized for a Real-space Cutoff    1.34 Angstroem

   l    n(q)    QCUT    max X(q) W(low)/X(q) W(high)/X(q)  e(spline) 
   1      8    10.239     3.658    0.23E-03    0.30E-03    0.98E-07
   1      8    10.239     5.612    0.32E-03    0.65E-03    0.21E-06
   2      7    10.239    55.373    0.42E-03    0.45E-03    0.65E-07
   2      7    10.239    50.863    0.43E-03    0.48E-03    0.67E-07
   0      8    10.239    79.536    0.11E-03    0.21E-03    0.56E-07
   0      8    10.239    38.668    0.96E-04    0.19E-03    0.52E-07
 Optimization of the real space projectors (new method)

 maximal supplied QI-value         = 24.76
 optimisation between [QCUT,QGAM] = [ 10.15, 20.30] = [ 28.85,115.39] Ry 
 Optimized for a Real-space Cutoff    1.38 Angstroem

   l    n(q)    QCUT    max X(q) W(low)/X(q) W(high)/X(q)  e(spline) 
   0      8    10.150    20.381    0.22E-03    0.32E-03    0.29E-06
   0      8    10.150    15.268    0.23E-03    0.35E-03    0.30E-06
   1      8    10.150     5.964    0.46E-03    0.53E-03    0.21E-06
   1      8    10.150     5.382    0.38E-03    0.45E-03    0.19E-06
  PAW_PBE Na_pv 19Sep2006               :
 energy of atom  1       EATOM= -766.0439
 kinetic energy error for atom=    0.0103 (will be added to EATOM!!)
  PAW_PBE Mg_pv 13Apr2007               :
 energy of atom  2       EATOM=-1056.7344
 kinetic energy error for atom=    0.0820 (will be added to EATOM!!)
  PAW_PBE Mn_pv 02Aug2007               :
 energy of atom  3       EATOM=-2025.2664
 kinetic energy error for atom=    0.0284 (will be added to EATOM!!)
  PAW_PBE O 08Apr2002                   :
 energy of atom  4       EATOM= -432.3788
 kinetic energy error for atom=    0.1156 (will be added to EATOM!!)
 
 
 POSCAR: Na Mg Mn  O                             
  positions in cartesian coordinates
  No initial velocities read in

 METAGGA = SCAN     LMAXTAU =  6    LMIXTAU =  F

 exchange correlation table for  LEXCH =        8
   RHO(1)=    0.500       N(1)  =     2000
   RHO(2)=  100.500       N(2)  =     4000

 VTST: version 3.2, (02/03/18)

 CHAIN: initializing optimizer
 
 OPT: Using VASP Dynamics algorithm
 CHAIN: Read ICHAIN            0
 
 POSCAR: Na Mg Mn  O                             
  positions in cartesian coordinates
  No initial velocities read in
 


--------------------------------------------------------------------------------------------------------


 ion  position               nearest neighbor table
   1  0.686  0.637  0.246-  65 2.14  74 2.23  78 2.36  33 2.96
   2  0.222  0.887  0.752-  44 2.20  47 2.24  70 2.27  36 2.91
   3  0.327  0.250  0.748-  45 2.28  48 2.31
   4  0.686  0.379  0.752-  46 2.21  49 2.31  68 2.36  71 2.37
   5  0.964  0.365  0.245-  53 2.25  55 2.37
   6  0.821  0.026  0.235-  79 2.25  54 2.28  88 2.32  63 2.37
   7  0.472  0.665  0.747-  80 2.25  82 2.29  83 2.34  85 2.38  38 2.91
   8  0.985  0.082  0.758-  61 2.16  59 2.30  69 2.36
   9  0.587  0.253  0.255-  43 2.17  51 2.26  52 2.29
  10  0.116  0.748  0.260-  86 2.28  76 2.31  67 2.34
  11  0.471  0.919  0.257-  51 2.17  42 2.32  86 2.37
  12  0.125  0.504  0.747-  57 2.17  60 2.26  80 2.35  39 2.92  37 2.95
  13  0.821  0.723  0.760-  71 2.26  72 2.33  68 2.35
  14  0.616  0.048  0.756-  49 2.26  84 2.27  81 2.37  29 2.80  31 2.91
  15  0.163  0.120  0.245-  41 2.26  50 2.32  54 2.34  25 2.88  27 2.95
  16  0.321  0.529  0.243-  87 2.26  55 2.31  78 2.34
  17  0.821  0.383  0.996-  60 1.96  49 2.02  66 2.04  53 2.07  71 2.09  43 2.13  37 2.82  33 2.82
                            30 2.85
  18  0.468  0.233  0.499-  50 2.02  51 2.04  46 2.04  45 2.09  52 2.14  44 2.19  36 2.82
  19  0.311  0.380  0.003-  41 1.98  83 2.02  55 2.03  61 2.07  78 2.12  48 2.24  38 2.85
  20  0.972  0.236  0.498-  63 1.96  62 2.04  64 2.07  58 2.07  57 2.07  56 2.13  40 2.83  27 2.85

  21  0.330  0.887  0.990-  84 1.96  47 2.00  42 2.04  73 2.07  67 2.10  77 2.13  29 2.79  26 2.84

  22  0.966  0.742  0.501-  74 1.88  76 2.07  68 2.07  70 2.07  69 2.08  75 2.11  35 2.80  40 2.82
                            27 2.84  28 2.85
  23  0.811  0.869  0.010-  65 1.95  79 1.98  54 1.99  85 2.02  59 2.20  72 2.21  34 2.84  38 2.85

  24  0.467  0.738  0.485-  87 2.00  80 2.02  81 2.10  86 2.11  88 2.14  82 2.18  32 2.79
  25  0.152  0.050  0.994-  61 1.89  72 1.91  41 1.92  67 1.92  54 1.95  47 1.97  26 2.86  15 2.88
                            34 2.89  30 2.92
  26  0.482  0.213  0.995-  41 1.88  42 1.89  47 1.89  48 1.90  49 1.92  43 1.97  33 2.79  21 2.84
                            25 2.86  29 2.96
  27  0.134  0.069  0.505-  50 1.89  76 1.90  69 1.90  44 1.92  63 1.94  58 2.01  40 2.82  22 2.84
                            20 2.85  36 2.88  15 2.95  32 3.02
  28  0.812  0.414  0.498-  75 1.83  62 1.89  68 1.94  57 1.95  52 1.95  46 2.12  39 2.82  22 2.85
                            35 2.86  31 2.95
  29  0.651  0.041  0.003-  84 1.87  79 1.90  59 1.91  42 1.94  53 2.00  49 2.03  21 2.79  14 2.80
                            30 2.87  38 2.89  26 2.96
  30  0.981  0.215  0.999-  53 1.88  60 1.89  59 1.92  54 1.96  61 1.97  55 2.00  17 2.85  29 2.87
                            37 2.90  25 2.92
  31  0.640  0.074  0.498-  56 1.85  46 1.89  62 1.90  51 1.92  81 2.00  88 2.01  36 2.90  40 2.90
                            14 2.91  28 2.95
  32  0.310  0.417  0.506-  80 1.87  87 1.88  64 1.91  45 1.93  50 1.95  58 1.98  24 2.79  39 2.88
                            35 2.90  27 3.02
  33  0.647  0.535  0.995-  43 1.81  48 1.86  65 1.93  71 1.96  85 1.98  78 1.98  26 2.79  17 2.82
                            38 2.93  34 2.94   1 2.96
  34  0.985  0.717  1.000-  65 1.86  67 1.87  71 1.92  66 1.94  72 1.98  73 2.01  23 2.84  37 2.85
                            25 2.89  33 2.94
  35  0.644  0.575  0.508-  68 1.86  52 1.91  74 1.94  82 1.96  45 1.97  87 2.05  22 2.80  28 2.86
                            40 2.90  32 2.90
  36  0.305  0.908  0.502-  70 1.82  81 1.85  76 1.93  44 1.96  86 2.04  51 2.06  18 2.82  27 2.88
                            39 2.89  31 2.90   2 2.91
  37  0.145  0.549  0.007-  66 1.80  73 1.80  55 1.89  60 1.91  83 1.95  77 2.01  17 2.82  34 2.85
                            30 2.90  38 2.93  12 2.95
  38  0.483  0.708  0.005-  78 1.86  77 1.86  85 1.87  83 1.96  84 1.96  79 1.97  23 2.85  19 2.85
                            29 2.89   7 2.91  37 2.93  33 2.93
  39  0.137  0.575  0.493-  64 1.87  57 1.87  75 1.88  70 1.91  86 1.94  80 2.04  28 2.82  32 2.88
                            36 2.89  12 2.92
  40  0.809  0.909  0.499-  88 1.84  74 1.87  69 1.91  63 1.92  82 1.95  56 2.00  22 2.82  27 2.82
                            20 2.83  35 2.90  31 2.90
  41  0.320  0.209  0.084-  26 1.88  25 1.92  19 1.98  15 2.26
  42  0.495  0.063  0.088-  26 1.89  29 1.94  21 2.04  11 2.32
  43  0.637  0.385  0.091-  33 1.81  26 1.97  17 2.13   9 2.17
  44  0.281  0.052  0.605-  27 1.92  36 1.96  18 2.19   2 2.20
  45  0.471  0.411  0.598-  32 1.93  35 1.97  18 2.09   3 2.28
  46  0.637  0.227  0.596-  31 1.89  18 2.04  28 2.12   4 2.21
  47  0.323  0.057  0.902-  26 1.89  25 1.97  21 2.00   2 2.24
  48  0.502  0.378  0.899-  33 1.86  26 1.90  19 2.24   3 2.31
  49  0.644  0.209  0.907-  26 1.92  17 2.02  29 2.03  14 2.26   4 2.31
  50  0.289  0.238  0.420-  27 1.89  32 1.95  18 2.02  15 2.32
  51  0.482  0.072  0.398-  31 1.92  18 2.04  36 2.06  11 2.17   9 2.26
  52  0.651  0.425  0.409-  35 1.91  28 1.95  18 2.14   9 2.29
  53  0.825  0.210  0.094-  30 1.88  29 2.00  17 2.07   5 2.25
  54  0.987  0.050  0.087-  25 1.95  30 1.96  23 1.99   6 2.28  15 2.34
  55  0.143  0.388  0.097-  37 1.89  30 2.00  19 2.03  16 2.31   5 2.37
  56  0.781  0.062  0.596-  31 1.85  40 2.00  20 2.13
  57  0.982  0.421  0.588-  39 1.87  28 1.95  20 2.07  12 2.17
  58  0.149  0.245  0.601-  32 1.98  27 2.01  20 2.07
  59  0.816  0.059  0.906-  29 1.91  30 1.92  23 2.20   8 2.30
  60  0.993  0.384  0.914-  30 1.89  37 1.91  17 1.96  12 2.26
  61  0.140  0.202  0.904-  25 1.89  30 1.97  19 2.07   8 2.16
  62  0.797  0.244  0.413-  28 1.89  31 1.90  20 2.04
  63  0.973  0.069  0.408-  40 1.92  27 1.94  20 1.96   6 2.37
  64  0.153  0.420  0.412-  39 1.87  32 1.91  20 2.07
  65  0.815  0.695  0.084-  34 1.86  33 1.93  23 1.95   1 2.14
  66  0.995  0.558  0.089-  37 1.80  34 1.94  17 2.04
  67  0.145  0.882  0.082-  34 1.87  25 1.92  21 2.10  10 2.34
  68  0.793  0.562  0.598-  35 1.86  28 1.94  22 2.07  13 2.35   4 2.36
  69  0.969  0.920  0.599-  27 1.90  40 1.91  22 2.08   8 2.36
  70  0.154  0.745  0.583-  36 1.82  39 1.91  22 2.07   2 2.27
  71  0.825  0.565  0.901-  34 1.92  33 1.96  17 2.09  13 2.26   4 2.37
  72  0.001  0.887  0.899-  25 1.91  34 1.98  23 2.21  13 2.33
  73  0.148  0.695  0.911-  37 1.80  34 2.01  21 2.07
  74  0.804  0.744  0.418-  40 1.87  22 1.88  35 1.94   1 2.23
  75  0.969  0.560  0.408-  28 1.83  39 1.88  22 2.11
  76  0.148  0.919  0.410-  27 1.90  36 1.93  22 2.07  10 2.31
  77  0.329  0.710  0.096-  38 1.86  37 2.01  21 2.13
  78  0.498  0.561  0.095-  38 1.86  33 1.98  19 2.12  16 2.34   1 2.36
  79  0.644  0.880  0.097-  29 1.90  38 1.97  23 1.98   6 2.25
  80  0.307  0.575  0.593-  32 1.87  24 2.02  39 2.04   7 2.25  12 2.35
  81  0.462  0.910  0.590-  36 1.85  31 2.00  24 2.10  14 2.37
  82  0.650  0.748  0.597-  40 1.95  35 1.96  24 2.18   7 2.29
  83  0.309  0.553  0.911-  37 1.95  38 1.96  19 2.02   7 2.34
  84  0.502  0.882  0.910-  29 1.87  38 1.96  21 1.96  14 2.27
  85  0.637  0.704  0.913-  38 1.87  33 1.98  23 2.02   7 2.38
  86  0.285  0.738  0.391-  39 1.94  36 2.04  24 2.11  10 2.28  11 2.37
  87  0.467  0.559  0.406-  32 1.88  24 2.00  35 2.05  16 2.26
  88  0.668  0.921  0.402-  40 1.84  31 2.01  24 2.14   6 2.32
 
  LATTYP: Found a hexagonal cell.
 ALAT       =    10.0190000534
 C/A-ratio  =     1.1196726572
  
  Lattice vectors:
  
 A1 = (  10.0190000534,   0.0000000000,   0.0000000000)
 A2 = (  -5.0095000267,   8.6767085668,   0.0000000000)
 A3 = (   0.0000000000,   0.0000000000,  11.2180004120)


Analysis of symmetry for initial positions (statically):
=====================================================================
 Subroutine PRICEL returns:
 Original cell was already a primitive cell.
 

 Routine SETGRP: Setting up the symmetry group for a 
 hexagonal supercell.


 Subroutine GETGRP returns: Found  1 space group operations
 (whereof  1 operations were pure point group operations)
 out of a pool of 24 trial point group operations.


The static configuration has the point symmetry C_1 .


Analysis of symmetry for dynamics (positions and initial velocities):
=====================================================================
 Subroutine PRICEL returns:
 Original cell was already a primitive cell.
 

 Routine SETGRP: Setting up the symmetry group for a 
 hexagonal supercell.


 Subroutine GETGRP returns: Found  1 space group operations
 (whereof  1 operations were pure point group operations)
 out of a pool of 24 trial point group operations.


The dynamic configuration has the point symmetry C_1 .


Analysis of structural, dynamic, and magnetic symmetry:
=====================================================================
 Subroutine PRICEL returns:
 Original cell was already a primitive cell.
 

 Routine SETGRP: Setting up the symmetry group for a 
 hexagonal supercell.


 Subroutine GETGRP returns: Found  1 space group operations
 (whereof  1 operations were pure point group operations)
 out of a pool of 24 trial point group operations.


The magnetic configuration has the point symmetry C_1 .


 Subroutine INISYM returns: Found  1 space group operations
 (whereof  1 operations are pure point group operations),
 and found     1 'primitive' translations

 
 

Automatic generation of k-mesh.
 generate k-points for:    2    2    2
Space group operators:
 irot       det(A)        alpha          n_x          n_y          n_z        tau_x        tau_y        tau_z
    1     1.000000     0.000000     1.000000     0.000000     0.000000     0.000000     0.000000     0.000000
 
 Subroutine IBZKPT returns following result:
 ===========================================
 
 Found      8 irreducible k-points:
 
 Following reciprocal coordinates:
            Coordinates               Weight
  0.000000  0.000000  0.000000      1.000000
  0.500000 -0.000000 -0.000000      1.000000
  0.000000  0.500000  0.000000      1.000000
  0.500000  0.500000 -0.000000      1.000000
  0.000000  0.000000  0.500000      1.000000
  0.500000 -0.000000  0.500000      1.000000
  0.000000  0.500000  0.500000      1.000000
  0.500000  0.500000  0.500000      1.000000
 
 Following cartesian coordinates:
            Coordinates               Weight
  0.000000  0.000000  0.000000      1.000000
  0.049905  0.028813 -0.000000      1.000000
  0.000000  0.057626  0.000000      1.000000
  0.049905  0.086438 -0.000000      1.000000
  0.000000  0.000000  0.044571      1.000000
  0.049905  0.028813  0.044571      1.000000
  0.000000  0.057626  0.044571      1.000000
  0.049905  0.086438  0.044571      1.000000
 


--------------------------------------------------------------------------------------------------------




 Dimension of arrays:
   k-points           NKPTS =      8   k-points in BZ     NKDIM =      8   number of bands    NBANDS=    448
   number of dos      NEDOS =    301   number of ions     NIONS =     88
   non local maximal  LDIM  =      6   non local SUM 2l+1 LMDIM =     18
   total plane-waves  NPLWV = 140000
   max r-space proj   IRMAX =   1632   max aug-charges    IRDMAX=   4555
   dimension x,y,z NGX =    50 NGY =   50 NGZ =   56
   dimension x,y,z NGXF=   100 NGYF=  100 NGZF=  112
   support grid    NGXF=   100 NGYF=  100 NGZF=  112
   ions per type =              16   8  16  48
   NGX,Y,Z   is equivalent  to a cutoff of   8.30,  8.30,  8.30 a.u.
   NGXF,Y,Z  is equivalent  to a cutoff of  16.59, 16.59, 16.60 a.u.

 SYSTEM =  unknown system                          
 POSCAR =  Na Mg Mn  O                             

 Startparameter for this run:
   NWRITE =      2    write-flag & timer
   PREC   = normal    normal or accurate (medium, high low for compatibility)
   ISTART =      0    job   : 0-new  1-cont  2-samecut
   ICHARG =      1    charge: 1-file 2-atom 10-const
   ISPIN  =      2    spin polarized calculation?
   LNONCOLLINEAR =      F non collinear calculations
   LSORBIT =      F    spin-orbit coupling
   INIWAV =      1    electr: 0-lowe 1-rand  2-diag
   LASPH  =      T    aspherical Exc in radial PAW
   METAGGA=      F    non-selfconsistent MetaGGA calc.

 Electronic Relaxation 1
   ENCUT  =  400.0 eV  29.40 Ry    5.42 a.u.  16.34 16.34 18.29*2*pi/ulx,y,z
   ENINI  =  400.0     initial cutoff
   ENAUG  =  758.8 eV  augmentation charge cutoff
   NELM   =    200;   NELMIN=  6; NELMDL=-12     # of ELM steps 
   EDIFF  = 0.1E-04   stopping-criterion for ELM
   LREAL  =      T    real-space projection
   NLSPLINE    = F    spline interpolate recip. space projectors
   LCOMPAT=      F    compatible to vasp.4.4
   GGA_COMPAT  = T    GGA compatible to vasp.4.4-vasp.4.6
   LMAXPAW     = -100 max onsite density
   LMAXMIX     =    4 max onsite mixed and CHGCAR
   VOSKOWN=      0    Vosko Wilk Nusair interpolation
   ROPT   =   -0.00050  -0.00050  -0.00050  -0.00050
 Ionic relaxation
   EDIFFG = 0.1E-03   stopping-criterion for IOM
   NSW    =      1    number of steps for IOM
   NBLOCK =      1;   KBLOCK =      1    inner block; outer block 
   IBRION =     -1    ionic relax: 0-MD 1-quasi-New 2-CG
   NFREE  =      0    steps in history (QN), initial steepest desc. (CG)
   ISIF   =      2    stress and relaxation
   IWAVPR =     10    prediction:  0-non 1-charg 2-wave 3-comb
   ISYM   =      2    0-nonsym 1-usesym 2-fastsym
   LCORR  =      T    Harris-Foulkes like correction to forces

   POTIM  = 0.5000    time-step for ionic-motion
   TEIN   =    0.0    initial temperature
   TEBEG  =    0.0;   TEEND  =   0.0 temperature during run
   SMASS  =  -3.00    Nose mass-parameter (am)
   estimated Nose-frequenzy (Omega)   =  0.10E-29 period in steps =****** mass=  -0.229E-26a.u.
   SCALEE = 1.0000    scale energy and forces
   NPACO  =    256;   APACO  = 16.0  distance and # of slots for P.C.
   PSTRESS=    0.0 pullay stress

  Mass of Ions in am
   POMASS =  22.99 24.30 54.94 16.00
  Ionic Valenz
   ZVAL   =   7.00  8.00 13.00  6.00
  Atomic Wigner-Seitz radii
   RWIGS  =  -1.00 -1.00 -1.00 -1.00
  virtual crystal weights 
   VCA    =   1.00  1.00  1.00  1.00
   NELECT =     672.0000    total number of electrons
   NUPDOWN=      48.0000    fix difference up-down

 DOS related values:
   EMIN   =  10.00;   EMAX   =-10.00  energy-range for DOS
   EFERMI =   0.00
   ISMEAR =     0;   SIGMA  =   0.05  broadening in eV -4-tet -1-fermi 0-gaus

 Electronic relaxation 2 (details)
   IALGO  =     48    algorithm
   LDIAG  =      T    sub-space diagonalisation (order eigenvalues)
   LSUBROT=      F    optimize rotation matrix (better conditioning)
   TURBO    =      0    0=normal 1=particle mesh
   IRESTART =      0    0=no restart 2=restart with 2 vectors
   NREBOOT  =      0    no. of reboots
   NMIN     =      0    reboot dimension
   EREF     =   0.00    reference energy to select bands
   IMIX   =      4    mixing-type and parameters
     AMIX     =   0.40;   BMIX     =  1.00
     AMIX_MAG =   1.60;   BMIX_MAG =  1.00
     AMIN     =   0.10
     WC   =   100.;   INIMIX=   1;  MIXPRE=   1;  MAXMIX= -45

 Intra band minimization:
   WEIMIN = 0.0000     energy-eigenvalue tresh-hold
   EBREAK =  0.56E-08  absolut break condition
   DEPER  =   0.30     relativ break condition  

   TIME   =   0.40     timestep for ELM

  volume/ion in A,a.u.               =      11.08        74.78
  Fermi-wavevector in a.u.,A,eV,Ry     =   1.445993  2.732531 28.448379  2.090897
  Thomas-Fermi vector in A             =   2.564112
 
 Write flags
   LWAVE        =      F    write WAVECAR
   LDOWNSAMPLE  =      F    k-point downsampling of WAVECAR
   LCHARG       =      F    write CHGCAR
   LVTOT        =      F    write LOCPOT, total local potential
   LVHAR        =      F    write LOCPOT, Hartree potential only
   LELF         =      F    write electronic localiz. function (ELF)
   LORBIT       =     11    0 simple, 1 ext, 2 COOP (PROOUT), +10 PAW based schemes


 Dipole corrections
   LMONO  =      F    monopole corrections only (constant potential shift)
   LDIPOL =      F    correct potential (dipole corrections)
   IDIPOL =      0    1-x, 2-y, 3-z, 4-all directions 
   EPSILON=  1.0000000 bulk dielectric constant

 Exchange correlation treatment:
   GGA     =    --    GGA type
   LEXCH   =     8    internal setting for exchange type
   VOSKOWN=      0    Vosko Wilk Nusair interpolation
   LHFCALC =     F    Hartree Fock is set to
   LHFONE  =     F    Hartree Fock one center treatment
   AEXX    =    0.0000 exact exchange contribution

 Linear response parameters
   LEPSILON=     F    determine dielectric tensor
   LRPA    =     F    only Hartree local field effects (RPA)
   LNABLA  =     F    use nabla operator in PAW spheres
   LVEL    =     F    velocity operator in full k-point grid
   LINTERFAST=   F  fast interpolation
   KINTER  =     0    interpolate to denser k-point grid
   CSHIFT  =0.1000    complex shift for real part using Kramers Kronig
   OMEGAMAX=  -1.0    maximum frequency
   DEG_THRESHOLD= 0.2000000E-02 threshold for treating states as degnerate
   RTIME   =   -0.100 relaxation time in fs
  (WPLASMAI=    0.000 imaginary part of plasma frequency in eV, 0.658/RTIME)
   DFIELD  = 0.0000000 0.0000000 0.0000000 field for delta impulse in time
 
 Orbital magnetization related:
   ORBITALMAG=     F  switch on orbital magnetization
   LCHIMAG   =     F  perturbation theory with respect to B field
   DQ        =  0.001000  dq finite difference perturbation B field
   LLRAUG    =     F  two centre corrections for induced B field



--------------------------------------------------------------------------------------------------------


 Static calculation
 charge density and potential will be updated during run
 spin polarized calculation
 RMM-DIIS sequential band-by-band
 perform sub-space diagonalisation
    before iterative eigenvector-optimisation
 modified Broyden-mixing scheme, WC =      100.0
 initial mixing is a Kerker type mixing with AMIX =  0.4000 and BMIX =      1.0000
 Hartree-type preconditioning will be used
 using additional bands          112
 real space projection scheme for non local part
 use partial core corrections
 calculate Harris-corrections to forces 
   (improved forces if not selfconsistent)
 use gradient corrections 
 use of overlap-Matrix (Vanderbilt PP)
 Gauss-broadening in eV      SIGMA  =   0.05


--------------------------------------------------------------------------------------------------------


  energy-cutoff  :      400.00
  volume of cell :      975.20
      direct lattice vectors                 reciprocal lattice vectors
    10.019000053  0.000000000  0.000000000     0.099810360  0.057625538 -0.000000000
    -5.009500027  8.676708567  0.000000000     0.000000000  0.115251076  0.000000000
     0.000000000  0.000000000 11.218000412     0.000000000  0.000000000  0.089142446

  length of vectors
    10.019000053 10.019000053 11.218000412     0.115251076  0.115251076  0.089142446


 
 k-points in units of 2pi/SCALE and weight: read from INCAR                         
   0.00000000  0.00000000  0.00000000       0.125
   0.04990518  0.02881277 -0.00000000       0.125
   0.00000000  0.05762554  0.00000000       0.125
   0.04990518  0.08643831 -0.00000000       0.125
   0.00000000  0.00000000  0.04457122       0.125
   0.04990518  0.02881277  0.04457122       0.125
   0.00000000  0.05762554  0.04457122       0.125
   0.04990518  0.08643831  0.04457122       0.125
 
 k-points in reciprocal lattice and weights: read from INCAR                         
   0.00000000  0.00000000  0.00000000       0.125
   0.50000000 -0.00000000 -0.00000000       0.125
   0.00000000  0.50000000  0.00000000       0.125
   0.50000000  0.50000000 -0.00000000       0.125
   0.00000000  0.00000000  0.50000000       0.125
   0.50000000 -0.00000000  0.50000000       0.125
   0.00000000  0.50000000  0.50000000       0.125
   0.50000000  0.50000000  0.50000000       0.125
 
 position of ions in fractional coordinates (direct lattice) 
   0.68587461  0.63738850  0.24613656
   0.22191026  0.88749750  0.75170081
   0.32707003  0.24965458  0.74798179
   0.68627503  0.37850874  0.75237918
   0.96395186  0.36537851  0.24472365
   0.82059382  0.02572700  0.23494829
   0.47223212  0.66475569  0.74733996
   0.98491367  0.08159299  0.75752003
   0.58688633  0.25317500  0.25499464
   0.11550812  0.74773647  0.26018719
   0.47066546  0.91869992  0.25705472
   0.12548339  0.50350693  0.74654214
   0.82055970  0.72254472  0.75953732
   0.61601769  0.04756585  0.75590744
   0.16332312  0.12003877  0.24467908
   0.32068286  0.52905908  0.24321803
   0.82056259  0.38323518  0.99612445
   0.46758772  0.23321516  0.49918879
   0.31095275  0.37973962  0.00269207
   0.97248967  0.23571496  0.49841235
   0.33019739  0.88666687  0.98965270
   0.96615369  0.74151390  0.50127383
   0.81061187  0.86942415  0.00995917
   0.46701033  0.73804023  0.48516133
   0.15236611  0.04978863  0.99444062
   0.48163803  0.21311538  0.99500546
   0.13433925  0.06909970  0.50463985
   0.81214470  0.41384126  0.49818504
   0.65119852  0.04114941  0.00311276
   0.98146663  0.21530976  0.99863608
   0.63968345  0.07415081  0.49786413
   0.31002241  0.41722618  0.50638080
   0.64676162  0.53461517  0.99485464
   0.98475745  0.71720629  0.99953383
   0.64390589  0.57540137  0.50843553
   0.30529842  0.90802174  0.50159474
   0.14524118  0.54909301  0.00723484
   0.48269387  0.70837806  0.00453733
   0.13697564  0.57498531  0.49301835
   0.80924792  0.90916157  0.49909429
   0.32041393  0.20863902  0.08377349
   0.49501055  0.06322801  0.08803503
   0.63709067  0.38482911  0.09090034
   0.28066757  0.05247398  0.60475751
   0.47056327  0.41142099  0.59815651
   0.63709251  0.22701465  0.59556514
   0.32292898  0.05651371  0.90226419
   0.50181829  0.37827478  0.89901049
   0.64403625  0.20887298  0.90670348
   0.28942113  0.23842105  0.42014529
   0.48183895  0.07161142  0.39849348
   0.65072980  0.42490306  0.40881350
   0.82481896  0.21044040  0.09376983
   0.98740431  0.04984805  0.08717186
   0.14264615  0.38795126  0.09674273
   0.78146385  0.06177589  0.59566676
   0.98247967  0.42149393  0.58760829
   0.14906360  0.24516324  0.60070955
   0.81621503  0.05862430  0.90619537
   0.99335383  0.38398086  0.91388836
   0.13968207  0.20225066  0.90353001
   0.79740841  0.24370993  0.41302281
   0.97314370  0.06873475  0.40802548
   0.15285461  0.41993458  0.41229540
   0.81477100  0.69540886  0.08360456
   0.99519168  0.55765155  0.08938581
   0.14536122  0.88164768  0.08233633
   0.79316663  0.56186974  0.59765464
   0.96900888  0.91957681  0.59863610
   0.15373558  0.74479625  0.58251469
   0.82466203  0.56450323  0.90118556
   0.00058894  0.88714055  0.89864500
   0.14758868  0.69488792  0.91139237
   0.80446096  0.74394339  0.41761453
   0.96882472  0.55978139  0.40782580
   0.14764309  0.91872165  0.41047779
   0.32881076  0.71033157  0.09648244
   0.49837971  0.56111715  0.09502763
   0.64441321  0.87987743  0.09749153
   0.30718106  0.57545784  0.59260294
   0.46248267  0.91011585  0.58973255
   0.65002310  0.74761183  0.59685058
   0.30899722  0.55293087  0.91138346
   0.50190067  0.88170992  0.90967192
   0.63675577  0.70424516  0.91268494
   0.28455358  0.73765990  0.39078355
   0.46668257  0.55898846  0.40574700
   0.66763038  0.92058065  0.40214208
 
 position of ions in cartesian coordinates  (Angst):
   3.67878000  5.53043427  2.76116000
  -2.22259984  7.70055713  8.43258000
   2.02627005  2.16618000  8.39086000
   4.97965005  3.28421000  8.44019000
   7.82747005  3.17028287  2.74531000
   8.09265008  0.22322570  2.63565000
   1.40119992  5.76789143  8.38366000
   9.45911003  0.70795857  8.49786000
   4.61173403  2.19672570  2.86053000
  -2.58850997  6.48789143  2.91878000
   0.11336997  7.97129143  2.88364000
  -1.26509989  4.36878287  8.37471000
   4.60159984  6.26931000  8.52049000
   5.93360016  0.41271500  8.47977000
   1.03500008  1.04154143  2.74481000
   0.56260008  4.59049143  2.72842000
   6.30140000  3.32522000 11.17452451
   3.51647000  2.02354000  5.59990000
   1.21313000  3.29489000  0.03019959
   8.56256000  2.04523000  5.59119000
  -1.13351000  7.69335000 11.10192441
   5.96528000  6.43390000  5.62329000
   3.76614000  7.54374000  0.11172200
   0.98176400  6.40376000  5.44254000
   1.27713997  0.43200143 11.15563531
   3.75793000  1.84914000 11.16197171
   0.99979000  0.59955800  5.66105000
   6.06374000  3.59078000  5.58864000
   6.31822003  0.35704143  0.03491890
   8.75472000  1.86818000 11.20270000
   6.03753000  0.64338500  5.58504000
   1.01602000  3.62015000  5.68058000
   3.80175000  4.63870000 11.16027981
   6.27344000  6.22299000 11.21277087
   3.56882000  4.99259000  5.70363000
  -1.48995000  7.87864000  5.62689000
  -1.29551000  4.76432000  0.08116040
   1.28749000  6.14639000  0.05089980
  -1.50803000  4.98898000  5.53068000
   3.55341000  7.88853000  5.59884000
   2.16505000  1.81030000  0.93977100
   4.64277000  0.54861100  0.98757700
   4.45521000  3.33905000  1.01972000
   2.54914003  0.45530143  6.78417000
   2.65356000  3.56978000  6.71012000
   5.24580000  1.96974000  6.68105000
   2.95232000  0.49035300 10.12160000
   3.13275000  3.28218000 10.08510000
   5.40625000  1.81233000 10.17140000
   1.70534000  2.06871000  4.71319000
   4.46880703  0.62135143  4.47030000
   4.39111000  3.68676000  4.58607000
   7.20966000  1.82593000  1.05191000
   9.64309000  0.43251700  0.97789400
  -0.51427005  3.36614000  1.08526000
   7.52002003  0.53601143  6.68219000
   7.73199000  3.65718000  6.59179000
   0.26532300  2.12721000  6.73876000
   7.88398000  0.50866600 10.16570000
   8.02886000  3.33169000 10.25200000
   0.38629995  1.75487000 10.13580000
   6.76837000  2.11460000  4.63329000
   9.40560003  0.59639143  4.57723000
  -0.57221200  3.64365000  4.62513000
   4.67954000  6.03386000  0.93787600
   7.17727000  4.83858000  1.00273000
  -2.96024005  7.64980000  0.92364900
   5.13205000  4.87518000  6.70449000
   5.10188000  7.97890000  6.71550000
  -2.19078000  6.46238000  6.53465000
   5.43441000  4.89803000 10.10950000
  -4.43823005  7.69746000 10.08100000
  -2.00235005  6.02934000 10.22400000
   4.33311000  6.45498000  4.68480000
   6.90243000  4.85706000  4.57499000
  -3.12310000  7.97148000  4.60474000
  -0.26405100  6.16334000  1.08234000
   2.18235000  4.86865000  1.06602000
   2.04863000  7.63444000  1.09366000
   0.19489100  4.99308000  6.64782000
   0.07438850  7.89681000  6.61562000
   2.76742000  6.48681000  6.69547000
   0.32593600  4.79762000 10.22390000
   0.61161700  7.65034000 10.20470000
   2.85174000  6.11053000 10.23850000
  -0.84436500  6.40046000  4.38381000
   1.87544000  4.85018000  4.55167000
   2.07734000  7.98761000  4.51123000
 


--------------------------------------------------------------------------------------------------------


 k-point  1 :   0.0000 0.0000 0.0000  plane waves:   17725
 k-point  2 :   0.5000-0.0000-0.0000  plane waves:   17736
 k-point  3 :   0.0000 0.5000 0.0000  plane waves:   17736
 k-point  4 :   0.5000 0.5000-0.0000  plane waves:   17736
 k-point  5 :   0.0000 0.0000 0.5000  plane waves:   17676
 k-point  6 :   0.5000-0.0000 0.5000  plane waves:   17700
 k-point  7 :   0.0000 0.5000 0.5000  plane waves:   17700
 k-point  8 :   0.5000 0.5000 0.5000  plane waves:   17700

 maximum and minimum number of plane-waves per node :     17736    17676

 maximum number of plane-waves:     17736
 maximum index in each direction: 
   IXMAX=   16   IYMAX=   16   IZMAX=   18
   IXMIN=  -16   IYMIN=  -16   IZMIN=  -18


 serial   3D FFT for wavefunctions
 parallel 3D FFT for charge:
    minimum data exchange during FFTs selected (reduces bandwidth)


 total amount of memory used by VASP MPI-rank0    88173. kBytes
=======================================================================

   base      :      30000. kBytes
   nonlr-proj:      13664. kBytes
   fftplans  :        992. kBytes
   grid      :      21513. kBytes
   one-center:       2737. kBytes
   wavefun   :      19267. kBytes
 
     INWAV:  cpu time    0.0000: real time    0.0001
 Broyden mixing: mesh for mixing (old mesh)
   NGX = 33   NGY = 33   NGZ = 37
  (NGX  =100   NGY  =100   NGZ  =112)
  gives a total of  40293 points

 initial charge density was supplied:
 charge density of overlapping atoms calculated
 number of electron     672.0000000 magnetization      48.0000000
 keeping initial charge density in first step


--------------------------------------------------------------------------------------------------------


 Maximum index for non-local projection operator         1547
 Maximum index for augmentation-charges          278 (set IRDMAX)


--------------------------------------------------------------------------------------------------------


 First call to EWALD:  gamma=   0.179
 Maximum number of real-space cells 3x 3x 2
 Maximum number of reciprocal cells 3x 3x 3

    FEWALD:  cpu time    0.0027: real time    0.0029


--------------------------------------- Iteration      1(   1)  ---------------------------------------


    POTLOK:  cpu time    0.2057: real time    0.2067
    SETDIJ:  cpu time    3.1126: real time    3.1168
    EDDIAG:  cpu time    3.7392: real time    3.7491
  RMM-DIIS:  cpu time    6.6135: real time    6.6274
    ORTHCH:  cpu time    1.1529: real time    1.1564
       DOS:  cpu time    0.0024: real time    0.0025
    --------------------------------------------
      LOOP:  cpu time   14.8263: real time   14.8590

 eigenvalue-minimisations  :  7168
 total energy-change (2. order) : 0.1884661E+04  (-0.3594970E+05)
 number of electron     672.0000000 magnetization      48.0000000
 augmentation part      672.0000000 magnetization      48.0000000

 Free energy of the ion-electron system (eV)
  ---------------------------------------------------
  alpha Z        PSCENC =      2652.81237852
  Ewald energy   TEWEN  =    -41806.64978127
  -Hartree energ DENC   =    -25802.17401742
  -exchange      EXHF   =         0.00000000
  -V(xc)+E(xc)   XCENC  =      3606.34405361
  PAW double counting   =     55594.23204139   -59034.67079123
  entropy T*S    EENTRO =        -0.06244128
  eigenvalues    EBANDS =     -7187.36817167
  atomic energy  EATOM  =     73862.19814772
  Solvation  Ediel_sol  =         0.00000000
  ---------------------------------------------------
  free energy    TOTEN  =      1884.66141837 eV

  energy without entropy =     1884.72385965  energy(sigma->0) =     1884.69263901


--------------------------------------------------------------------------------------------------------




--------------------------------------- Iteration      1(   2)  ---------------------------------------


    EDDIAG:  cpu time    3.7006: real time    3.7089
  RMM-DIIS:  cpu time    6.6243: real time    6.6383
    ORTHCH:  cpu time    1.1484: real time    1.1526
       DOS:  cpu time    0.0014: real time    0.0014
    --------------------------------------------
      LOOP:  cpu time   11.4747: real time   11.5013

 eigenvalue-minimisations  :  7168
 total energy-change (2. order) :-0.2729946E+04  (-0.8704408E+04)
 number of electron     672.0000000 magnetization      48.0000000
 augmentation part      672.0000000 magnetization      48.0000000

 Free energy of the ion-electron system (eV)
  ---------------------------------------------------
  alpha Z        PSCENC =      2652.81237852
  Ewald energy   TEWEN  =    -41806.64978127
  -Hartree energ DENC   =    -25802.17401742
  -exchange      EXHF   =         0.00000000
  -V(xc)+E(xc)   XCENC  =      3606.34405361
  PAW double counting   =     55594.23204139   -59034.67079123
  entropy T*S    EENTRO =        -0.04534686
  eigenvalues    EBANDS =     -9917.33146420
  atomic energy  EATOM  =     73862.19814772
  Solvation  Ediel_sol  =         0.00000000
  ---------------------------------------------------
  free energy    TOTEN  =      -845.28477974 eV

  energy without entropy =     -845.23943288  energy(sigma->0) =     -845.26210631


--------------------------------------------------------------------------------------------------------




--------------------------------------- Iteration      1(   3)  ---------------------------------------


    EDDIAG:  cpu time    3.7583: real time    3.7746
  RMM-DIIS:  cpu time    6.6026: real time    6.6197
    ORTHCH:  cpu time    1.1602: real time    1.1634
       DOS:  cpu time    0.0014: real time    0.0014
    --------------------------------------------
      LOOP:  cpu time   11.5225: real time   11.5591

 eigenvalue-minimisations  :  7168
 total energy-change (2. order) : 0.3115158E+03  (-0.1564528E+04)
 number of electron     672.0000000 magnetization      48.0000000
 augmentation part      672.0000000 magnetization      48.0000000

 Free energy of the ion-electron system (eV)
  ---------------------------------------------------
  alpha Z        PSCENC =      2652.81237852
  Ewald energy   TEWEN  =    -41806.64978127
  -Hartree energ DENC   =    -25802.17401742
  -exchange      EXHF   =         0.00000000
  -V(xc)+E(xc)   XCENC  =      3606.34405361
  PAW double counting   =     55594.23204139   -59034.67079123
  entropy T*S    EENTRO =        -0.05071231
  eigenvalues    EBANDS =     -9605.81025167
  atomic energy  EATOM  =     73862.19814772
  Solvation  Ediel_sol  =         0.00000000
  ---------------------------------------------------
  free energy    TOTEN  =      -533.76893266 eV

  energy without entropy =     -533.71822035  energy(sigma->0) =     -533.74357650


--------------------------------------------------------------------------------------------------------




--------------------------------------- Iteration      1(   4)  ---------------------------------------


    EDDIAG:  cpu time    3.7656: real time    3.7742
  RMM-DIIS:  cpu time    6.6118: real time    6.6279
    ORTHCH:  cpu time    1.1506: real time    1.1545
       DOS:  cpu time    0.0011: real time    0.0011
    --------------------------------------------
      LOOP:  cpu time   11.5291: real time   11.5576

 eigenvalue-minimisations  :  7168
 total energy-change (2. order) :-0.5241129E+03  (-0.5075797E+03)
 number of electron     672.0000000 magnetization      48.0000000
 augmentation part      672.0000000 magnetization      48.0000000

 Free energy of the ion-electron system (eV)
  ---------------------------------------------------
  alpha Z        PSCENC =      2652.81237852
  Ewald energy   TEWEN  =    -41806.64978127
  -Hartree energ DENC   =    -25802.17401742
  -exchange      EXHF   =         0.00000000
  -V(xc)+E(xc)   XCENC  =      3606.34405361
  PAW double counting   =     55594.23204139   -59034.67079123
  entropy T*S    EENTRO =        -0.00000000
  eigenvalues    EBANDS =    -10129.97387290
  atomic energy  EATOM  =     73862.19814772
  Solvation  Ediel_sol  =         0.00000000
  ---------------------------------------------------
  free energy    TOTEN  =     -1057.88184158 eV

  energy without entropy =    -1057.88184158  energy(sigma->0) =    -1057.88184158


--------------------------------------------------------------------------------------------------------




--------------------------------------- Iteration      1(   5)  ---------------------------------------


    EDDIAG:  cpu time    3.7279: real time    3.7352
  RMM-DIIS:  cpu time    6.6042: real time    6.6377
    ORTHCH:  cpu time    1.1535: real time    1.1582
       DOS:  cpu time    0.0011: real time    0.0011
    --------------------------------------------
      LOOP:  cpu time   11.4867: real time   11.5322

 eigenvalue-minimisations  :  7168
 total energy-change (2. order) :-0.1481262E+03  (-0.2129106E+03)
 number of electron     672.0000000 magnetization      48.0000000
 augmentation part      672.0000000 magnetization      48.0000000

 Free energy of the ion-electron system (eV)
  ---------------------------------------------------
  alpha Z        PSCENC =      2652.81237852
  Ewald energy   TEWEN  =    -41806.64978127
  -Hartree energ DENC   =    -25802.17401742
  -exchange      EXHF   =         0.00000000
  -V(xc)+E(xc)   XCENC  =      3606.34405361
  PAW double counting   =     55594.23204139   -59034.67079123
  entropy T*S    EENTRO =        -0.00000000
  eigenvalues    EBANDS =    -10278.10004158
  atomic energy  EATOM  =     73862.19814772
  Solvation  Ediel_sol  =         0.00000000
  ---------------------------------------------------
  free energy    TOTEN  =     -1206.00801026 eV

  energy without entropy =    -1206.00801026  energy(sigma->0) =    -1206.00801026


--------------------------------------------------------------------------------------------------------




--------------------------------------- Iteration      1(   6)  ---------------------------------------


    EDDIAG:  cpu time    3.7371: real time    3.7471
  RMM-DIIS:  cpu time    6.6314: real time    6.6441
    ORTHCH:  cpu time    1.1846: real time    1.1882
       DOS:  cpu time    0.0010: real time    0.0010
    --------------------------------------------
      LOOP:  cpu time   11.5541: real time   11.5804

 eigenvalue-minimisations  :  7168
 total energy-change (2. order) :-0.2125830E+02  (-0.1149630E+03)
 number of electron     672.0000000 magnetization      48.0000000
 augmentation part      672.0000000 magnetization      48.0000000

 Free energy of the ion-electron system (eV)
  ---------------------------------------------------
  alpha Z        PSCENC =      2652.81237852
  Ewald energy   TEWEN  =    -41806.64978127
  -Hartree energ DENC   =    -25802.17401742
  -exchange      EXHF   =         0.00000000
  -V(xc)+E(xc)   XCENC  =      3606.34405361
  PAW double counting   =     55594.23204139   -59034.67079123
  entropy T*S    EENTRO =        -0.00000000
  eigenvalues    EBANDS =    -10299.35834347
  atomic energy  EATOM  =     73862.19814772
  Solvation  Ediel_sol  =         0.00000000
  ---------------------------------------------------
  free energy    TOTEN  =     -1227.26631215 eV

  energy without entropy =    -1227.26631215  energy(sigma->0) =    -1227.26631215


--------------------------------------------------------------------------------------------------------




--------------------------------------- Iteration      1(   7)  ---------------------------------------


    EDDIAG:  cpu time    3.7424: real time    3.7537
  RMM-DIIS:  cpu time    6.6212: real time    6.6357
    ORTHCH:  cpu time    1.1560: real time    1.1586
       DOS:  cpu time    0.0010: real time    0.0010
    --------------------------------------------
      LOOP:  cpu time   11.5205: real time   11.5490

 eigenvalue-minimisations  :  7168
 total energy-change (2. order) :-0.6708437E+01  (-0.7576264E+02)
 number of electron     672.0000000 magnetization      48.0000000
 augmentation part      672.0000000 magnetization      48.0000000

 Free energy of the ion-electron system (eV)
  ---------------------------------------------------
  alpha Z        PSCENC =      2652.81237852
  Ewald energy   TEWEN  =    -41806.64978127
  -Hartree energ DENC   =    -25802.17401742
  -exchange      EXHF   =         0.00000000
  -V(xc)+E(xc)   XCENC  =      3606.34405361
  PAW double counting   =     55594.23204139   -59034.67079123
  entropy T*S    EENTRO =        -0.00000000
  eigenvalues    EBANDS =    -10306.06678046
  atomic energy  EATOM  =     73862.19814772
  Solvation  Ediel_sol  =         0.00000000
  ---------------------------------------------------
  free energy    TOTEN  =     -1233.97474914 eV

  energy without entropy =    -1233.97474914  energy(sigma->0) =    -1233.97474914


--------------------------------------------------------------------------------------------------------




--------------------------------------- Iteration      1(   8)  ---------------------------------------


    EDDIAG:  cpu time    3.7411: real time    3.7439
  RMM-DIIS:  cpu time    6.6266: real time    6.6477
    ORTHCH:  cpu time    1.1539: real time    1.1562
       DOS:  cpu time    0.0010: real time    0.0010
    --------------------------------------------
      LOOP:  cpu time   11.5227: real time   11.5488

 eigenvalue-minimisations  :  7168
 total energy-change (2. order) : 0.4769523E+01  (-0.5223870E+02)
 number of electron     672.0000000 magnetization      48.0000000
 augmentation part      672.0000000 magnetization      48.0000000

 Free energy of the ion-electron system (eV)
  ---------------------------------------------------
  alpha Z        PSCENC =      2652.81237852
  Ewald energy   TEWEN  =    -41806.64978127
  -Hartree energ DENC   =    -25802.17401742
  -exchange      EXHF   =         0.00000000
  -V(xc)+E(xc)   XCENC  =      3606.34405361
  PAW double counting   =     55594.23204139   -59034.67079123
  entropy T*S    EENTRO =        -0.00000000
  eigenvalues    EBANDS =    -10301.29725707
  atomic energy  EATOM  =     73862.19814772
  Solvation  Ediel_sol  =         0.00000000
  ---------------------------------------------------
  free energy    TOTEN  =     -1229.20522575 eV

  energy without entropy =    -1229.20522575  energy(sigma->0) =    -1229.20522575


--------------------------------------------------------------------------------------------------------




--------------------------------------- Iteration      1(   9)  ---------------------------------------


    EDDIAG:  cpu time    3.7311: real time    3.7347
  RMM-DIIS:  cpu time   13.7318: real time   13.7437
    ORTHCH:  cpu time    1.1613: real time    1.1636
       DOS:  cpu time    0.0010: real time    0.0010
    --------------------------------------------
      LOOP:  cpu time   18.6252: real time   18.6429

 eigenvalue-minimisations  : 20202
 total energy-change (2. order) : 0.1781894E+02  (-0.2336014E+02)
 number of electron     672.0000000 magnetization      48.0000000
 augmentation part      672.0000000 magnetization      48.0000000

 Free energy of the ion-electron system (eV)
  ---------------------------------------------------
  alpha Z        PSCENC =      2652.81237852
  Ewald energy   TEWEN  =    -41806.64978127
  -Hartree energ DENC   =    -25802.17401742
  -exchange      EXHF   =         0.00000000
  -V(xc)+E(xc)   XCENC  =      3606.34405361
  PAW double counting   =     55594.23204139   -59034.67079123
  entropy T*S    EENTRO =        -0.00000000
  eigenvalues    EBANDS =    -10283.47832189
  atomic energy  EATOM  =     73862.19814772
  Solvation  Ediel_sol  =         0.00000000
  ---------------------------------------------------
  free energy    TOTEN  =     -1211.38629058 eV

  energy without entropy =    -1211.38629058  energy(sigma->0) =    -1211.38629058


--------------------------------------------------------------------------------------------------------




--------------------------------------- Iteration      1(  10)  ---------------------------------------


    EDDIAG:  cpu time    3.7349: real time    3.7382
  RMM-DIIS:  cpu time   15.7652: real time   15.7890
    ORTHCH:  cpu time    1.1541: real time    1.1564
       DOS:  cpu time    0.0012: real time    0.0012
    --------------------------------------------
      LOOP:  cpu time   20.6555: real time   20.6847

 eigenvalue-minimisations  : 20314
 total energy-change (2. order) :-0.3054191E+01  (-0.1029793E+01)
 number of electron     672.0000000 magnetization      48.0000000
 augmentation part      672.0000000 magnetization      48.0000000

 Free energy of the ion-electron system (eV)
  ---------------------------------------------------
  alpha Z        PSCENC =      2652.81237852
  Ewald energy   TEWEN  =    -41806.64978127
  -Hartree energ DENC   =    -25802.17401742
  -exchange      EXHF   =         0.00000000
  -V(xc)+E(xc)   XCENC  =      3606.34405361
  PAW double counting   =     55594.23204139   -59034.67079123
  entropy T*S    EENTRO =        -0.00000010
  eigenvalues    EBANDS =    -10286.53251318
  atomic energy  EATOM  =     73862.19814772
  Solvation  Ediel_sol  =         0.00000000
  ---------------------------------------------------
  free energy    TOTEN  =     -1214.44048197 eV

  energy without entropy =    -1214.44048187  energy(sigma->0) =    -1214.44048192


--------------------------------------------------------------------------------------------------------




--------------------------------------- Iteration      1(  11)  ---------------------------------------


    EDDIAG:  cpu time    3.7153: real time    3.7206
  RMM-DIIS:  cpu time   15.2169: real time   15.2540
    ORTHCH:  cpu time    1.1591: real time    1.1619
       DOS:  cpu time    0.0011: real time    0.0011
    --------------------------------------------
      LOOP:  cpu time   20.0924: real time   20.1375

 eigenvalue-minimisations  : 21674
 total energy-change (2. order) : 0.1065197E+00  (-0.9513959E-01)
 number of electron     672.0000000 magnetization      48.0000000
 augmentation part      672.0000000 magnetization      48.0000000

 Free energy of the ion-electron system (eV)
  ---------------------------------------------------
  alpha Z        PSCENC =      2652.81237852
  Ewald energy   TEWEN  =    -41806.64978127
  -Hartree energ DENC   =    -25802.17401742
  -exchange      EXHF   =         0.00000000
  -V(xc)+E(xc)   XCENC  =      3606.34405361
  PAW double counting   =     55594.23204139   -59034.67079123
  entropy T*S    EENTRO =        -0.00000023
  eigenvalues    EBANDS =    -10286.42599339
  atomic energy  EATOM  =     73862.19814772
  Solvation  Ediel_sol  =         0.00000000
  ---------------------------------------------------
  free energy    TOTEN  =     -1214.33396230 eV

  energy without entropy =    -1214.33396207  energy(sigma->0) =    -1214.33396219


--------------------------------------------------------------------------------------------------------




--------------------------------------- Iteration      1(  12)  ---------------------------------------


    EDDIAG:  cpu time    3.7060: real time    3.7105
  RMM-DIIS:  cpu time   16.1049: real time   16.1179
    ORTHCH:  cpu time    1.1521: real time    1.1543
       DOS:  cpu time    0.0016: real time    0.0016
    CHARGE:  cpu time    1.3448: real time    1.3455
    MIXING:  cpu time    0.0013: real time    0.0016
    --------------------------------------------
      LOOP:  cpu time   22.3107: real time   22.3313

 eigenvalue-minimisations  : 22856
 total energy-change (2. order) : 0.6284823E-02  (-0.7089530E-02)
 number of electron     672.0000497 magnetization      48.0000009
 augmentation part      239.1442846 magnetization      29.0503015

 Broyden mixing:
  rms(total) = 0.12641E+02    rms(broyden)= 0.12632E+02
  rms(prec ) = 0.14481E+02
  weight for this iteration     100.00

 Free energy of the ion-electron system (eV)
  ---------------------------------------------------
  alpha Z        PSCENC =      2652.81237852
  Ewald energy   TEWEN  =    -41806.64978127
  -Hartree energ DENC   =    -25802.17401742
  -exchange      EXHF   =         0.00000000
  -V(xc)+E(xc)   XCENC  =      3606.34405361
  PAW double counting   =     55594.23204139   -59034.67079123
  entropy T*S    EENTRO =        -0.00000020
  eigenvalues    EBANDS =    -10286.41970860
  atomic energy  EATOM  =     73862.19814772
  Solvation  Ediel_sol  =         0.00000000
  ---------------------------------------------------
  free energy    TOTEN  =     -1214.32767748 eV

  energy without entropy =    -1214.32767728  energy(sigma->0) =    -1214.32767738


--------------------------------------------------------------------------------------------------------




--------------------------------------- Iteration      1(  13)  ---------------------------------------


    POTLOK:  cpu time    0.1985: real time    0.1990
    SETDIJ:  cpu time    3.2549: real time    3.2646
    EDDIAG:  cpu time    3.7496: real time    3.7527
  RMM-DIIS:  cpu time   13.0385: real time   13.1418
    ORTHCH:  cpu time    1.1718: real time    1.1742
       DOS:  cpu time    0.0012: real time    0.0012
    CHARGE:  cpu time    1.3466: real time    1.3475
    MIXING:  cpu time    0.0008: real time    0.0008
    --------------------------------------------
      LOOP:  cpu time   22.7619: real time   22.8820

 eigenvalue-minimisations  : 17349
 total energy-change (2. order) : 0.2265423E+03  (-0.1373473E+03)
 number of electron     672.0000346 magnetization      48.0000021
 augmentation part      268.6256833 magnetization      26.8285438

 Broyden mixing:
  rms(total) = 0.13814E+02    rms(broyden)= 0.13811E+02
  rms(prec ) = 0.15487E+02
  weight for this iteration     100.00

 eigenvalues of (default mixing * dielectric matrix)
  average eigenvalue GAMMA=   0.3202
  0.3202

 Free energy of the ion-electron system (eV)
  ---------------------------------------------------
  alpha Z        PSCENC =      2652.81237852
  Ewald energy   TEWEN  =    -41806.64978127
  -Hartree energ DENC   =    -25138.84612379
  -exchange      EXHF   =         0.00000000
  -V(xc)+E(xc)   XCENC  =      3697.05232628
  PAW double counting   =     59963.29007523   -63389.01327991
  entropy T*S    EENTRO =        -0.07884477
  eigenvalues    EBANDS =    -10828.55029148
  atomic energy  EATOM  =     73862.19814772
  Solvation  Ediel_sol  =         0.00000000
  ---------------------------------------------------
  free energy    TOTEN  =      -987.78539347 eV

  energy without entropy =     -987.70654870  energy(sigma->0) =     -987.74597108


--------------------------------------------------------------------------------------------------------




--------------------------------------- Iteration      1(  14)  ---------------------------------------


    POTLOK:  cpu time    0.2090: real time    0.2096
    SETDIJ:  cpu time    3.2601: real time    3.2621
    EDDIAG:  cpu time    3.7308: real time    3.7333
  RMM-DIIS:  cpu time   13.6645: real time   13.6920
    ORTHCH:  cpu time    1.1859: real time    1.1884
       DOS:  cpu time    0.0014: real time    0.0014
    CHARGE:  cpu time    1.3484: real time    1.3497
    MIXING:  cpu time    0.0007: real time    0.0007
    --------------------------------------------
      LOOP:  cpu time   23.4007: real time   23.4371

 eigenvalue-minimisations  : 17798
 total energy-change (2. order) : 0.7328465E+02  (-0.1813533E+02)
 number of electron     672.0000440 magnetization      48.0000032
 augmentation part      246.7618733 magnetization      32.2485019

 Broyden mixing:
  rms(total) = 0.52943E+01    rms(broyden)= 0.52902E+01
  rms(prec ) = 0.56935E+01
  weight for this iteration     100.00

 eigenvalues of (default mixing * dielectric matrix)
  average eigenvalue GAMMA=   0.7330
  1.1045  0.3615

 Free energy of the ion-electron system (eV)
  ---------------------------------------------------
  alpha Z        PSCENC =      2652.81237852
  Ewald energy   TEWEN  =    -41806.64978127
  -Hartree energ DENC   =    -25745.75371487
  -exchange      EXHF   =         0.00000000
  -V(xc)+E(xc)   XCENC  =      3675.16129862
  PAW double counting   =     63402.92108091   -66885.91205867
  entropy T*S    EENTRO =        -0.00000000
  eigenvalues    EBANDS =    -10069.27809539
  atomic energy  EATOM  =     73862.19814772
  Solvation  Ediel_sol  =         0.00000000
  ---------------------------------------------------
  free energy    TOTEN  =      -914.50074443 eV

  energy without entropy =     -914.50074443  energy(sigma->0) =     -914.50074443


--------------------------------------------------------------------------------------------------------




--------------------------------------- Iteration      1(  15)  ---------------------------------------


    POTLOK:  cpu time    0.1965: real time    0.1970
    SETDIJ:  cpu time    3.2581: real time    3.2608
    EDDIAG:  cpu time    3.7199: real time    3.7221
  RMM-DIIS:  cpu time   13.7107: real time   13.7478
    ORTHCH:  cpu time    1.1537: real time    1.1571
       DOS:  cpu time    0.0010: real time    0.0010
    CHARGE:  cpu time    1.3472: real time    1.3476
    MIXING:  cpu time    0.0008: real time    0.0008
    --------------------------------------------
      LOOP:  cpu time   23.3879: real time   23.4340

 eigenvalue-minimisations  : 18450
 total energy-change (2. order) : 0.1308503E+02  (-0.1916527E+01)
 number of electron     672.0000432 magnetization      48.0000037
 augmentation part      249.6702691 magnetization      33.7975715

 Broyden mixing:
  rms(total) = 0.21572E+01    rms(broyden)= 0.21569E+01
  rms(prec ) = 0.22413E+01
  weight for this iteration     100.00

 eigenvalues of (default mixing * dielectric matrix)
  average eigenvalue GAMMA=   0.9587
  0.3890  0.7537  1.7332

 Free energy of the ion-electron system (eV)
  ---------------------------------------------------
  alpha Z        PSCENC =      2652.81237852
  Ewald energy   TEWEN  =    -41806.64978127
  -Hartree energ DENC   =    -25672.85677698
  -exchange      EXHF   =         0.00000000
  -V(xc)+E(xc)   XCENC  =      3707.27892026
  PAW double counting   =     67534.77499460   -71058.57775915
  entropy T*S    EENTRO =        -0.00000000
  eigenvalues    EBANDS =    -10120.39583701
  atomic energy  EATOM  =     73862.19814772
  Solvation  Ediel_sol  =         0.00000000
  ---------------------------------------------------
  free energy    TOTEN  =      -901.41571331 eV

  energy without entropy =     -901.41571331  energy(sigma->0) =     -901.41571331


--------------------------------------------------------------------------------------------------------




--------------------------------------- Iteration      1(  16)  ---------------------------------------


    POTLOK:  cpu time    0.2044: real time    0.2045
    SETDIJ:  cpu time    3.2962: real time    3.2970
    EDDIAG:  cpu time    3.8269: real time    3.8310
  RMM-DIIS:  cpu time   13.1116: real time   13.1226
    ORTHCH:  cpu time    1.1939: real time    1.2213
       DOS:  cpu time    0.0010: real time    0.0010
    CHARGE:  cpu time    1.3364: real time    1.3494
    MIXING:  cpu time    0.0013: real time    0.0013
    --------------------------------------------
      LOOP:  cpu time   22.9717: real time   23.0281

 eigenvalue-minimisations  : 17373
 total energy-change (2. order) :-0.1495068E+01  (-0.7123706E+00)
 number of electron     672.0000417 magnetization      48.0000037
 augmentation part      251.2091149 magnetization      33.8789450

 Broyden mixing:
  rms(total) = 0.14080E+01    rms(broyden)= 0.14074E+01
  rms(prec ) = 0.14969E+01
  weight for this iteration     100.00

 eigenvalues of (default mixing * dielectric matrix)
  average eigenvalue GAMMA=   0.9754
  2.0838  0.8977  0.3969  0.5232

 Free energy of the ion-electron system (eV)
  ---------------------------------------------------
  alpha Z        PSCENC =      2652.81237852
  Ewald energy   TEWEN  =    -41806.64978127
  -Hartree energ DENC   =    -25622.20415438
  -exchange      EXHF   =         0.00000000
  -V(xc)+E(xc)   XCENC  =      3708.70946573
  PAW double counting   =     70566.82792229   -74121.02005836
  entropy T*S    EENTRO =        -0.00000000
  eigenvalues    EBANDS =    -10143.58470135
  atomic energy  EATOM  =     73862.19814772
  Solvation  Ediel_sol  =         0.00000000
  ---------------------------------------------------
  free energy    TOTEN  =      -902.91078111 eV

  energy without entropy =     -902.91078111  energy(sigma->0) =     -902.91078111


--------------------------------------------------------------------------------------------------------




--------------------------------------- Iteration      1(  17)  ---------------------------------------


    POTLOK:  cpu time    0.2116: real time    0.2120
    SETDIJ:  cpu time    3.2962: real time    3.2996
    EDDIAG:  cpu time    3.7248: real time    3.7277
  RMM-DIIS:  cpu time   13.7914: real time   13.8035
    ORTHCH:  cpu time    1.1547: real time    1.1570
       DOS:  cpu time    0.0015: real time    0.0015
    CHARGE:  cpu time    1.3472: real time    1.3490
    MIXING:  cpu time    0.0014: real time    0.0014
    --------------------------------------------
      LOOP:  cpu time   23.5288: real time   23.5518

 eigenvalue-minimisations  : 18611
 total energy-change (2. order) : 0.1871396E+00  (-0.6278622E-01)
 number of electron     672.0000421 magnetization      48.0000036
 augmentation part      251.0972333 magnetization      33.8678970

 Broyden mixing:
  rms(total) = 0.74651E+00    rms(broyden)= 0.74642E+00
  rms(prec ) = 0.83918E+00
  weight for this iteration     100.00

 eigenvalues of (default mixing * dielectric matrix)
  average eigenvalue GAMMA=   1.0080
  2.2497  1.1362  0.3862  0.7034  0.5644

 Free energy of the ion-electron system (eV)
  ---------------------------------------------------
  alpha Z        PSCENC =      2652.81237852
  Ewald energy   TEWEN  =    -41806.64978127
  -Hartree energ DENC   =    -25615.08905472
  -exchange      EXHF   =         0.00000000
  -V(xc)+E(xc)   XCENC  =      3705.67831836
  PAW double counting   =     71378.93677319   -74940.95783163
  entropy T*S    EENTRO =        -0.00000000
  eigenvalues    EBANDS =    -10139.65259165
  atomic energy  EATOM  =     73862.19814772
  Solvation  Ediel_sol  =         0.00000000
  ---------------------------------------------------
  free energy    TOTEN  =      -902.72364149 eV

  energy without entropy =     -902.72364149  energy(sigma->0) =     -902.72364149


--------------------------------------------------------------------------------------------------------




--------------------------------------- Iteration      1(  18)  ---------------------------------------


    POTLOK:  cpu time    0.2027: real time    0.2028
    SETDIJ:  cpu time    3.2835: real time    3.2851
    EDDIAG:  cpu time    3.7480: real time    3.7622
  RMM-DIIS:  cpu time   13.2160: real time   13.2263
    ORTHCH:  cpu time    1.1655: real time    1.1685
       DOS:  cpu time    0.0014: real time    0.0014
    CHARGE:  cpu time    1.3446: real time    1.3472
    MIXING:  cpu time    0.0009: real time    0.0009
    --------------------------------------------
      LOOP:  cpu time   22.9626: real time   22.9944

 eigenvalue-minimisations  : 17474
 total energy-change (2. order) : 0.3789122E+00  (-0.7351164E-01)
 number of electron     672.0000423 magnetization      48.0000035
 augmentation part      250.6002983 magnetization      33.8315366

 Broyden mixing:
  rms(total) = 0.25514E+00    rms(broyden)= 0.25483E+00
  rms(prec ) = 0.26712E+00
  weight for this iteration     100.00

[...]
   4      -0.740    -0.691     1.431    -0.136    -0.537    -0.296
   5      -0.848    -0.583     1.431     0.083    -0.473     0.222
   6      -0.670    -0.896     1.566     0.007     0.127    -0.460
   7      -0.563    -0.761     1.324    -0.030    -0.015     0.277
   8      -0.727    -0.990     1.717    -0.036     0.068     0.551
   9      -0.709    -0.595     1.305    -0.121     0.421     0.112
  10      -0.870    -0.620     1.490    -0.124     0.467     0.121
  11      -0.775    -0.737     1.512     0.077    -0.371     0.274
  12      -0.827    -0.926     1.753    -0.078    -0.065    -0.154
  13      -0.785    -0.716     1.501     0.095     0.416    -0.295
  14      -0.823    -1.019     1.842    -0.063     0.078     0.055
  15      -0.837    -0.919     1.756    -0.055    -0.066     0.093
  16      -0.631    -0.920     1.550    -0.001    -0.023    -0.459
  17       1.680     1.274    -2.954     0.043     0.083     0.027
  18       1.465     1.360    -2.825    -0.087    -0.072     0.100
  19       1.303     1.570    -2.872    -0.167    -0.034     0.074
  20       1.311     1.653    -2.964    -0.085    -0.017     0.026
  21       1.551     1.439    -2.991     0.054     0.026    -0.028
  22       1.717     1.353    -3.070     0.000    -0.037     0.066
  23       1.410     1.542    -2.952    -0.000    -0.020    -0.020
  24       1.250     1.498    -2.748     0.012    -0.006    -0.032
  25      -0.932    -0.787     1.719     0.150    -0.231    -0.543
  26       0.176    -0.273     0.097     0.186    -0.626    -0.157
  27       1.213    -0.713    -0.499     0.399    -1.019     1.216
  28      -1.115    -0.142     1.257    -0.076     0.900    -0.024
  29      -0.173    -0.572     0.745     0.164     0.537    -0.564
  30       0.349    -1.607     1.259     0.742     0.961     0.356
  31      -0.554     1.221    -0.667     0.618    -1.302     0.581
  32      -0.062    -1.025     1.087     0.742     0.249     0.521
  33       1.934    -0.617    -1.316    -0.528     0.212     0.601
  34      -1.887    -0.152     2.040    -1.906    -0.343     1.138
  35      -0.771    -0.458     1.229     0.450    -0.244     0.056
  36      -0.574     0.874    -0.300    -1.011    -0.260     0.054
  37      -0.600    -0.353     0.952     0.726     0.027     1.049
  38      -1.857     1.251     0.607     0.468    -0.472     0.208
  39       0.001    -1.101     1.100     0.380    -0.077     0.906
  40      -0.275     0.580    -0.305     1.220    -0.763     1.258
  41      -3.548     1.336     2.212    -4.218     2.347    -4.325
  42      -3.938     3.026     0.911     5.657     1.404     3.042
  43       7.226    -5.527    -1.700    -0.447    -5.105     2.313
  44      -3.440     3.665    -0.225     5.905    -2.149    -3.921
  45      -4.292     1.758     2.533    -3.474    -1.997     4.919
  46       3.975    -4.326     0.350     1.023     4.671    -1.948
  47      -3.512     1.622     1.890    -3.789     2.124    -4.521
  48       7.556    -6.591    -0.965    -0.766    -4.191    -0.685
  49      -3.049     1.608     1.440     3.629     2.861     4.809
  50       5.365    -6.751     1.386    -0.276     4.703     0.861
  51      -3.029     3.894    -0.864    -3.283    -1.922     2.748
  52      -4.073     3.866     0.207     4.272    -2.024    -5.321
  53      -2.654     1.830     0.824    -3.820     4.231    -2.524
  54      -3.098     2.206     0.892     3.247     2.602     3.700
  55       2.535    -4.257     1.722     0.902    -4.059    -1.293
  56      -4.143     5.501    -1.358     5.541    -3.321    -3.752
  57      -3.313     1.673     1.640    -4.960    -2.297     5.159
  58       4.799    -5.773     0.974     0.029     4.677    -0.698
  59      -0.635     1.009    -0.374    -7.755     3.176    -4.373
  60       5.948    -6.665     0.718     1.440    -4.684     0.154
  61      -3.158     1.900     1.257     4.939     0.929     4.431
  62       4.837    -6.664     1.826     0.188     4.071     0.200
  63      -2.943     0.871     2.073    -4.338    -2.876     4.216
  64      -3.911     2.263     1.649     4.220    -1.348    -3.560
  65      -3.229     1.353     1.877    -5.507     4.055    -3.090
  66      -4.633     2.129     2.503     4.823     3.327     4.619
  67       3.786    -7.450     3.664    -1.512    -5.576     0.642
  68      -5.330     5.787    -0.456     4.259    -2.297    -3.063
  69      -3.633     3.853    -0.220    -4.843    -1.517     3.240
  70       5.836    -7.198     1.362    -3.091     4.365     0.648
  71      -1.684     2.948    -1.264    -5.698     2.570    -3.338
  72       6.646    -5.576    -1.069    -0.647    -5.106    -0.095
  73      -1.537     1.237     0.300     5.068     2.042     5.309
  74       4.264    -6.108     1.844     0.703     4.469     0.962
  75      -4.229     2.493     1.736    -5.351    -2.071     6.343
  76      -2.592     2.272     0.320     4.933    -1.561    -4.049
  77      -5.114     3.640     1.474    -3.016     2.855    -3.359
  78      -1.445     2.638    -1.192     6.943     1.095     3.828
  79       4.122    -4.941     0.820     1.284    -4.579     2.100
  80      -1.957     1.575     0.382     4.528    -1.343    -4.400
  81      -5.275     3.883     1.393    -5.322    -3.598     4.772
  82       3.981    -6.053     2.071     1.646     5.710     0.925
  83      -2.169     2.300    -0.131    -4.296     0.404    -4.093
  84       5.104    -5.148     0.044    -2.142    -4.133    -2.571
  85      -3.448     1.031     2.417     3.801     4.176     3.471
  86       5.298    -4.347    -0.951    -0.696     3.201    -0.508
  87      -1.820     2.701    -0.881    -4.467    -0.315     3.667
  88      -2.994     2.891     0.104     4.972    -2.723    -2.581
 ---------------------------------------------------------------------


 Total hyperfine coupling parameters after diagonalization (MHz)
 (convention: |A_zz| > |A_xx| > |A_yy|)
 ----------------------------------------------------------------------
  ion      A_xx      A_yy      A_zz     asymmetry (A_yy - A_xx)/ A_zz 
 ----------------------------------------------------------------------
   1       1.228     1.009     3.712      -0.059
   2       1.522     1.233     3.590      -0.080
   3       2.014     1.621     4.052      -0.097
   4       1.435     1.011     3.601      -0.118
   5       2.957     2.536     5.064      -0.083
   6       2.291     1.982     4.620      -0.067
   7       0.858     0.617     2.778      -0.087
   8       1.933     1.550     4.481      -0.085
   9       1.080     0.738     2.999      -0.114
  10       2.150     1.708     4.304      -0.103
  11       1.499     1.253     3.775      -0.065
  12       1.008     0.813     3.555      -0.055
  13       1.861     1.554     4.118      -0.075
  14       0.531     0.297     3.182      -0.074
  15       0.527     0.393     3.102      -0.043
  16       2.446     2.075     4.710      -0.079
  17      15.185    10.959    15.601      -0.271
  18      12.940     8.801    13.146      -0.315
  19      13.587     9.490    14.016      -0.292
  20      14.517    10.262    14.900      -0.286
  21      15.461    11.052    15.616      -0.282
  22      16.344    11.919    16.708      -0.265
  23      14.567    10.204    14.699      -0.297
  24      12.733     8.736    12.982      -0.308
  25      96.898    96.691    99.578      -0.002
  26      96.011    95.846    97.155      -0.002
  27      93.536    90.988    94.812      -0.027
  28     102.758   101.477   104.459      -0.012
  29      96.879    96.091    98.159      -0.008
  30      97.923    96.214   100.077      -0.017
  31      93.774    90.956    94.522      -0.030
  32      92.788    91.183    94.004      -0.017
  33      96.300    94.905    98.664      -0.014
  34     101.136    97.674   103.620      -0.033
  35      98.912    97.942   100.313      -0.010
  36      95.352    94.472    97.027      -0.009
  37      94.035    92.781    95.814      -0.013
  38      93.924    91.231    94.600      -0.028
  39     100.265    98.646   101.596      -0.016
  40      93.706    91.064    94.930      -0.028
  41       6.519     2.523    16.477      -0.242
  42       7.388     0.980    15.894      -0.403
  43       8.024     3.864    20.447      -0.203
  44       4.200    -0.220    15.698      -0.282
  45       4.327     0.821    14.960      -0.234
  46       3.025    -1.590    11.486      -0.402
  47       3.859     0.617    13.979      -0.232
  48       8.897     4.561    20.657      -0.210
  49      -1.355     0.527    11.903       0.158
  50       3.813    -1.503    13.884      -0.383
  51       6.145     3.652    14.850      -0.168
  52       4.819     2.197    17.443      -0.150
  53       5.799     0.943    14.118      -0.344
  54       3.477     0.871    12.701      -0.205
  55       4.494     1.873    12.827      -0.204
  56       5.363     1.085    18.311      -0.234
  57       6.660     2.709    18.193      -0.217
  58      -2.307     1.500    11.521       0.330
  59       6.355     1.634    19.921      -0.237
  60       5.396     0.371    16.060      -0.313
  61       6.691     1.375    15.704      -0.339
  62       5.577    -0.084    14.263      -0.397
  63       4.450     0.951    14.784      -0.237
  64       6.843     1.743    14.879      -0.343
  65       5.947    -0.031    15.836      -0.377
  66       6.576     1.423    17.981      -0.287
  67       7.111     1.249    18.339      -0.320
  68       7.577     2.217    17.935      -0.299
  69       8.056     3.855    17.688      -0.238
  70       7.710     0.163    17.202      -0.439
  71       5.033     2.525    16.648      -0.151
  72       4.447     2.327    17.198      -0.123
  73       5.728     2.272    17.081      -0.202
  74       5.616     0.942    14.947      -0.313
  75       5.790     1.315    19.209      -0.233
  76       6.308     2.483    16.078      -0.238
  77       7.364     1.781    15.734      -0.355
  78       5.124     0.212    16.444      -0.299
  79       6.232     0.698    14.475      -0.382
  80       5.582     1.993    14.969      -0.240
  81       6.949     1.268    19.444      -0.292
  82       3.850     0.262    15.621      -0.230
  83       3.377    -0.786    11.694      -0.356
  84       7.665     0.481    15.252      -0.471
  85       5.794     1.363    15.632      -0.283
  86       3.835     1.687    12.827      -0.167
  87       5.482     1.661    13.898      -0.275
  88       5.979     1.347    14.902      -0.311
 ---------------------------------------------------------------------



--------------------------------------------------------------------------------------------------------


 stress matrix after NEB project (eV)
    -40.96244      1.36019      3.61175
      1.36236    -42.76743     -0.35977
      3.55305     -0.37503    -54.07149
  FORCES: max atom, RMS     2.408078    1.114991
  FORCE total and by dimension   10.459542    2.357638
  Stress total and by dimension   80.376279   54.071495
     LOOP+:  cpu time  611.3452: real time  612.5277
    4ORBIT:  cpu time    0.0000: real time    0.0000
 


 total charge     
 
# of ion       s       p       d       tot
------------------------------------------
    1        0.051   5.995   0.000   6.046
    2        0.053   5.997   0.000   6.050
    3        0.051   5.993   0.000   6.044
    4        0.053   5.996   0.000   6.049
    5        0.049   5.990   0.000   6.039
    6        0.057   5.999   0.000   6.056
    7        0.050   5.993   0.000   6.043
    8        0.053   5.997   0.000   6.049
    9        0.052   5.995   0.000   6.048
   10        0.049   5.991   0.000   6.040
   11        0.053   5.995   0.000   6.049
   12        0.051   5.995   0.000   6.046
   13        0.050   5.992   0.000   6.042
   14        0.052   5.997   0.000   6.049
   15        0.048   5.990   0.000   6.038
   16        0.053   5.995   0.000   6.048
   17        0.151   6.131   0.087   6.369
   18        0.145   6.121   0.078   6.344
   19        0.148   6.125   0.081   6.354
   20        0.150   6.129   0.085   6.364
   21        0.152   6.132   0.087   6.372
   22        0.154   6.136   0.091   6.381
   23        0.154   6.135   0.088   6.377
   24        0.145   6.120   0.077   6.342
   25        0.373   6.451   4.820  11.644
   26        0.385   6.478   4.848  11.711
   27        0.377   6.458   4.833  11.668
   28        0.369   6.435   4.822  11.626
   29        0.370   6.439   4.823  11.632
   30        0.370   6.442   4.816  11.628
   31        0.377   6.456   4.834  11.666
   32        0.378   6.460   4.824  11.662
   33        0.383   6.470   4.859  11.712
   34        0.372   6.447   4.822  11.640
   35        0.365   6.431   4.808  11.604
   36        0.374   6.446   4.840  11.659
   37        0.401   6.510   4.895  11.806
   38        0.383   6.472   4.848  11.703
   39        0.383   6.470   4.853  11.705
   40        0.384   6.474   4.847  11.705
   41        1.601   3.525   0.000   5.125
   42        1.598   3.519   0.000   5.117
   43        1.604   3.513   0.000   5.116
   44        1.600   3.486   0.000   5.085
   45        1.598   3.483   0.000   5.081
   46        1.598   3.487   0.000   5.085
   47        1.599   3.516   0.000   5.115
   48        1.601   3.506   0.000   5.108
   49        1.597   3.508   0.000   5.105
   50        1.600   3.509   0.000   5.108
   51        1.595   3.517   0.000   5.112
   52        1.600   3.484   0.000   5.084
   53        1.597   3.514   0.000   5.111
   54        1.596   3.521   0.000   5.117
   55        1.595   3.523   0.000   5.118
   56        1.601   3.483   0.000   5.084
   57        1.604   3.500   0.000   5.104
   58        1.595   3.480   0.000   5.075
   59        1.602   3.477   0.000   5.079
   60        1.604   3.519   0.000   5.123
   61        1.599   3.517   0.000   5.116
   62        1.598   3.516   0.000   5.114
   63        1.598   3.522   0.000   5.119
   64        1.599   3.521   0.000   5.120
   65        1.602   3.544   0.000   5.146
   66        1.601   3.530   0.000   5.131
   67        1.600   3.503   0.000   5.103
   68        1.599   3.516   0.000   5.115
   69        1.599   3.514   0.000   5.113
   70        1.603   3.525   0.000   5.128
   71        1.599   3.504   0.000   5.102
   72        1.598   3.477   0.000   5.075
   73        1.600   3.512   0.000   5.112
   74        1.603   3.541   0.000   5.144
   75        1.604   3.516   0.000   5.119
   76        1.599   3.508   0.000   5.107
   77        1.597   3.497   0.000   5.094
   78        1.600   3.502   0.000   5.102
   79        1.598   3.515   0.000   5.113
   80        1.599   3.515   0.000   5.114
   81        1.602   3.485   0.000   5.086
   82        1.599   3.471   0.000   5.070
   83        1.597   3.504   0.000   5.101
   84        1.600   3.523   0.000   5.123
   85        1.598   3.521   0.000   5.119
   86        1.595   3.490   0.000   5.085
   87        1.597   3.503   0.000   5.100
   88        1.597   3.508   0.000   5.105
--------------------------------------------------
tot         84.827 416.647  78.067 579.541
 


 magnetization (x)
 
# of ion       s       p       d       tot
------------------------------------------
    1        0.001   0.001   0.000   0.002
    2        0.001   0.000   0.000   0.002
    3        0.002   0.000   0.000   0.002
    4        0.001   0.000   0.000   0.002
    5        0.003   0.000   0.000   0.003
    6        0.002   0.000   0.000   0.002
    7        0.001   0.000   0.000   0.001
    8        0.002   0.000   0.000   0.002
    9        0.001   0.000   0.000   0.001
   10        0.002   0.000   0.000   0.002
   11        0.002   0.000   0.000   0.002
   12        0.001   0.001   0.000   0.002
   13        0.002   0.000   0.000   0.002
   14        0.001   0.001   0.000   0.002
   15        0.001   0.000   0.000   0.001
   16        0.002   0.000   0.000   0.003
   17        0.008   0.003   0.001   0.012
   18        0.007   0.002   0.001   0.010
   19        0.007   0.002   0.001   0.010
   20        0.007   0.003   0.001   0.011
   21        0.008   0.003   0.001   0.012
   22        0.008   0.003   0.001   0.013
   23        0.007   0.003   0.001   0.011
   24        0.007   0.002   0.001   0.009
   25        0.016   0.030   2.766   2.812
   26        0.015   0.031   2.736   2.782
   27        0.014   0.029   2.748   2.792
   28        0.017   0.030   2.770   2.818
   29        0.015   0.029   2.759   2.803
   30        0.016   0.029   2.774   2.819
   31        0.014   0.029   2.748   2.792
   32        0.014   0.029   2.752   2.796
   33        0.015   0.031   2.720   2.766
   34        0.017   0.031   2.757   2.804
   35        0.016   0.029   2.782   2.827
   36        0.015   0.028   2.745   2.788
   37        0.014   0.031   2.701   2.746
   38        0.014   0.029   2.727   2.771
   39        0.017   0.031   2.735   2.783
   40        0.015   0.030   2.736   2.781
   41        0.002   0.048   0.000   0.050
   42        0.002   0.042   0.000   0.044
   43        0.003   0.061   0.000   0.064
   44        0.002   0.023   0.000   0.025
   45        0.002   0.027   0.000   0.029
   46        0.001   0.007   0.000   0.008
   47        0.002   0.024   0.000   0.026
   48        0.003   0.067   0.000   0.070
   49        0.001   0.007   0.000   0.009
   50        0.002   0.026   0.000   0.027
   51        0.002   0.036   0.000   0.038
   52        0.002   0.033   0.000   0.035
   53        0.002   0.030   0.000   0.032
   54        0.002   0.018   0.000   0.020
   55        0.002   0.031   0.000   0.032
   56        0.002   0.041   0.000   0.044
   57        0.002   0.043   0.000   0.045
   58        0.001   0.004   0.000   0.005
   59        0.003   0.039   0.000   0.041
   60        0.002   0.027   0.000   0.029
   61        0.002   0.039   0.000   0.041
   62        0.002   0.031   0.000   0.033
   63        0.002   0.035   0.000   0.036
   64        0.002   0.041   0.000   0.043
   65        0.002   0.041   0.000   0.043
   66        0.002   0.051   0.000   0.053
   67        0.002   0.054   0.000   0.056
   68        0.002   0.041   0.000   0.044
   69        0.002   0.052   0.000   0.055
   70        0.002   0.047   0.000   0.049
   71        0.002   0.025   0.000   0.027
   72        0.002   0.030   0.000   0.032
   73        0.002   0.045   0.000   0.047
   74        0.002   0.031   0.000   0.033
   75        0.002   0.046   0.000   0.049
   76        0.002   0.040   0.000   0.042
   77        0.002   0.043   0.000   0.045
   78        0.002   0.029   0.000   0.031
   79        0.002   0.026   0.000   0.028
   80        0.002   0.032   0.000   0.034
   81        0.002   0.051   0.000   0.054
   82        0.002   0.025   0.000   0.027
   83        0.001   0.013   0.000   0.015
   84        0.002   0.037   0.000   0.039
   85        0.002   0.043   0.000   0.045
   86        0.002   0.018   0.000   0.020
   87        0.002   0.026   0.000   0.028
   88        0.002   0.043   0.000   0.044
--------------------------------------------------
tot          0.423   2.169  43.968  46.561
 

 total amount of memory used by VASP MPI-rank0    88173. kBytes
=======================================================================

   base      :      30000. kBytes
   nonlr-proj:      13664. kBytes
   fftplans  :        992. kBytes
   grid      :      21513. kBytes
   one-center:       2737. kBytes
   wavefun   :      19267. kBytes
 
  
  
 General timing and accounting informations for this job:
 ========================================================
  
                  Total CPU time used (sec):      630.125
                            User time (sec):      624.547
                          System time (sec):        5.577
                         Elapsed time (sec):      634.080
  
                   Maximum memory used (kb):      181592.
                   Average memory used (kb):           0.
  
                          Minor page faults:       302248
                          Major page faults:            0
                 Voluntary context switches:         4274
