 vasp.5.4.4.18Apr17-6-g9f103f2a35 (build Dec 02 2020 12:53:39) complex          
  
 executed on             LinuxIFC date 2021.08.05  14:07:53
 running on  112 total cores
 distrk:  each k-point on  112 cores,    1 groups
 distr:  one band on NCORES_PER_BAND=   1 cores,  112 groups


--------------------------------------------------------------------------------------------------------


 INCAR:
 POTCAR:    PAW_PBE Na_pv 19Sep2006               
 POTCAR:    PAW_PBE Mg_pv 13Apr2007               
 POTCAR:    PAW_PBE Mn_pv 02Aug2007               
 POTCAR:    PAW_PBE O 08Apr2002                   

 ----------------------------------------------------------------------------- 
|                                                                             |
|           W    W    AA    RRRRR   N    N  II  N    N   GGGG   !!!           |
|           W    W   A  A   R    R  NN   N  II  NN   N  G    G  !!!           |
|           W    W  A    A  R    R  N N  N  II  N N  N  G       !!!           |
|           W WW W  AAAAAA  RRRRR   N  N N  II  N  N N  G  GGG   !            |
|           WW  WW  A    A  R   R   N   NN  II  N   NN  G    G                |
|           W    W  A    A  R    R  N    N  II  N    N   GGGG   !!!           |
|                                                                             |
|      For optimal performance we recommend to set                            |
|        NCORE= 4 - approx SQRT( number of cores)                             |
|      NCORE specifies how many cores store one orbital (NPAR=cpu/NCORE).     |
|      This setting can  greatly improve the performance of VASP for DFT.     |
|      The default,   NCORE=1            might be grossly inefficient         |
|      on modern multi-core architectures or massively parallel machines.     |
|      Do your own testing !!!!                                               |
|      Unfortunately you need to use the default for GW and RPA calculations. |
|      (for HF NCORE is supported but not extensively tested yet)             |
|                                                                             |
 ----------------------------------------------------------------------------- 

 POTCAR:    PAW_PBE Na_pv 19Sep2006               
   VRHFIN =Na: p6s1                                                             
   LEXCH  = PE                                                                  
   EATOM  =   766.0439 eV,   56.3026 Ry                                         
                                                                                
   TITEL  = PAW_PBE Na_pv 19Sep2006                                             
   LULTRA =        F    use ultrasoft PP ?                                      
   IUNSCR =        1    unscreen: 0-lin 1-nonlin 2-no                           
   RPACOR =    1.800    partial core radius                                     
   POMASS =   22.990; ZVAL   =    7.000    mass and valenz                      
   RCORE  =    2.200    outmost cutoff radius                                   
   RWIGS  =    2.200; RWIGS  =    1.164    wigner-seitz radius (au A)           
   ENMAX  =  259.561; ENMIN  =  194.671 eV                                      
   ICORE  =        2    local potential                                         
   LCOR   =        T    correct aug charges                                     
   LPAW   =        T    paw PP                                                  
   EAUG   =  368.056                                                            
   DEXC   =    0.000                                                            
   RMAX   =    2.245    core radius for proj-oper                               
   RAUG   =    1.300    factor for augmentation sphere                          
   RDEP   =    2.259    radius for radial grids                                 
   RDEPT  =    1.738    core radius for aug-charge                              
                                                                                
   Atomic configuration                                                         
    5 entries                                                                   
     n  l   j            E        occ.                                          
     1  0  0.50     -1033.6933   2.0000                                         
     2  0  0.50       -56.7526   2.0000                                         
     2  1  1.50       -28.6721   6.0000                                         
     3  0  0.50        -2.7440   1.0000                                         
     3  2  1.50        -1.3606   0.0000                                         
   Description                                                                  
     l       E           TYP  RCUT    TYP  RCUT                                 
     1    -28.6720912     23  2.000                                             
     1      6.8029130     23  2.000                                             
     0     -2.7439560     23  2.200                                             
     0     34.0145650     23  2.200                                             
     2     -1.3605826     23  2.200                                             
  local pseudopotential read in
  partial core-charges read in
  partial kinetic energy density read in
  atomic valenz-charges read in
  non local Contribution for L=           1  read in
    real space projection operators read in
  non local Contribution for L=           1  read in
    real space projection operators read in
  non local Contribution for L=           0  read in
    real space projection operators read in
  non local Contribution for L=           0  read in
    real space projection operators read in
    PAW grid and wavefunctions read in
 
   number of l-projection  operators is LMAX  =           4
   number of lm-projection operators is LMMAX =           8
 
 POTCAR:    PAW_PBE Mg_pv 13Apr2007               
   VRHFIN =Mg: p6s2                                                             
   LEXCH  = PE                                                                  
   EATOM  =  1056.7344 eV,   77.6678 Ry                                         
                                                                                
   TITEL  = PAW_PBE Mg_pv 13Apr2007                                             
   LULTRA =        F    use ultrasoft PP ?                                      
   IUNSCR =        1    unscreen: 0-lin 1-nonlin 2-no                           
   RPACOR =    1.500    partial core radius                                     
   POMASS =   24.305; ZVAL   =    8.000    mass and valenz                      
   RCORE  =    2.000    outmost cutoff radius                                   
   RWIGS  =    2.000; RWIGS  =    1.058    wigner-seitz radius (au A)           
   ENMAX  =  403.929; ENMIN  =  302.947 eV                                      
   RCLOC  =    1.506    cutoff for local pot                                    
   LCOR   =        T    correct aug charges                                     
   LPAW   =        T    paw PP                                                  
   EAUG   =  758.780                                                            
   DEXC   =    0.000                                                            
   RMAX   =    2.045    core radius for proj-oper                               
   RAUG   =    1.300    factor for augmentation sphere                          
   RDEP   =    2.025    radius for radial grids                                 
   RDEPT  =    1.557    core radius for aug-charge                              
                                                                                
   Atomic configuration                                                         
    5 entries                                                                   
     n  l   j            E        occ.                                          
     1  0  0.50     -1259.6230   2.0000                                         
     2  0  0.50       -79.8442   2.0000                                         
     2  1  1.50       -46.6121   6.0000                                         
     3  0  0.50        -4.7055   2.0000                                         
     3  2  1.50        -1.3606   0.0000                                         
   Description                                                                  
     l       E           TYP  RCUT    TYP  RCUT                                 
     1    -46.6121073     23  1.600                                             
     1      2.7211652     23  1.600                                             
     0     -4.7054661     23  2.000                                             
     0     61.2262170     23  2.000                                             
     2     -1.3605826     23  2.000                                             
  local pseudopotential read in
  partial core-charges read in
  partial kinetic energy density read in
  atomic valenz-charges read in
  non local Contribution for L=           1  read in
    real space projection operators read in
  non local Contribution for L=           1  read in
    real space projection operators read in
  non local Contribution for L=           0  read in
    real space projection operators read in
  non local Contribution for L=           0  read in
    real space projection operators read in
  non local Contribution for L=           2  read in
    real space projection operators read in
    PAW grid and wavefunctions read in
 
   number of l-projection  operators is LMAX  =           5
   number of lm-projection operators is LMMAX =          13
 
 POTCAR:    PAW_PBE Mn_pv 02Aug2007               
   VRHFIN =Mn: 3p4s3d                                                           
   LEXCH  = PE                                                                  
   EATOM  =  2025.2664 eV,  148.8529 Ry                                         
                                                                                
   TITEL  = PAW_PBE Mn_pv 02Aug2007                                             
   LULTRA =        F    use ultrasoft PP ?                                      
   IUNSCR =        1    unscreen: 0-lin 1-nonlin 2-no                           
   RPACOR =    2.080    partial core radius                                     
   POMASS =   54.938; ZVAL   =   13.000    mass and valenz                      
   RCORE  =    2.300    outmost cutoff radius                                   
   RWIGS  =    2.500; RWIGS  =    1.323    wigner-seitz radius (au A)           
   ENMAX  =  269.864; ENMIN  =  202.398 eV                                      
   ICORE  =        3    local potential                                         
   LCOR   =        T    correct aug charges                                     
   LPAW   =        T    paw PP                                                  
   EAUG   =  569.085                                                            
   DEXC   =    0.000                                                            
   RMAX   =    2.343    core radius for proj-oper                               
   RAUG   =    1.300    factor for augmentation sphere                          
   RDEP   =    2.338    radius for radial grids                                 
   RDEPT  =    1.798    core radius for aug-charge                              
                                                                                
   Atomic configuration                                                         
    8 entries                                                                   
     n  l   j            E        occ.                                          
     1  0  0.50     -6424.8287   2.0000                                         
     2  0  0.50      -739.1154   2.0000                                         
     2  1  1.50      -625.3949   6.0000                                         
     3  0  0.50       -81.6100   2.0000                                         
     3  1  1.50       -50.4667   6.0000                                         
     3  2  2.50        -3.3745   6.0000                                         
     4  0  0.50        -4.1331   1.0000                                         
     4  3  2.50        -1.3606   0.0000                                         
   Description                                                                  
     l       E           TYP  RCUT    TYP  RCUT                                 
     1    -50.4666628     23  2.000                                             
     1     -1.3605826     23  2.000                                             
     2     -3.3744729     23  2.300                                             
     2     -4.7350555     23  2.300                                             
     0     -4.1331431     23  2.300                                             
     0      7.6656591     23  2.300                                             
     3      9.5240782     23  2.300                                             
  local pseudopotential read in
  partial core-charges read in
  partial kinetic energy density read in
  atomic valenz-charges read in
  non local Contribution for L=           1  read in
    real space projection operators read in
  non local Contribution for L=           1  read in
    real space projection operators read in
  non local Contribution for L=           2  read in
    real space projection operators read in
  non local Contribution for L=           2  read in
    real space projection operators read in
  non local Contribution for L=           0  read in
    real space projection operators read in
  non local Contribution for L=           0  read in
    real space projection operators read in
    PAW grid and wavefunctions read in
 
   number of l-projection  operators is LMAX  =           6
   number of lm-projection operators is LMMAX =          18
 
 POTCAR:    PAW_PBE O 08Apr2002                   
   VRHFIN =O: s2p4                                                              
   LEXCH  = PE                                                                  
   EATOM  =   432.3788 eV,   31.7789 Ry                                         
                                                                                
   TITEL  = PAW_PBE O 08Apr2002                                                 
   LULTRA =        F    use ultrasoft PP ?                                      
   IUNSCR =        1    unscreen: 0-lin 1-nonlin 2-no                           
   RPACOR =    1.200    partial core radius                                     
   POMASS =   16.000; ZVAL   =    6.000    mass and valenz                      
   RCORE  =    1.520    outmost cutoff radius                                   
   RWIGS  =    1.550; RWIGS  =    0.820    wigner-seitz radius (au A)           
   ENMAX  =  400.000; ENMIN  =  300.000 eV                                      
   ICORE  =        2    local potential                                         
   LCOR   =        T    correct aug charges                                     
   LPAW   =        T    paw PP                                                  
   EAUG   =  605.392                                                            
   DEXC   =    0.000                                                            
   RMAX   =    1.553    core radius for proj-oper                               
   RAUG   =    1.300    factor for augmentation sphere                          
   RDEP   =    1.550    radius for radial grids                                 
   RDEPT  =    1.329    core radius for aug-charge                              
                                                                                
   Atomic configuration                                                         
    4 entries                                                                   
     n  l   j            E        occ.                                          
     1  0  0.50      -514.6923   2.0000                                         
     2  0  0.50       -23.9615   2.0000                                         
     2  1  0.50        -9.0305   4.0000                                         
     3  2  1.50        -9.5241   0.0000                                         
   Description                                                                  
     l       E           TYP  RCUT    TYP  RCUT                                 
     0    -23.9615318     23  1.200                                             
     0     -9.5240782     23  1.200                                             
     1     -9.0304911     23  1.520                                             
     1      8.1634956     23  1.520                                             
     2     -9.5240782      7  1.500                                             
  local pseudopotential read in
  partial core-charges read in
  partial kinetic energy density read in
  kinetic energy density of atom read in
  atomic valenz-charges read in
  non local Contribution for L=           0  read in
    real space projection operators read in
  non local Contribution for L=           0  read in
    real space projection operators read in
  non local Contribution for L=           1  read in
    real space projection operators read in
  non local Contribution for L=           1  read in
    real space projection operators read in
    PAW grid and wavefunctions read in
 
   number of l-projection  operators is LMAX  =           4
   number of lm-projection operators is LMMAX =           8
 
 Optimization of the real space projectors (new method)

 maximal supplied QI-value         = 17.01
 optimisation between [QCUT,QGAM] = [ 10.20, 20.41] = [ 29.16,116.64] Ry 
 Optimized for a Real-space Cutoff    1.30 Angstroem

   l    n(q)    QCUT    max X(q) W(low)/X(q) W(high)/X(q)  e(spline) 
   1      7    10.205     4.940    0.23E-03    0.84E-03    0.11E-06
   1      7    10.205     6.253    0.40E-03    0.13E-02    0.18E-06
   0      8    10.205    37.438    0.23E-03    0.37E-03    0.42E-07
   0      8    10.205     9.606    0.16E-03    0.26E-03    0.31E-07
 Optimization of the real space projectors (new method)

 maximal supplied QI-value         = 18.90
 optimisation between [QCUT,QGAM] = [ 10.20, 20.41] = [ 29.16,116.64] Ry 
 Optimized for a Real-space Cutoff    1.26 Angstroem

   l    n(q)    QCUT    max X(q) W(low)/X(q) W(high)/X(q)  e(spline) 
   1      7    10.205     2.974    0.63E-04    0.14E-03    0.13E-06
   1      7    10.205     4.279    0.11E-03    0.45E-03    0.24E-06
   0      8    10.205    16.381    0.44E-03    0.15E-03    0.55E-07
   0      8    10.205     5.611    0.31E-03    0.11E-03    0.40E-07
   2      7    10.205     4.652    0.50E-03    0.47E-03    0.57E-07
 Optimization of the real space projectors (new method)

 maximal supplied QI-value         = 16.25
 optimisation between [QCUT,QGAM] = [ 10.24, 20.48] = [ 29.35,117.42] Ry 
 Optimized for a Real-space Cutoff    1.34 Angstroem

   l    n(q)    QCUT    max X(q) W(low)/X(q) W(high)/X(q)  e(spline) 
   1      8    10.239     3.658    0.23E-03    0.30E-03    0.98E-07
   1      8    10.239     5.612    0.32E-03    0.65E-03    0.21E-06
   2      7    10.239    55.373    0.42E-03    0.45E-03    0.65E-07
   2      7    10.239    50.863    0.43E-03    0.48E-03    0.67E-07
   0      8    10.239    79.536    0.11E-03    0.21E-03    0.56E-07
   0      8    10.239    38.668    0.96E-04    0.19E-03    0.52E-07
 Optimization of the real space projectors (new method)

 maximal supplied QI-value         = 24.76
 optimisation between [QCUT,QGAM] = [ 10.15, 20.30] = [ 28.85,115.39] Ry 
 Optimized for a Real-space Cutoff    1.38 Angstroem

   l    n(q)    QCUT    max X(q) W(low)/X(q) W(high)/X(q)  e(spline) 
   0      8    10.150    20.381    0.22E-03    0.32E-03    0.29E-06
   0      8    10.150    15.268    0.23E-03    0.35E-03    0.30E-06
   1      8    10.150     5.964    0.46E-03    0.53E-03    0.21E-06
   1      8    10.150     5.382    0.38E-03    0.45E-03    0.19E-06
  PAW_PBE Na_pv 19Sep2006               :
 energy of atom  1       EATOM= -766.0439
 kinetic energy error for atom=    0.0103 (will be added to EATOM!!)
  PAW_PBE Mg_pv 13Apr2007               :
 energy of atom  2       EATOM=-1056.7344
 kinetic energy error for atom=    0.0820 (will be added to EATOM!!)
  PAW_PBE Mn_pv 02Aug2007               :
 energy of atom  3       EATOM=-2025.2664
 kinetic energy error for atom=    0.0284 (will be added to EATOM!!)
  PAW_PBE O 08Apr2002                   :
 energy of atom  4       EATOM= -432.3788
 kinetic energy error for atom=    0.1156 (will be added to EATOM!!)
 
 
 POSCAR: Na Mg Mn  O                             
  positions in cartesian coordinates
  No initial velocities read in

 METAGGA = SCAN     LMAXTAU =  6    LMIXTAU =  F

 exchange correlation table for  LEXCH =        8
   RHO(1)=    0.500       N(1)  =     2000
   RHO(2)=  100.500       N(2)  =     4000

 VTST: version 3.2, (02/03/18)

 CHAIN: initializing optimizer
 
 OPT: Using VASP Dynamics algorithm
 CHAIN: Read ICHAIN            0
 
 POSCAR: Na Mg Mn  O                             
  positions in cartesian coordinates
  No initial velocities read in
 


--------------------------------------------------------------------------------------------------------


 ion  position               nearest neighbor table
   1  0.966  0.175  0.247-  76 2.32  25 2.90  27 2.96
   2  0.933  0.661  0.745-  57 2.28  80 2.34  39 2.82  37 2.98
   3  0.793  0.238  0.760-  61 2.18  59 2.30  58 2.32  30 2.93
   4  0.274  0.706  0.752-  83 2.21  85 2.27
   5  0.141  0.563  0.246-  87 2.22  78 2.26  55 2.37  32 2.98
   6  0.954  0.875  0.256-  67 2.32  86 2.33
   7  0.152  0.354  0.753-  48 2.19  47 2.30  45 2.34
   8  0.625  0.860  0.744-  72 2.35  82 2.36  85 2.37  69 2.37
   9  0.480  0.704  0.248-  65 2.32  78 2.34  74 2.35  35 2.82  33 2.93
  10  0.415  0.350  0.256-  52 2.32  43 2.35  42 2.38
  11  0.637  0.137  0.251-  63 2.27  88 2.33  79 2.37  40 2.96
  12  0.434  0.121  0.753-  81 2.20  84 2.30  29 2.90  31 2.98
  13  0.533  0.497  0.735-  46 2.16  68 2.29  71 2.34  28 2.80
  14  0.980  0.989  0.757-  70 2.26  47 2.34  73 2.38
  15  0.305  0.994  0.259-  88 2.17  79 2.24
  16  0.819  0.529  0.250-  64 2.22  66 2.29  55 2.34  75 2.37
  17  0.621  0.489  0.001-  43 1.98  49 2.01  60 2.05  53 2.08  71 2.08  66 2.10  26 2.77  30 2.80
                            29 2.85
  18  0.275  0.344  0.496-  46 1.99  50 2.06  51 2.06  44 2.10  52 2.14  45 2.14  36 2.74  27 2.84

  19  0.125  0.490  0.997-  61 1.92  41 2.00  55 2.06  78 2.12  48 2.14  83 2.20  26 2.82  25 2.84

  20  0.786  0.353  0.496-  63 1.97  56 2.02  62 2.03  57 2.05  58 2.11  64 2.13  27 2.81  40 2.82

  21  0.140  0.011  0.002-  84 1.97  42 1.97  73 2.07  47 2.10  67 2.13  77 2.15  29 2.77
  22  0.776  0.858  0.496-  74 1.89  68 1.99  76 2.03  70 2.14  75 2.16  69 2.22  40 2.79  35 2.84

  23  0.624  0.001  0.995-  59 1.97  54 2.02  65 2.05  85 2.09  72 2.13  79 2.13  29 2.83
  24  0.287  0.857  0.499-  88 2.01  81 2.04  82 2.05  80 2.08  87 2.10  86 2.12  31 2.81  32 2.84

  25  0.961  0.163  0.989-  67 1.89  54 1.92  61 1.93  72 1.93  47 1.97  41 1.99  19 2.84   1 2.90
                            34 2.92  26 2.97  30 2.99
  26  0.303  0.343  0.991-  43 1.82  48 1.88  41 1.91  49 1.93  47 1.99  42 2.07  17 2.77  33 2.78
                            19 2.82  29 2.94  25 2.97
  27  0.948  0.192  0.509-  69 1.85  44 1.86  63 1.89  76 1.90  50 1.95  58 1.96  40 2.80  20 2.81
                            18 2.84  32 2.92  36 2.94   1 2.96
  28  0.621  0.524  0.495-  46 1.88  75 1.88  57 1.89  52 1.90  68 1.94  62 2.06  13 2.80  39 2.84
                            35 2.87  31 2.98
  29  0.459  0.161  0.010-  42 1.80  59 1.90  84 1.94  79 1.95  49 1.96  53 1.96  21 2.77  23 2.83
                            17 2.85  12 2.90  38 2.91  30 2.92  26 2.94
  30  0.795  0.340  0.004-  60 1.85  55 1.91  59 1.95  61 1.95  53 1.96  54 1.99  17 2.80  29 2.92
                            37 2.93   3 2.93  25 2.99
  31  0.453  0.181  0.492-  62 1.87  88 1.87  81 1.87  51 1.89  56 1.92  46 1.99  24 2.81  40 2.82
                            36 2.86  12 2.98  28 2.98
  32  0.122  0.529  0.510-  45 1.89  80 1.89  87 1.93  58 1.94  50 1.99  64 2.04  24 2.84  35 2.85
                            27 2.92  39 2.96   5 2.98
  33  0.467  0.664  0.989-  85 1.91  65 1.91  43 1.92  71 1.93  48 1.93  78 1.98  26 2.78  34 2.83
                             9 2.93  38 2.95
  34  0.792  0.826  0.999-  73 1.85  65 1.86  67 1.94  66 1.95  71 1.97  72 1.99  33 2.83  37 2.85
                            25 2.92
  35  0.449  0.684  0.499-  87 1.91  82 1.92  52 1.93  45 1.97  68 1.97  74 1.99   9 2.82  22 2.84
                            32 2.85  28 2.87  40 2.99
  36  0.124  0.030  0.509-  51 1.83  44 1.88  86 1.89  81 1.90  70 1.98  76 2.00  18 2.74  31 2.86
                            39 2.91  27 2.94
  37  0.972  0.678  0.009-  77 1.82  73 1.88  83 1.90  55 1.90  66 1.94  60 1.98  38 2.76  34 2.85
                            30 2.93   2 2.98
  38  0.290  0.826  0.009-  84 1.86  83 1.90  77 1.92  78 1.93  79 1.96  85 2.04  37 2.76  29 2.91
                            33 2.95
  39  0.947  0.695  0.495-  70 1.86  64 1.90  80 1.91  86 1.91  75 1.94  57 1.96   2 2.82  28 2.84
                            36 2.91  32 2.96
  40  0.625  0.028  0.498-  63 1.86  74 1.89  88 1.94  82 1.97  56 1.97  69 2.01  22 2.79  27 2.80
                            31 2.82  20 2.82  11 2.96  35 2.99
  41  0.134  0.321  0.085-  26 1.91  25 1.99  19 2.00
  42  0.312  0.176  0.093-  29 1.80  21 1.97  26 2.07  10 2.38
  43  0.450  0.496  0.082-  26 1.82  33 1.92  17 1.98  10 2.35
  44  0.094  0.172  0.597-  27 1.86  36 1.88  18 2.10
  45  0.282  0.528  0.598-  32 1.89  35 1.97  18 2.14   7 2.34
  46  0.458  0.358  0.576-  28 1.88  18 1.99  31 1.99  13 2.16
  47  0.135  0.179  0.895-  25 1.97  26 1.99  21 2.10   7 2.30  14 2.34
  48  0.309  0.500  0.894-  26 1.88  33 1.93  19 2.14   7 2.19
  49  0.455  0.316  0.905-  26 1.93  29 1.96  17 2.01
  50  0.101  0.357  0.409-  27 1.95  32 1.99  18 2.06
  51  0.280  0.164  0.411-  36 1.83  31 1.89  18 2.06
  52  0.464  0.531  0.404-  28 1.90  35 1.93  18 2.14  10 2.32
  53  0.626  0.320  0.106-  30 1.96  29 1.96  17 2.08
  54  0.805  0.169  0.085-  25 1.92  30 1.99  23 2.02
  55  0.957  0.505  0.092-  37 1.90  30 1.91  19 2.06  16 2.34   5 2.37
  56  0.611  0.187  0.592-  31 1.92  40 1.97  20 2.02
  57  0.781  0.529  0.587-  28 1.89  39 1.96  20 2.05   2 2.28
  58  0.963  0.363  0.604-  32 1.94  27 1.96  20 2.11   3 2.32
  59  0.624  0.176  0.916-  29 1.90  30 1.95  23 1.97   3 2.30
  60  0.809  0.504  0.917-  30 1.85  37 1.98  17 2.05
  61  0.953  0.330  0.910-  19 1.92  25 1.93  30 1.95   3 2.18
  62  0.607  0.341  0.402-  31 1.87  20 2.03  28 2.06
  63  0.789  0.182  0.413-  40 1.86  27 1.89  20 1.97  11 2.27
  64  0.965  0.544  0.404-  39 1.90  32 2.04  20 2.13  16 2.22
  65  0.629  0.822  0.081-  34 1.86  33 1.91  23 2.05   9 2.32
  66  0.801  0.670  0.097-  37 1.94  34 1.95  17 2.10  16 2.29
  67  0.946  0.003  0.087-  25 1.89  34 1.94  21 2.13   6 2.32
  68  0.617  0.683  0.591-  28 1.94  35 1.97  22 1.99  13 2.29
  69  0.794  0.049  0.607-  27 1.85  40 2.01  22 2.22   8 2.37
  70  0.955  0.849  0.592-  39 1.86  36 1.98  22 2.14  14 2.26
  71  0.631  0.666  0.898-  33 1.93  34 1.97  17 2.08  13 2.34
  72  0.803  0.994  0.897-  25 1.93  34 1.99  23 2.13   8 2.35
  73  0.955  0.827  0.920-  34 1.85  37 1.88  21 2.07  14 2.38
  74  0.615  0.862  0.411-  40 1.89  22 1.89  35 1.99   9 2.35
  75  0.777  0.673  0.398-  28 1.88  39 1.94  22 2.16  16 2.37
  76  0.959  0.039  0.416-  27 1.90  36 2.00  22 2.03   1 2.32
  77  0.127  0.821  0.102-  37 1.82  38 1.92  21 2.15
  78  0.309  0.668  0.093-  38 1.93  33 1.98  19 2.12   5 2.26   9 2.34
  79  0.447  0.993  0.105-  29 1.95  38 1.96  23 2.13  15 2.24  11 2.37
  80  0.100  0.684  0.590-  32 1.89  39 1.91  24 2.08   2 2.34
  81  0.294  0.037  0.590-  31 1.87  36 1.90  24 2.04  12 2.20
  82  0.464  0.854  0.589-  35 1.92  40 1.97  24 2.05   8 2.36
  83  0.128  0.687  0.907-  38 1.90  37 1.90  19 2.20   4 2.21
  84  0.301  0.989  0.921-  38 1.86  29 1.94  21 1.97  12 2.30
  85  0.449  0.818  0.900-  33 1.91  38 2.04  23 2.09   4 2.27   8 2.37
  86  0.106  0.868  0.411-  36 1.89  39 1.91  24 2.12   6 2.33
  87  0.284  0.673  0.406-  35 1.91  32 1.93  24 2.10   5 2.22
  88  0.460  0.025  0.405-  31 1.87  40 1.94  24 2.01  15 2.17  11 2.33
 
  LATTYP: Found a hexagonal cell.
 ALAT       =    10.0190000534
 C/A-ratio  =     1.1196726572
  
  Lattice vectors:
  
 A1 = (  10.0190000534,   0.0000000000,   0.0000000000)
 A2 = (  -5.0095000267,   8.6767085668,   0.0000000000)
 A3 = (   0.0000000000,   0.0000000000,  11.2180004120)


Analysis of symmetry for initial positions (statically):
=====================================================================
 Subroutine PRICEL returns:
 Original cell was already a primitive cell.
 

 Routine SETGRP: Setting up the symmetry group for a 
 hexagonal supercell.


 Subroutine GETGRP returns: Found  1 space group operations
 (whereof  1 operations were pure point group operations)
 out of a pool of 24 trial point group operations.


The static configuration has the point symmetry C_1 .


Analysis of symmetry for dynamics (positions and initial velocities):
=====================================================================
 Subroutine PRICEL returns:
 Original cell was already a primitive cell.
 

 Routine SETGRP: Setting up the symmetry group for a 
 hexagonal supercell.


 Subroutine GETGRP returns: Found  1 space group operations
 (whereof  1 operations were pure point group operations)
 out of a pool of 24 trial point group operations.


The dynamic configuration has the point symmetry C_1 .


Analysis of structural, dynamic, and magnetic symmetry:
=====================================================================
 Subroutine PRICEL returns:
 Original cell was already a primitive cell.
 

 Routine SETGRP: Setting up the symmetry group for a 
 hexagonal supercell.


 Subroutine GETGRP returns: Found  1 space group operations
 (whereof  1 operations were pure point group operations)
 out of a pool of 24 trial point group operations.


The magnetic configuration has the point symmetry C_1 .


 Subroutine INISYM returns: Found  1 space group operations
 (whereof  1 operations are pure point group operations),
 and found     1 'primitive' translations

 
 

Automatic generation of k-mesh.
 generate k-points for:    2    2    2
Space group operators:
 irot       det(A)        alpha          n_x          n_y          n_z        tau_x        tau_y        tau_z
    1     1.000000     0.000000     1.000000     0.000000     0.000000     0.000000     0.000000     0.000000
 
 Subroutine IBZKPT returns following result:
 ===========================================
 
 Found      8 irreducible k-points:
 
 Following reciprocal coordinates:
            Coordinates               Weight
  0.000000  0.000000  0.000000      1.000000
  0.500000 -0.000000 -0.000000      1.000000
  0.000000  0.500000  0.000000      1.000000
  0.500000  0.500000 -0.000000      1.000000
  0.000000  0.000000  0.500000      1.000000
  0.500000 -0.000000  0.500000      1.000000
  0.000000  0.500000  0.500000      1.000000
  0.500000  0.500000  0.500000      1.000000
 
 Following cartesian coordinates:
            Coordinates               Weight
  0.000000  0.000000  0.000000      1.000000
  0.049905  0.028813 -0.000000      1.000000
  0.000000  0.057626  0.000000      1.000000
  0.049905  0.086438 -0.000000      1.000000
  0.000000  0.000000  0.044571      1.000000
  0.049905  0.028813  0.044571      1.000000
  0.000000  0.057626  0.044571      1.000000
  0.049905  0.086438  0.044571      1.000000
 


--------------------------------------------------------------------------------------------------------




 Dimension of arrays:
   k-points           NKPTS =      8   k-points in BZ     NKDIM =      8   number of bands    NBANDS=    448
   number of dos      NEDOS =    301   number of ions     NIONS =     88
   non local maximal  LDIM  =      6   non local SUM 2l+1 LMDIM =     18
   total plane-waves  NPLWV = 140000
   max r-space proj   IRMAX =   1632   max aug-charges    IRDMAX=   4555
   dimension x,y,z NGX =    50 NGY =   50 NGZ =   56
   dimension x,y,z NGXF=   100 NGYF=  100 NGZF=  112
   support grid    NGXF=   100 NGYF=  100 NGZF=  112
   ions per type =              16   8  16  48
   NGX,Y,Z   is equivalent  to a cutoff of   8.30,  8.30,  8.30 a.u.
   NGXF,Y,Z  is equivalent  to a cutoff of  16.59, 16.59, 16.60 a.u.

 SYSTEM =  unknown system                          
 POSCAR =  Na Mg Mn  O                             

 Startparameter for this run:
   NWRITE =      2    write-flag & timer
   PREC   = normal    normal or accurate (medium, high low for compatibility)
   ISTART =      0    job   : 0-new  1-cont  2-samecut
   ICHARG =      1    charge: 1-file 2-atom 10-const
   ISPIN  =      2    spin polarized calculation?
   LNONCOLLINEAR =      F non collinear calculations
   LSORBIT =      F    spin-orbit coupling
   INIWAV =      1    electr: 0-lowe 1-rand  2-diag
   LASPH  =      T    aspherical Exc in radial PAW
   METAGGA=      F    non-selfconsistent MetaGGA calc.

 Electronic Relaxation 1
   ENCUT  =  400.0 eV  29.40 Ry    5.42 a.u.  16.34 16.34 18.29*2*pi/ulx,y,z
   ENINI  =  400.0     initial cutoff
   ENAUG  =  758.8 eV  augmentation charge cutoff
   NELM   =    200;   NELMIN=  6; NELMDL=-12     # of ELM steps 
   EDIFF  = 0.1E-04   stopping-criterion for ELM
   LREAL  =      T    real-space projection
   NLSPLINE    = F    spline interpolate recip. space projectors
   LCOMPAT=      F    compatible to vasp.4.4
   GGA_COMPAT  = T    GGA compatible to vasp.4.4-vasp.4.6
   LMAXPAW     = -100 max onsite density
   LMAXMIX     =    4 max onsite mixed and CHGCAR
   VOSKOWN=      0    Vosko Wilk Nusair interpolation
   ROPT   =   -0.00050  -0.00050  -0.00050  -0.00050
 Ionic relaxation
   EDIFFG = 0.1E-03   stopping-criterion for IOM
   NSW    =      1    number of steps for IOM
   NBLOCK =      1;   KBLOCK =      1    inner block; outer block 
   IBRION =     -1    ionic relax: 0-MD 1-quasi-New 2-CG
   NFREE  =      0    steps in history (QN), initial steepest desc. (CG)
   ISIF   =      2    stress and relaxation
   IWAVPR =     10    prediction:  0-non 1-charg 2-wave 3-comb
   ISYM   =      2    0-nonsym 1-usesym 2-fastsym
   LCORR  =      T    Harris-Foulkes like correction to forces

   POTIM  = 0.5000    time-step for ionic-motion
   TEIN   =    0.0    initial temperature
   TEBEG  =    0.0;   TEEND  =   0.0 temperature during run
   SMASS  =  -3.00    Nose mass-parameter (am)
   estimated Nose-frequenzy (Omega)   =  0.10E-29 period in steps =****** mass=  -0.229E-26a.u.
   SCALEE = 1.0000    scale energy and forces
   NPACO  =    256;   APACO  = 16.0  distance and # of slots for P.C.
   PSTRESS=    0.0 pullay stress

  Mass of Ions in am
   POMASS =  22.99 24.30 54.94 16.00
  Ionic Valenz
   ZVAL   =   7.00  8.00 13.00  6.00
  Atomic Wigner-Seitz radii
   RWIGS  =  -1.00 -1.00 -1.00 -1.00
  virtual crystal weights 
   VCA    =   1.00  1.00  1.00  1.00
   NELECT =     672.0000    total number of electrons
   NUPDOWN=      48.0000    fix difference up-down

 DOS related values:
   EMIN   =  10.00;   EMAX   =-10.00  energy-range for DOS
   EFERMI =   0.00
   ISMEAR =     0;   SIGMA  =   0.05  broadening in eV -4-tet -1-fermi 0-gaus

 Electronic relaxation 2 (details)
   IALGO  =     48    algorithm
   LDIAG  =      T    sub-space diagonalisation (order eigenvalues)
   LSUBROT=      F    optimize rotation matrix (better conditioning)
   TURBO    =      0    0=normal 1=particle mesh
   IRESTART =      0    0=no restart 2=restart with 2 vectors
   NREBOOT  =      0    no. of reboots
   NMIN     =      0    reboot dimension
   EREF     =   0.00    reference energy to select bands
   IMIX   =      4    mixing-type and parameters
     AMIX     =   0.40;   BMIX     =  1.00
     AMIX_MAG =   1.60;   BMIX_MAG =  1.00
     AMIN     =   0.10
     WC   =   100.;   INIMIX=   1;  MIXPRE=   1;  MAXMIX= -45

 Intra band minimization:
   WEIMIN = 0.0000     energy-eigenvalue tresh-hold
   EBREAK =  0.56E-08  absolut break condition
   DEPER  =   0.30     relativ break condition  

   TIME   =   0.40     timestep for ELM

  volume/ion in A,a.u.               =      11.08        74.78
  Fermi-wavevector in a.u.,A,eV,Ry     =   1.445993  2.732531 28.448379  2.090897
  Thomas-Fermi vector in A             =   2.564112
 
 Write flags
   LWAVE        =      F    write WAVECAR
   LDOWNSAMPLE  =      F    k-point downsampling of WAVECAR
   LCHARG       =      F    write CHGCAR
   LVTOT        =      F    write LOCPOT, total local potential
   LVHAR        =      F    write LOCPOT, Hartree potential only
   LELF         =      F    write electronic localiz. function (ELF)
   LORBIT       =     11    0 simple, 1 ext, 2 COOP (PROOUT), +10 PAW based schemes


 Dipole corrections
   LMONO  =      F    monopole corrections only (constant potential shift)
   LDIPOL =      F    correct potential (dipole corrections)
   IDIPOL =      0    1-x, 2-y, 3-z, 4-all directions 
   EPSILON=  1.0000000 bulk dielectric constant

 Exchange correlation treatment:
   GGA     =    --    GGA type
   LEXCH   =     8    internal setting for exchange type
   VOSKOWN=      0    Vosko Wilk Nusair interpolation
   LHFCALC =     F    Hartree Fock is set to
   LHFONE  =     F    Hartree Fock one center treatment
   AEXX    =    0.0000 exact exchange contribution

 Linear response parameters
   LEPSILON=     F    determine dielectric tensor
   LRPA    =     F    only Hartree local field effects (RPA)
   LNABLA  =     F    use nabla operator in PAW spheres
   LVEL    =     F    velocity operator in full k-point grid
   LINTERFAST=   F  fast interpolation
   KINTER  =     0    interpolate to denser k-point grid
   CSHIFT  =0.1000    complex shift for real part using Kramers Kronig
   OMEGAMAX=  -1.0    maximum frequency
   DEG_THRESHOLD= 0.2000000E-02 threshold for treating states as degnerate
   RTIME   =   -0.100 relaxation time in fs
  (WPLASMAI=    0.000 imaginary part of plasma frequency in eV, 0.658/RTIME)
   DFIELD  = 0.0000000 0.0000000 0.0000000 field for delta impulse in time
 
 Orbital magnetization related:
   ORBITALMAG=     F  switch on orbital magnetization
   LCHIMAG   =     F  perturbation theory with respect to B field
   DQ        =  0.001000  dq finite difference perturbation B field
   LLRAUG    =     F  two centre corrections for induced B field



--------------------------------------------------------------------------------------------------------


 Static calculation
 charge density and potential will be updated during run
 spin polarized calculation
 RMM-DIIS sequential band-by-band
 perform sub-space diagonalisation
    before iterative eigenvector-optimisation
 modified Broyden-mixing scheme, WC =      100.0
 initial mixing is a Kerker type mixing with AMIX =  0.4000 and BMIX =      1.0000
 Hartree-type preconditioning will be used
 using additional bands          112
 real space projection scheme for non local part
 use partial core corrections
 calculate Harris-corrections to forces 
   (improved forces if not selfconsistent)
 use gradient corrections 
 use of overlap-Matrix (Vanderbilt PP)
 Gauss-broadening in eV      SIGMA  =   0.05


--------------------------------------------------------------------------------------------------------


  energy-cutoff  :      400.00
  volume of cell :      975.20
      direct lattice vectors                 reciprocal lattice vectors
    10.019000053  0.000000000  0.000000000     0.099810360  0.057625538 -0.000000000
    -5.009500027  8.676708567  0.000000000     0.000000000  0.115251076  0.000000000
     0.000000000  0.000000000 11.218000412     0.000000000  0.000000000  0.089142446

  length of vectors
    10.019000053 10.019000053 11.218000412     0.115251076  0.115251076  0.089142446


 
 k-points in units of 2pi/SCALE and weight: read from INCAR                         
   0.00000000  0.00000000  0.00000000       0.125
   0.04990518  0.02881277 -0.00000000       0.125
   0.00000000  0.05762554  0.00000000       0.125
   0.04990518  0.08643831 -0.00000000       0.125
   0.00000000  0.00000000  0.04457122       0.125
   0.04990518  0.02881277  0.04457122       0.125
   0.00000000  0.05762554  0.04457122       0.125
   0.04990518  0.08643831  0.04457122       0.125
 
 k-points in reciprocal lattice and weights: read from INCAR                         
   0.00000000  0.00000000  0.00000000       0.125
   0.50000000 -0.00000000 -0.00000000       0.125
   0.00000000  0.50000000  0.00000000       0.125
   0.50000000  0.50000000 -0.00000000       0.125
   0.00000000  0.00000000  0.50000000       0.125
   0.50000000 -0.00000000  0.50000000       0.125
   0.00000000  0.50000000  0.50000000       0.125
   0.50000000  0.50000000  0.50000000       0.125
 
 position of ions in fractional coordinates (direct lattice) 
   0.96638597  0.17537097  0.24657246
   0.93346600  0.66054409  0.74513993
   0.79333527  0.23752390  0.75984397
   0.27359579  0.70573041  0.75248081
   0.14066879  0.56284872  0.24573274
   0.95392564  0.87461045  0.25630860
   0.15228322  0.35445172  0.75320732
   0.62482716  0.86043391  0.74412192
   0.47994406  0.70383470  0.24833124
   0.41501697  0.35026547  0.25570332
   0.63699084  0.13738126  0.25056605
   0.43362130  0.12058325  0.75330003
   0.53286820  0.49681743  0.73528255
   0.98032265  0.98933071  0.75693971
   0.30502994  0.99387062  0.25884470
   0.81861711  0.52854473  0.25012212
   0.62113746  0.48915784  0.00139304
   0.27524035  0.34449008  0.49576393
   0.12460598  0.48976291  0.99651449
   0.78589656  0.35342204  0.49631394
   0.13970802  0.01077845  0.00215959
   0.77599062  0.85782413  0.49552592
   0.62443035  0.00091180  0.99478075
   0.28702581  0.85668660  0.49881260
   0.96094811  0.16275658  0.98858959
   0.30285698  0.34342631  0.99110333
   0.94822344  0.19235866  0.50911836
   0.62072395  0.52407891  0.49531555
   0.45868263  0.16126984  0.00979533
   0.79470688  0.34039290  0.00428772
   0.45296892  0.18060996  0.49189872
   0.12164249  0.52919376  0.51045906
   0.46664276  0.66419080  0.98858495
   0.79235785  0.82613700  0.99891933
   0.44932262  0.68378348  0.49857459
   0.12443094  0.02969230  0.50914867
   0.97195998  0.67751613  0.00903949
   0.28982373  0.82589958  0.00869663
   0.94741244  0.69496860  0.49476643
   0.62533293  0.02807878  0.49791583
   0.13371320  0.32110102  0.08520502
   0.31227423  0.17571525  0.09288197
   0.44957665  0.49632069  0.08237627
   0.09443751  0.17196514  0.59674984
   0.28220639  0.52840659  0.59831875
   0.45822215  0.35778775  0.57613655
   0.13451592  0.17939176  0.89454445
   0.30945005  0.49963070  0.89407199
   0.45509850  0.31616367  0.90538417
   0.10140769  0.35736593  0.40880458
   0.28025479  0.16416265  0.41110000
   0.46438894  0.53068626  0.40406221
   0.62640191  0.32031155  0.10551435
   0.80519412  0.16932227  0.08466669
   0.95732247  0.50493340  0.09218310
   0.61122288  0.18702846  0.59217595
   0.78126212  0.52945307  0.58666605
   0.96338342  0.36308584  0.60409340
   0.62386644  0.17645631  0.91620606
   0.80948829  0.50391920  0.91666960
   0.95320089  0.33021854  0.90979672
   0.60656397  0.34051391  0.40212336
   0.78898152  0.18160013  0.41257977
   0.96528689  0.54426975  0.40362184
   0.62884035  0.82220809  0.08080674
   0.80148644  0.67042473  0.09666339
   0.94587082  0.00323180  0.08744473
   0.61659870  0.68332017  0.59119270
   0.79428294  0.04937834  0.60734532
   0.95538342  0.84949724  0.59221071
   0.63081032  0.66600831  0.89764661
   0.80294322  0.99388725  0.89708501
   0.95489712  0.82671210  0.91983416
   0.61498569  0.86222211  0.41071936
   0.77699366  0.67308703  0.39751469
   0.95873596  0.03946213  0.41645836
   0.12652620  0.82115700  0.10171421
   0.30939487  0.66827991  0.09308700
   0.44729552  0.99326835  0.10511410
   0.09978145  0.68389067  0.59013815
   0.29426495  0.03655665  0.58951237
   0.46363920  0.85350337  0.58851843
   0.12826862  0.68709119  0.90714028
   0.30148100  0.98868712  0.92066319
   0.44913156  0.81759459  0.90041894
   0.10587154  0.86788440  0.41060437
   0.28357855  0.67313774  0.40615527
   0.46036509  0.02535079  0.40526296
 
 position of ions in cartesian coordinates  (Angst):
   8.80370019  1.52164283  2.76605000
   6.04340021  5.73134860  8.35898000
   6.75855008  2.06092570  8.52393000
  -0.79420027  6.12341713  8.44133000
  -1.41023003  4.88367430  2.75663000
   5.17602000  7.58874000  2.87527000
  -0.24990029  3.07547430  8.44948000
   1.94979968  7.46573427  8.34756000
   1.28269968  6.10696853  2.78578000
   2.40340021  3.03915140  2.86848000
   5.69379984  1.19201713  2.81085000
   3.74039005  1.04626573  8.45052000
   2.84999965  4.31074003  8.24840000
   4.86580043  8.58413427  8.49135000
  -1.92269992  8.62352570  2.90372000
   5.55398008  4.58602857  2.80587000
   3.77274000  4.24428000  0.01562710
   1.03191000  2.98904000  5.56148000
  -1.20504000  4.24953000 11.17890000
   6.10343000  3.06654000  5.56765000
   1.34574003  0.09352143  0.02422630
   3.47738000  7.44309000  5.55881000
   6.25160003  0.00791143 11.15945081
  -1.41586000  7.43322000  5.59568000
   8.81241003  1.41219143 11.08999841
   1.31393000  2.97981000 11.11819761
   8.53663005  1.66904000  5.71129000
   3.59366000  4.54728000  5.55645000
   3.78766003  1.39929143  0.10988400
   6.25697000  2.95349000  0.04809959
   3.63353000  1.56710000  5.51812000
  -1.43226000  4.59166000  5.72633000
   1.34803000  5.76299000 11.08994641
   3.80010000  7.16815000 11.20587741
   1.07635000  5.93299000  5.59301000
   1.09793003  0.25763143  5.71163000
   6.34405005  5.87861000  0.10140500
  -1.23360000  7.16609000  0.09755880
   6.01068005  6.03004000  5.55029000
   6.12455003  0.24363143  5.58562000
  -0.26888300  2.78610000  0.95583000
   2.24843000  1.52463000  1.04195000
   2.01799000  4.30643000  0.92409700
   0.08471003  1.49209143  6.69434000
   0.18037300  4.58483000  6.71194000
   2.79859000  3.10442000  6.46310000
   0.44905200  1.55653000 10.03500000
   0.59748000  4.33515000 10.02970000
   2.97581000  2.74326000 10.15660000
  -0.77422100  3.10076000  4.58597000
   1.98550003  1.42439143  4.61172000
   1.99424000  4.60461000  4.53277000
   4.67132000  2.77925000  1.18366000
   7.21902000  1.46916000  0.94979100
   7.06195000  4.38116000  1.03411000
   5.18692303  1.62279143  6.64303000
   5.17517000  4.59391000  6.58122000
   7.83326005  3.15039000  6.77672000
   5.36656000  1.53106000 10.27800000
   5.58588000  4.37236000 10.28320000
   7.89589000  2.86521000 10.20610000
   4.37136000  2.95454000  4.51102000
   6.99508003  1.57569143  4.62832000
   6.94469005  4.72247000  4.52783000
   2.18150000  7.13406000  0.90649000
   4.67160000  5.81708000  1.08437000
   9.46049003  0.02804143  0.98095500
   2.75461000  5.92897000  6.63200000
   7.71056003  0.42844143  6.81320000
   5.31643005  7.37084000  6.64342000
   2.98372000  5.77876000 10.06980000
   3.06581000  8.62367000 10.06350000
   5.42570000  7.17314000 10.31870000
   1.84224000  7.48125000  4.60745000
   4.41287000  5.84018000  4.45932000
   9.40789008  0.34240143  4.67183000
  -2.84592000  7.12494000  1.14103000
  -0.24792100  5.79847000  1.04425000
  -0.49432400  8.61830000  1.17917000
  -2.42624000  5.93392000  6.62017000
   2.76511003  0.31719143  6.61315000
   0.36957600  7.40560000  6.60200000
  -2.15686000  5.96169000 10.17630000
  -1.93229000  8.57855000 10.32800000
   0.40410900  7.09403000 10.10090000
  -3.28694000  7.53038000  4.60616000
  -0.53091000  5.84062000  4.55625000
   4.48540303  0.21996143  4.54624000
 


--------------------------------------------------------------------------------------------------------


 k-point  1 :   0.0000 0.0000 0.0000  plane waves:   17725
 k-point  2 :   0.5000-0.0000-0.0000  plane waves:   17736
 k-point  3 :   0.0000 0.5000 0.0000  plane waves:   17736
 k-point  4 :   0.5000 0.5000-0.0000  plane waves:   17736
 k-point  5 :   0.0000 0.0000 0.5000  plane waves:   17676
 k-point  6 :   0.5000-0.0000 0.5000  plane waves:   17700
 k-point  7 :   0.0000 0.5000 0.5000  plane waves:   17700
 k-point  8 :   0.5000 0.5000 0.5000  plane waves:   17700

 maximum and minimum number of plane-waves per node :     17736    17676

 maximum number of plane-waves:     17736
 maximum index in each direction: 
   IXMAX=   16   IYMAX=   16   IZMAX=   18
   IXMIN=  -16   IYMIN=  -16   IZMIN=  -18


 serial   3D FFT for wavefunctions
 parallel 3D FFT for charge:
    minimum data exchange during FFTs selected (reduces bandwidth)


 total amount of memory used by VASP MPI-rank0    88174. kBytes
=======================================================================

   base      :      30000. kBytes
   nonlr-proj:      13665. kBytes
   fftplans  :        992. kBytes
   grid      :      21513. kBytes
   one-center:       2737. kBytes
   wavefun   :      19267. kBytes
 
     INWAV:  cpu time    0.0000: real time    0.0000
 Broyden mixing: mesh for mixing (old mesh)
   NGX = 33   NGY = 33   NGZ = 37
  (NGX  =100   NGY  =100   NGZ  =112)
  gives a total of  40293 points

 initial charge density was supplied:
 charge density of overlapping atoms calculated
 number of electron     672.0000000 magnetization      48.0000000
 keeping initial charge density in first step


--------------------------------------------------------------------------------------------------------


 Maximum index for non-local projection operator         1548
 Maximum index for augmentation-charges          270 (set IRDMAX)


--------------------------------------------------------------------------------------------------------


 First call to EWALD:  gamma=   0.179
 Maximum number of real-space cells 3x 3x 2
 Maximum number of reciprocal cells 3x 3x 3

    FEWALD:  cpu time    0.0024: real time    0.0030


--------------------------------------- Iteration      1(   1)  ---------------------------------------


    POTLOK:  cpu time    0.2082: real time    0.2103
    SETDIJ:  cpu time    3.1288: real time    3.1317
    EDDIAG:  cpu time    3.8428: real time    3.8511
  RMM-DIIS:  cpu time    6.7269: real time    6.8350
    ORTHCH:  cpu time    1.1712: real time    1.1753
       DOS:  cpu time    0.0020: real time    0.0021
    --------------------------------------------
      LOOP:  cpu time   15.0798: real time   15.2055

 eigenvalue-minimisations  :  7168
 total energy-change (2. order) : 0.1884397E+04  (-0.3594866E+05)
 number of electron     672.0000000 magnetization      48.0000000
 augmentation part      672.0000000 magnetization      48.0000000

 Free energy of the ion-electron system (eV)
  ---------------------------------------------------
  alpha Z        PSCENC =      2652.81237852
  Ewald energy   TEWEN  =    -41831.66531726
  -Hartree energ DENC   =    -25781.96910903
  -exchange      EXHF   =         0.00000000
  -V(xc)+E(xc)   XCENC  =      3606.15103571
  PAW double counting   =     55594.23204139   -59034.67079123
  entropy T*S    EENTRO =        -0.05884714
  eigenvalues    EBANDS =     -7182.63285569
  atomic energy  EATOM  =     73862.19814772
  Solvation  Ediel_sol  =         0.00000000
  ---------------------------------------------------
  free energy    TOTEN  =      1884.39668299 eV

  energy without entropy =     1884.45553013  energy(sigma->0) =     1884.42610656


--------------------------------------------------------------------------------------------------------




--------------------------------------- Iteration      1(   2)  ---------------------------------------


    EDDIAG:  cpu time    3.7773: real time    3.7862
  RMM-DIIS:  cpu time    6.8354: real time    6.8479
    ORTHCH:  cpu time    1.1734: real time    1.1760
       DOS:  cpu time    0.0015: real time    0.0015
    --------------------------------------------
      LOOP:  cpu time   11.7875: real time   11.8116

 eigenvalue-minimisations  :  7168
 total energy-change (2. order) :-0.2741473E+04  (-0.8716195E+04)
 number of electron     672.0000000 magnetization      48.0000000
 augmentation part      672.0000000 magnetization      48.0000000

 Free energy of the ion-electron system (eV)
  ---------------------------------------------------
  alpha Z        PSCENC =      2652.81237852
  Ewald energy   TEWEN  =    -41831.66531726
  -Hartree energ DENC   =    -25781.96910903
  -exchange      EXHF   =         0.00000000
  -V(xc)+E(xc)   XCENC  =      3606.15103571
  PAW double counting   =     55594.23204139   -59034.67079123
  entropy T*S    EENTRO =        -0.04595734
  eigenvalues    EBANDS =     -9924.11923747
  atomic energy  EATOM  =     73862.19814772
  Solvation  Ediel_sol  =         0.00000000
  ---------------------------------------------------
  free energy    TOTEN  =      -857.07680899 eV

  energy without entropy =     -857.03085165  energy(sigma->0) =     -857.05383032


--------------------------------------------------------------------------------------------------------




--------------------------------------- Iteration      1(   3)  ---------------------------------------


    EDDIAG:  cpu time    3.8374: real time    3.8408
  RMM-DIIS:  cpu time    6.8687: real time    6.8720
    ORTHCH:  cpu time    1.1771: real time    1.1800
       DOS:  cpu time    0.0015: real time    0.0015
    --------------------------------------------
      LOOP:  cpu time   11.8847: real time   11.8944

 eigenvalue-minimisations  :  7168
 total energy-change (2. order) : 0.3225785E+03  (-0.1562066E+04)
 number of electron     672.0000000 magnetization      48.0000000
 augmentation part      672.0000000 magnetization      48.0000000

 Free energy of the ion-electron system (eV)
  ---------------------------------------------------
  alpha Z        PSCENC =      2652.81237852
  Ewald energy   TEWEN  =    -41831.66531726
  -Hartree energ DENC   =    -25781.96910903
  -exchange      EXHF   =         0.00000000
  -V(xc)+E(xc)   XCENC  =      3606.15103571
  PAW double counting   =     55594.23204139   -59034.67079123
  entropy T*S    EENTRO =        -0.03735459
  eigenvalues    EBANDS =     -9601.54931764
  atomic energy  EATOM  =     73862.19814772
  Solvation  Ediel_sol  =         0.00000000
  ---------------------------------------------------
  free energy    TOTEN  =      -534.49828641 eV

  energy without entropy =     -534.46093182  energy(sigma->0) =     -534.47960911


--------------------------------------------------------------------------------------------------------




--------------------------------------- Iteration      1(   4)  ---------------------------------------


    EDDIAG:  cpu time    3.8149: real time    3.8435
  RMM-DIIS:  cpu time    6.8948: real time    6.8991
    ORTHCH:  cpu time    1.1744: real time    1.1766
       DOS:  cpu time    0.0014: real time    0.0014
    --------------------------------------------
      LOOP:  cpu time   11.8855: real time   11.9207

 eigenvalue-minimisations  :  7168
 total energy-change (2. order) :-0.5225770E+03  (-0.5075774E+03)
 number of electron     672.0000000 magnetization      48.0000000
 augmentation part      672.0000000 magnetization      48.0000000

 Free energy of the ion-electron system (eV)
  ---------------------------------------------------
  alpha Z        PSCENC =      2652.81237852
  Ewald energy   TEWEN  =    -41831.66531726
  -Hartree energ DENC   =    -25781.96910903
  -exchange      EXHF   =         0.00000000
  -V(xc)+E(xc)   XCENC  =      3606.15103571
  PAW double counting   =     55594.23204139   -59034.67079123
  entropy T*S    EENTRO =        -0.00104911
  eigenvalues    EBANDS =    -10124.16259982
  atomic energy  EATOM  =     73862.19814772
  Solvation  Ediel_sol  =         0.00000000
  ---------------------------------------------------
  free energy    TOTEN  =     -1057.07526312 eV

  energy without entropy =    -1057.07421401  energy(sigma->0) =    -1057.07473856


--------------------------------------------------------------------------------------------------------




--------------------------------------- Iteration      1(   5)  ---------------------------------------


    EDDIAG:  cpu time    3.8615: real time    3.8640
  RMM-DIIS:  cpu time    6.8787: real time    6.8822
    ORTHCH:  cpu time    1.1673: real time    1.1695
       DOS:  cpu time    0.0012: real time    0.0012
    --------------------------------------------
      LOOP:  cpu time   11.9087: real time   11.9170

 eigenvalue-minimisations  :  7168
 total energy-change (2. order) :-0.1480657E+03  (-0.2127578E+03)
 number of electron     672.0000000 magnetization      48.0000000
 augmentation part      672.0000000 magnetization      48.0000000

 Free energy of the ion-electron system (eV)
  ---------------------------------------------------
  alpha Z        PSCENC =      2652.81237852
  Ewald energy   TEWEN  =    -41831.66531726
  -Hartree energ DENC   =    -25781.96910903
  -exchange      EXHF   =         0.00000000
  -V(xc)+E(xc)   XCENC  =      3606.15103571
  PAW double counting   =     55594.23204139   -59034.67079123
  entropy T*S    EENTRO =        -0.00000000
  eigenvalues    EBANDS =    -10272.22936764
  atomic energy  EATOM  =     73862.19814772
  Solvation  Ediel_sol  =         0.00000000
  ---------------------------------------------------
  free energy    TOTEN  =     -1205.14098182 eV

  energy without entropy =    -1205.14098182  energy(sigma->0) =    -1205.14098182


--------------------------------------------------------------------------------------------------------




--------------------------------------- Iteration      1(   6)  ---------------------------------------


    EDDIAG:  cpu time    3.8384: real time    3.8417
  RMM-DIIS:  cpu time    6.7942: real time    6.8316
    ORTHCH:  cpu time    1.1739: real time    1.1764
       DOS:  cpu time    0.0013: real time    0.0013
    --------------------------------------------
      LOOP:  cpu time   11.8077: real time   11.8509

 eigenvalue-minimisations  :  7168
 total energy-change (2. order) :-0.2175081E+02  (-0.1153624E+03)
 number of electron     672.0000000 magnetization      48.0000000
 augmentation part      672.0000000 magnetization      48.0000000

 Free energy of the ion-electron system (eV)
  ---------------------------------------------------
  alpha Z        PSCENC =      2652.81237852
  Ewald energy   TEWEN  =    -41831.66531726
  -Hartree energ DENC   =    -25781.96910903
  -exchange      EXHF   =         0.00000000
  -V(xc)+E(xc)   XCENC  =      3606.15103571
  PAW double counting   =     55594.23204139   -59034.67079123
  entropy T*S    EENTRO =        -0.00000000
  eigenvalues    EBANDS =    -10293.98017680
  atomic energy  EATOM  =     73862.19814772
  Solvation  Ediel_sol  =         0.00000000
  ---------------------------------------------------
  free energy    TOTEN  =     -1226.89179098 eV

  energy without entropy =    -1226.89179098  energy(sigma->0) =    -1226.89179098


--------------------------------------------------------------------------------------------------------




--------------------------------------- Iteration      1(   7)  ---------------------------------------


    EDDIAG:  cpu time    3.8222: real time    3.8264
  RMM-DIIS:  cpu time    6.8438: real time    6.8463
    ORTHCH:  cpu time    1.1739: real time    1.1763
       DOS:  cpu time    0.0010: real time    0.0010
    --------------------------------------------
      LOOP:  cpu time   11.8410: real time   11.8500

 eigenvalue-minimisations  :  7168
 total energy-change (2. order) :-0.6729449E+01  (-0.7608634E+02)
 number of electron     672.0000000 magnetization      48.0000000
 augmentation part      672.0000000 magnetization      48.0000000

 Free energy of the ion-electron system (eV)
  ---------------------------------------------------
  alpha Z        PSCENC =      2652.81237852
  Ewald energy   TEWEN  =    -41831.66531726
  -Hartree energ DENC   =    -25781.96910903
  -exchange      EXHF   =         0.00000000
  -V(xc)+E(xc)   XCENC  =      3606.15103571
  PAW double counting   =     55594.23204139   -59034.67079123
  entropy T*S    EENTRO =        -0.00000000
  eigenvalues    EBANDS =    -10300.70962601
  atomic energy  EATOM  =     73862.19814772
  Solvation  Ediel_sol  =         0.00000000
  ---------------------------------------------------
  free energy    TOTEN  =     -1233.62124019 eV

  energy without entropy =    -1233.62124019  energy(sigma->0) =    -1233.62124019


--------------------------------------------------------------------------------------------------------




--------------------------------------- Iteration      1(   8)  ---------------------------------------


    EDDIAG:  cpu time    3.8187: real time    3.8218
  RMM-DIIS:  cpu time    6.8256: real time    6.8295
    ORTHCH:  cpu time    1.1638: real time    1.1665
       DOS:  cpu time    0.0011: real time    0.0011
    --------------------------------------------
      LOOP:  cpu time   11.8091: real time   11.8190

 eigenvalue-minimisations  :  7168
 total energy-change (2. order) : 0.4647203E+01  (-0.5266752E+02)
 number of electron     672.0000000 magnetization      48.0000000
 augmentation part      672.0000000 magnetization      48.0000000

 Free energy of the ion-electron system (eV)
  ---------------------------------------------------
  alpha Z        PSCENC =      2652.81237852
  Ewald energy   TEWEN  =    -41831.66531726
  -Hartree energ DENC   =    -25781.96910903
  -exchange      EXHF   =         0.00000000
  -V(xc)+E(xc)   XCENC  =      3606.15103571
  PAW double counting   =     55594.23204139   -59034.67079123
  entropy T*S    EENTRO =        -0.00000000
  eigenvalues    EBANDS =    -10296.06242263
  atomic energy  EATOM  =     73862.19814772
  Solvation  Ediel_sol  =         0.00000000
  ---------------------------------------------------
  free energy    TOTEN  =     -1228.97403681 eV

  energy without entropy =    -1228.97403681  energy(sigma->0) =    -1228.97403681


--------------------------------------------------------------------------------------------------------




--------------------------------------- Iteration      1(   9)  ---------------------------------------


    EDDIAG:  cpu time    3.8314: real time    3.8517
  RMM-DIIS:  cpu time   14.1851: real time   14.1922
    ORTHCH:  cpu time    1.1767: real time    1.1789
       DOS:  cpu time    0.0013: real time    0.0013
    --------------------------------------------
      LOOP:  cpu time   19.1944: real time   19.2240

 eigenvalue-minimisations  : 20218
 total energy-change (2. order) : 0.1799733E+02  (-0.2361467E+02)
 number of electron     672.0000000 magnetization      48.0000000
 augmentation part      672.0000000 magnetization      48.0000000

 Free energy of the ion-electron system (eV)
  ---------------------------------------------------
  alpha Z        PSCENC =      2652.81237852
  Ewald energy   TEWEN  =    -41831.66531726
  -Hartree energ DENC   =    -25781.96910903
  -exchange      EXHF   =         0.00000000
  -V(xc)+E(xc)   XCENC  =      3606.15103571
  PAW double counting   =     55594.23204139   -59034.67079123
  entropy T*S    EENTRO =        -0.00000000
  eigenvalues    EBANDS =    -10278.06509348
  atomic energy  EATOM  =     73862.19814772
  Solvation  Ediel_sol  =         0.00000000
  ---------------------------------------------------
  free energy    TOTEN  =     -1210.97670766 eV

  energy without entropy =    -1210.97670766  energy(sigma->0) =    -1210.97670766


--------------------------------------------------------------------------------------------------------




--------------------------------------- Iteration      1(  10)  ---------------------------------------


    EDDIAG:  cpu time    3.8152: real time    3.8189
  RMM-DIIS:  cpu time   15.5825: real time   15.6156
    ORTHCH:  cpu time    1.1776: real time    1.1799
       DOS:  cpu time    0.0014: real time    0.0014
    --------------------------------------------
      LOOP:  cpu time   20.5768: real time   20.6157

 eigenvalue-minimisations  : 20213
 total energy-change (2. order) :-0.3115993E+01  (-0.1044543E+01)
 number of electron     672.0000000 magnetization      48.0000000
 augmentation part      672.0000000 magnetization      48.0000000

 Free energy of the ion-electron system (eV)
  ---------------------------------------------------
  alpha Z        PSCENC =      2652.81237852
  Ewald energy   TEWEN  =    -41831.66531726
  -Hartree energ DENC   =    -25781.96910903
  -exchange      EXHF   =         0.00000000
  -V(xc)+E(xc)   XCENC  =      3606.15103571
  PAW double counting   =     55594.23204139   -59034.67079123
  entropy T*S    EENTRO =        -0.00000017
  eigenvalues    EBANDS =    -10281.18108676
  atomic energy  EATOM  =     73862.19814772
  Solvation  Ediel_sol  =         0.00000000
  ---------------------------------------------------
  free energy    TOTEN  =     -1214.09270111 eV

  energy without entropy =    -1214.09270095  energy(sigma->0) =    -1214.09270103


--------------------------------------------------------------------------------------------------------




--------------------------------------- Iteration      1(  11)  ---------------------------------------


    EDDIAG:  cpu time    3.8239: real time    3.8268
  RMM-DIIS:  cpu time   15.1047: real time   15.1120
    ORTHCH:  cpu time    1.1751: real time    1.1776
       DOS:  cpu time    0.0011: real time    0.0011
    --------------------------------------------
      LOOP:  cpu time   20.1049: real time   20.1175

 eigenvalue-minimisations  : 21651
 total energy-change (2. order) : 0.1091769E+00  (-0.9585681E-01)
 number of electron     672.0000000 magnetization      48.0000000
 augmentation part      672.0000000 magnetization      48.0000000

 Free energy of the ion-electron system (eV)
  ---------------------------------------------------
  alpha Z        PSCENC =      2652.81237852
  Ewald energy   TEWEN  =    -41831.66531726
  -Hartree energ DENC   =    -25781.96910903
  -exchange      EXHF   =         0.00000000
  -V(xc)+E(xc)   XCENC  =      3606.15103571
  PAW double counting   =     55594.23204139   -59034.67079123
  entropy T*S    EENTRO =        -0.00000016
  eigenvalues    EBANDS =    -10281.07190984
  atomic energy  EATOM  =     73862.19814772
  Solvation  Ediel_sol  =         0.00000000
  ---------------------------------------------------
  free energy    TOTEN  =     -1213.98352418 eV

  energy without entropy =    -1213.98352402  energy(sigma->0) =    -1213.98352410


--------------------------------------------------------------------------------------------------------




--------------------------------------- Iteration      1(  12)  ---------------------------------------


    EDDIAG:  cpu time    3.8198: real time    3.8453
  RMM-DIIS:  cpu time   16.5124: real time   16.5197
    ORTHCH:  cpu time    1.1673: real time    1.1695
       DOS:  cpu time    0.0016: real time    0.0016
    CHARGE:  cpu time    1.3811: real time    1.3814
    MIXING:  cpu time    0.0012: real time    0.0014
    --------------------------------------------
      LOOP:  cpu time   22.8832: real time   22.9189

 eigenvalue-minimisations  : 22847
 total energy-change (2. order) : 0.5806448E-02  (-0.7157656E-02)
 number of electron     671.9999310 magnetization      47.9999955
 augmentation part      239.0843647 magnetization      29.0332031

 Broyden mixing:
  rms(total) = 0.12601E+02    rms(broyden)= 0.12591E+02
  rms(prec ) = 0.14444E+02
  weight for this iteration     100.00

 Free energy of the ion-electron system (eV)
  ---------------------------------------------------
  alpha Z        PSCENC =      2652.81237852
  Ewald energy   TEWEN  =    -41831.66531726
  -Hartree energ DENC   =    -25781.96910903
  -exchange      EXHF   =         0.00000000
  -V(xc)+E(xc)   XCENC  =      3606.15103571
  PAW double counting   =     55594.23204139   -59034.67079123
  entropy T*S    EENTRO =        -0.00000015
  eigenvalues    EBANDS =    -10281.06610340
  atomic energy  EATOM  =     73862.19814772
  Solvation  Ediel_sol  =         0.00000000
  ---------------------------------------------------
  free energy    TOTEN  =     -1213.97771773 eV

  energy without entropy =    -1213.97771759  energy(sigma->0) =    -1213.97771766


--------------------------------------------------------------------------------------------------------




--------------------------------------- Iteration      1(  13)  ---------------------------------------


    POTLOK:  cpu time    0.1995: real time    0.2017
    SETDIJ:  cpu time    3.2895: real time    3.2899
    EDDIAG:  cpu time    3.8392: real time    3.8416
  RMM-DIIS:  cpu time   13.2603: real time   13.2893
    ORTHCH:  cpu time    1.2496: real time    1.2518
       DOS:  cpu time    0.0012: real time    0.0012
    CHARGE:  cpu time    1.3804: real time    1.3808
    MIXING:  cpu time    0.0007: real time    0.0009
    --------------------------------------------
      LOOP:  cpu time   23.2203: real time   23.2572

 eigenvalue-minimisations  : 17293
 total energy-change (2. order) : 0.2246378E+03  (-0.1383630E+03)
 number of electron     671.9999327 magnetization      47.9999944
 augmentation part      268.8098031 magnetization      26.7097514

 Broyden mixing:
  rms(total) = 0.13888E+02    rms(broyden)= 0.13885E+02
  rms(prec ) = 0.15584E+02
  weight for this iteration     100.00

 eigenvalues of (default mixing * dielectric matrix)
  average eigenvalue GAMMA=   0.3185
  0.3185

 Free energy of the ion-electron system (eV)
  ---------------------------------------------------
  alpha Z        PSCENC =      2652.81237852
  Ewald energy   TEWEN  =    -41831.66531726
  -Hartree energ DENC   =    -25113.41127979
  -exchange      EXHF   =         0.00000000
  -V(xc)+E(xc)   XCENC  =      3696.58542980
  PAW double counting   =     59923.79978669   -63349.08234334
  entropy T*S    EENTRO =        -0.08422352
  eigenvalues    EBANDS =    -10830.49250702
  atomic energy  EATOM  =     73862.19814772
  Solvation  Ediel_sol  =         0.00000000
  ---------------------------------------------------
  free energy    TOTEN  =      -989.33992820 eV

  energy without entropy =     -989.25570468  energy(sigma->0) =     -989.29781644


--------------------------------------------------------------------------------------------------------




--------------------------------------- Iteration      1(  14)  ---------------------------------------


    POTLOK:  cpu time    0.2032: real time    0.2034
    SETDIJ:  cpu time    3.2831: real time    3.2835
    EDDIAG:  cpu time    3.8519: real time    3.8550
  RMM-DIIS:  cpu time   13.7263: real time   13.7492
    ORTHCH:  cpu time    1.1896: real time    1.1923
       DOS:  cpu time    0.0010: real time    0.0010
    CHARGE:  cpu time    1.3787: real time    1.3793
    MIXING:  cpu time    0.0008: real time    0.0008
    --------------------------------------------
      LOOP:  cpu time   23.6346: real time   23.6645

 eigenvalue-minimisations  : 17766
 total energy-change (2. order) : 0.7462868E+02  (-0.1841138E+02)
 number of electron     671.9999315 magnetization      47.9999911
 augmentation part      246.7076042 magnetization      32.2196800

 Broyden mixing:
  rms(total) = 0.52711E+01    rms(broyden)= 0.52667E+01
  rms(prec ) = 0.56766E+01
  weight for this iteration     100.00

 eigenvalues of (default mixing * dielectric matrix)
  average eigenvalue GAMMA=   0.7313
  1.1022  0.3605

 Free energy of the ion-electron system (eV)
  ---------------------------------------------------
  alpha Z        PSCENC =      2652.81237852
  Ewald energy   TEWEN  =    -41831.66531726
  -Hartree energ DENC   =    -25722.31499385
  -exchange      EXHF   =         0.00000000
  -V(xc)+E(xc)   XCENC  =      3674.47993507
  PAW double counting   =     63353.86504393   -66836.32432501
  entropy T*S    EENTRO =        -0.00000000
  eigenvalues    EBANDS =    -10067.76211774
  atomic energy  EATOM  =     73862.19814772
  Solvation  Ediel_sol  =         0.00000000
  ---------------------------------------------------
  free energy    TOTEN  =      -914.71124862 eV

  energy without entropy =     -914.71124862  energy(sigma->0) =     -914.71124862


--------------------------------------------------------------------------------------------------------




--------------------------------------- Iteration      1(  15)  ---------------------------------------


    POTLOK:  cpu time    0.2024: real time    0.2041
    SETDIJ:  cpu time    3.2863: real time    3.2869
    EDDIAG:  cpu time    3.8797: real time    3.8823
  RMM-DIIS:  cpu time   13.8323: real time   13.8386
    ORTHCH:  cpu time    1.2486: real time    1.2697
       DOS:  cpu time    0.0010: real time    0.0011
    CHARGE:  cpu time    1.3777: real time    1.3830
    MIXING:  cpu time    0.0007: real time    0.0007
    --------------------------------------------
      LOOP:  cpu time   23.8288: real time   23.8663

 eigenvalue-minimisations  : 18494
 total energy-change (2. order) : 0.1346100E+02  (-0.1911394E+01)
 number of electron     671.9999322 magnetization      47.9999888
 augmentation part      249.6799454 magnetization      33.8030623

 Broyden mixing:
  rms(total) = 0.21681E+01    rms(broyden)= 0.21678E+01
  rms(prec ) = 0.22499E+01
  weight for this iteration     100.00

 eigenvalues of (default mixing * dielectric matrix)
  average eigenvalue GAMMA=   0.9481
  1.7077  0.3872  0.7495

 Free energy of the ion-electron system (eV)
  ---------------------------------------------------
  alpha Z        PSCENC =      2652.81237852
  Ewald energy   TEWEN  =    -41831.66531726
  -Hartree energ DENC   =    -25646.55128602
  -exchange      EXHF   =         0.00000000
  -V(xc)+E(xc)   XCENC  =      3706.77944848
  PAW double counting   =     67465.68195549   -70988.70435987
  entropy T*S    EENTRO =        -0.00000000
  eigenvalues    EBANDS =    -10121.80121716
  atomic energy  EATOM  =     73862.19814772
  Solvation  Ediel_sol  =         0.00000000
  ---------------------------------------------------
  free energy    TOTEN  =      -901.25025008 eV

  energy without entropy =     -901.25025008  energy(sigma->0) =     -901.25025008


--------------------------------------------------------------------------------------------------------




--------------------------------------- Iteration      1(  16)  ---------------------------------------


    POTLOK:  cpu time    0.2041: real time    0.2042
    SETDIJ:  cpu time    3.3216: real time    3.3221
    EDDIAG:  cpu time    3.8341: real time    3.8381
  RMM-DIIS:  cpu time   13.3163: real time   13.3214
    ORTHCH:  cpu time    1.2281: real time    1.2303
       DOS:  cpu time    0.0011: real time    0.0011
    CHARGE:  cpu time    1.3858: real time    1.3863
    MIXING:  cpu time    0.0011: real time    0.0011
    --------------------------------------------
      LOOP:  cpu time   23.2923: real time   23.3045

 eigenvalue-minimisations  : 17454
 total energy-change (2. order) :-0.1610570E+01  (-0.7350374E+00)
 number of electron     671.9999325 magnetization      47.9999881
 augmentation part      251.1768220 magnetization      33.8932104

 Broyden mixing:
  rms(total) = 0.14310E+01    rms(broyden)= 0.14305E+01
  rms(prec ) = 0.15174E+01
  weight for this iteration     100.00

 eigenvalues of (default mixing * dielectric matrix)
  average eigenvalue GAMMA=   0.9718
  2.0764  0.8967  0.3945  0.5196

 Free energy of the ion-electron system (eV)
  ---------------------------------------------------
  alpha Z        PSCENC =      2652.81237852
  Ewald energy   TEWEN  =    -41831.66531726
  -Hartree energ DENC   =    -25596.90999520
  -exchange      EXHF   =         0.00000000
  -V(xc)+E(xc)   XCENC  =      3708.13444790
  PAW double counting   =     70430.21311339   -73983.05552479
  entropy T*S    EENTRO =        -0.00000000
  eigenvalues    EBANDS =    -10144.58806996
  atomic energy  EATOM  =     73862.19814772
  Solvation  Ediel_sol  =         0.00000000
  ---------------------------------------------------
  free energy    TOTEN  =      -902.86081967 eV

  energy without entropy =     -902.86081967  energy(sigma->0) =     -902.86081967


--------------------------------------------------------------------------------------------------------




--------------------------------------- Iteration      1(  17)  ---------------------------------------


    POTLOK:  cpu time    0.2087: real time    0.2088
    SETDIJ:  cpu time    3.3276: real time    3.3282
    EDDIAG:  cpu time    3.8676: real time    3.8848
  RMM-DIIS:  cpu time   14.0696: real time   14.0766
    ORTHCH:  cpu time    1.1708: real time    1.1733
       DOS:  cpu time    0.0012: real time    0.0012
    CHARGE:  cpu time    1.3807: real time    1.3809
    MIXING:  cpu time    0.0014: real time    0.0014
    --------------------------------------------
      LOOP:  cpu time   24.0276: real time   24.0551

 eigenvalue-minimisations  : 18471
 total energy-change (2. order) : 0.1464171E+00  (-0.7157307E-01)
 number of electron     671.9999326 magnetization      47.9999877
 augmentation part      251.0989874 magnetization      33.8856548

 Broyden mixing:
  rms(total) = 0.76138E+00    rms(broyden)= 0.76126E+00
  rms(prec ) = 0.85713E+00
  weight for this iteration     100.00

 eigenvalues of (default mixing * dielectric matrix)
  average eigenvalue GAMMA=   1.0005
  2.2369  1.1273  0.3838  0.6966  0.5577

 Free energy of the ion-electron system (eV)
  ---------------------------------------------------
  alpha Z        PSCENC =      2652.81237852
  Ewald energy   TEWEN  =    -41831.66531726
  -Hartree energ DENC   =    -25588.93614520
  -exchange      EXHF   =         0.00000000
  -V(xc)+E(xc)   XCENC  =      3705.29086586
  PAW double counting   =     71275.45907936   -74836.53346455
  entropy T*S    EENTRO =        -0.00000000
  eigenvalues    EBANDS =    -10141.33994704
  atomic energy  EATOM  =     73862.19814772
  Solvation  Ediel_sol  =         0.00000000
  ---------------------------------------------------
  free energy    TOTEN  =      -902.71440259 eV

  energy without entropy =     -902.71440259  energy(sigma->0) =     -902.71440259


--------------------------------------------------------------------------------------------------------




--------------------------------------- Iteration      1(  18)  ---------------------------------------


    POTLOK:  cpu time    0.2038: real time    0.2056
    SETDIJ:  cpu time    3.2999: real time    3.3007
    EDDIAG:  cpu time    3.8733: real time    3.8757
  RMM-DIIS:  cpu time   13.5799: real time   13.6121
    ORTHCH:  cpu time    1.1850: real time    1.1873
       DOS:  cpu time    0.0011: real time    0.0011
    CHARGE:  cpu time    1.3904: real time    1.3908
    MIXING:  cpu time    0.0009: real time    0.0009
    --------------------------------------------
      LOOP:  cpu time   23.5344: real time   23.5743

 eigenvalue-minimisations  : 17587
 total energy-change (2. order) : 0.3895222E+00  (-0.7289158E-01)
 number of electron     671.9999324 magnetization      47.9999876
 augmentation part      250.5992392 magnetization      33.8491158

 Broyden mixing:
  rms(total) = 0.26990E+00    rms(broyden)= 0.26960E+00
  rms(prec ) = 0.28240E+00
  weight for this iteration     100.00

 eigenvalues of (default mixing * dielectric matrix)
  average eigenvalue GAMMA=   1.0210
[...]
   4      -0.603    -0.923     1.525    -0.074     0.035     0.458
   5      -0.512    -0.789     1.301    -0.029     0.126    -0.204
   6      -0.789    -0.693     1.481    -0.065     0.372     0.228
   7      -0.789    -0.685     1.474     0.105     0.530    -0.195
   8      -0.801    -0.608     1.409     0.098     0.430    -0.295
   9      -0.887    -1.018     1.905    -0.104    -0.038     0.011
  10      -0.864    -0.619     1.482    -0.167     0.352     0.156
  11      -0.611    -0.911     1.522    -0.023     0.087    -0.459
  12      -0.813    -0.931     1.744    -0.048     0.038    -0.028
  13      -0.777    -0.671     1.448    -0.113    -0.425    -0.120
  14      -0.840    -0.620     1.460    -0.172    -0.444    -0.320
  15      -0.858    -0.710     1.568     0.110    -0.376     0.338
  16      -0.891    -0.680     1.571     0.066    -0.528     0.252
  17       1.651     1.289    -2.940     0.045     0.111    -0.077
  18       1.477     1.397    -2.874     0.012    -0.193    -0.060
  19       1.445     1.442    -2.887    -0.013    -0.137     0.197
  20       1.284     1.622    -2.907    -0.112     0.135     0.079
  21       1.578     1.432    -3.010     0.174     0.219    -0.081
  22       1.489     1.418    -2.907     0.087     0.157     0.098
  23       1.258     1.628    -2.886    -0.163    -0.088     0.010
  24       1.419     1.511    -2.930    -0.058    -0.078    -0.084
  25       0.137    -1.444     1.306    -0.322     0.473     0.624
  26      -0.208     0.949    -0.741    -0.403    -0.263    -0.268
  27       0.730     1.128    -1.857     0.941     0.336     1.307
  28      -1.132    -0.563     1.695    -1.316    -0.374     0.349
  29      -1.031     0.515     0.516    -0.176     1.191     0.116
  30       0.544    -3.117     2.573    -0.581     1.292     0.958
  31      -1.287    -0.511     1.797    -1.105     0.194     0.525
  32      -0.896     1.016    -0.120     1.774     0.582     1.214
  33       0.036    -0.337     0.301     0.657    -0.485    -0.425
  34      -1.552     0.247     1.306     0.108     0.346    -0.068
  35      -0.364    -0.723     1.087    -0.124    -0.246    -0.766
  36      -2.173     1.635     0.537     0.042     2.277    -0.224
  37      -0.145    -0.319     0.464    -0.370    -0.481     0.377
  38       0.535     0.852    -1.387     0.879    -0.924    -0.624
  39       0.880    -0.747    -0.134    -0.456    -0.438    -0.980
  40       1.212    -1.929     0.717    -1.374    -0.489    -1.006
  41      -1.017     1.884    -0.867    -6.904     2.394    -2.921
  42      -4.143     2.524     1.619     4.664     3.756     2.682
  43       5.492    -5.896     0.404    -2.276    -4.338    -0.948
  44      -5.559     4.638     0.921     5.644    -1.575    -2.505
  45      -5.302     3.996     1.306    -3.639    -1.442     5.130
  46       1.898    -5.696     3.797    -0.936     4.295     0.208
  47      -3.216     2.011     1.205    -4.676     3.622    -3.616
  48       4.741    -5.394     0.654     0.999    -5.324     1.916
  49      -2.567     2.386     0.181     5.953     1.956     3.798
  50       6.469    -5.028    -1.441    -1.401     3.084    -1.023
  51      -4.843     4.836     0.006    -3.552     0.308     5.038
  52      -3.990     3.192     0.798     4.350    -1.136    -4.252
  53      -2.507     2.997    -0.490    -5.432     3.353    -2.936
  54      -2.823     1.490     1.333     4.732     4.185     3.492
  55       4.172    -5.647     1.476    -1.407    -5.070    -0.709
  56      -2.222     3.008    -0.786     3.759    -2.083    -3.398
  57      -3.471     2.405     1.067    -4.540    -3.025     4.445
  58       5.722    -7.366     1.644    -0.808     4.923     0.365
  59      -0.599    -0.048     0.647    -4.988     2.306    -3.014
  60       6.219    -6.630     0.411     0.232    -5.569     2.877
  61      -2.793    -0.196     2.990     4.845     3.205     3.362
  62       3.916    -6.117     2.201    -0.142     5.034     0.321
  63      -1.161     0.640     0.520    -6.494    -1.072     3.909
  64      -1.987     2.558    -0.571     5.033    -2.753    -3.801
  65      -3.892     1.664     2.228    -4.865     1.987    -6.061
  66      -4.965     1.985     2.980     3.357     1.297     5.755
  67       5.956    -5.202    -0.754    -1.290    -3.875     1.445
  68      -3.630     2.311     1.319     3.760    -2.297    -4.738
  69      -1.986     3.683    -1.696    -5.545    -2.594     3.222
  70       5.493    -6.219     0.726    -1.065     4.573    -2.753
  71      -5.290     3.828     1.462    -3.278     2.213    -5.056
  72       4.811    -5.350     0.539    -0.424    -3.920    -0.654
  73      -5.022     3.927     1.095     3.397     1.337     4.686
  74       4.801    -7.068     2.266    -0.673     6.179    -0.282
  75      -2.413     3.619    -1.206    -5.341    -2.276     3.675
  76      -2.600     3.103    -0.503     3.997    -1.678    -4.539
  77      -4.804     3.542     1.262    -4.566     1.749    -4.814
  78      -3.035     2.914     0.122     4.404     2.323     3.289
  79       4.744    -6.374     1.630     1.017    -4.825     0.191
  80      -3.091     1.635     1.456     6.469    -2.043    -3.426
  81      -5.662     4.894     0.769    -3.688    -1.911     5.163
  82       5.245    -5.803     0.559     0.346     4.693    -0.892
  83      -2.381     4.070    -1.689    -4.513     1.217    -4.119
  84       6.245    -6.530     0.285    -0.653    -4.706     0.520
  85      -2.627     2.460     0.167     5.132     0.937     3.434
  86       6.190    -5.684    -0.506    -2.418     4.134    -1.199
  87      -4.153     4.913    -0.759    -3.742    -2.232     3.306
  88      -3.809     1.409     2.400     3.619    -1.037    -4.251
 ---------------------------------------------------------------------


 Total hyperfine coupling parameters after diagonalization (MHz)
 (convention: |A_zz| > |A_xx| > |A_yy|)
 ----------------------------------------------------------------------
  ion      A_xx      A_yy      A_zz     asymmetry (A_yy - A_xx)/ A_zz 
 ----------------------------------------------------------------------
   1       0.604     0.329     3.032      -0.091
   2       0.825     0.606     3.421      -0.064
   3       1.668     1.282     3.918      -0.099
   4       1.923     1.491     4.120      -0.105
   5       1.271     0.981     3.121      -0.093
   6       1.735     1.494     3.957      -0.061
   7       2.574     2.216     4.801      -0.074
   8       1.627     1.244     3.723      -0.103
   9       0.394     0.148     3.130      -0.079
  10       2.214     1.741     4.291      -0.110
  11       1.606     1.226     3.830      -0.099
  12       0.793     0.642     3.335      -0.045
  13       1.038     0.718     3.174      -0.101
  14       1.727     1.203     3.835      -0.137
  15       3.042     2.686     5.365      -0.066
  16       1.522     1.147     3.888      -0.096
  17      13.806     9.576    14.178      -0.298
  18      14.046     9.767    14.138      -0.303
  19      14.274     9.943    14.312      -0.303
  20      13.942     9.773    14.342      -0.291
  21      15.768    11.420    16.141      -0.269
  22      13.635     9.361    13.831      -0.309
  23      13.762     9.677    14.255      -0.287
  24      15.260    10.933    15.405      -0.281
  25      95.288    93.491    96.722      -0.019
  26      94.558    93.776    95.807      -0.008
  27      93.087    90.657    95.275      -0.026
  28      94.638    92.130    96.206      -0.026
  29      94.363    92.131    94.992      -0.023
  30      95.913    92.299    98.998      -0.036
  31      96.286    93.949    97.985      -0.024
  32      95.878    94.656    99.332      -0.012
  33      98.024    97.422    99.328      -0.006
  34      99.266    97.414   100.364      -0.018
  35      99.542    98.804   101.255      -0.007
  36     102.156    97.147   102.552      -0.049
  37      98.007    97.721    99.271      -0.003
  38      97.932    96.294   100.017      -0.016
  39      95.659    93.461    96.136      -0.023
  40      99.780    95.926   100.468      -0.038
  41       4.836     0.535    16.099      -0.267
  42       6.258    -0.244    14.698      -0.442
  43       8.791     3.235    18.226      -0.305
  44       9.661     1.794    18.191      -0.432
  45       6.169     1.974    17.503      -0.240
  46       2.868    -1.632    11.509      -0.391
  47       4.812     0.536    15.092      -0.283
  48       7.359     2.448    17.512      -0.280
  49       5.210     0.569    15.672      -0.296
  50       3.837     0.913    13.992      -0.209
  51       6.453     1.673    17.002      -0.281
  52       6.430     2.018    16.073      -0.274
  53       5.502     1.406    16.055      -0.255
  54       2.619    -1.690    13.126      -0.328
  55       4.390     0.071    14.387      -0.300
  56       5.482     4.027    15.260      -0.095
  57       6.000     2.646    17.306      -0.194
  58       5.919    -0.009    16.492      -0.359
  59       5.141     1.374    13.669      -0.276
  60       7.211     0.838    18.577      -0.343
  61       4.496    -0.702    13.731      -0.379
  62       3.826    -0.300    14.011      -0.294
  63       8.508     2.070    17.445      -0.369
  64       1.583    -0.648    12.900      -0.173
  65       7.335     3.046    19.805      -0.217
  66       4.001     0.068    15.556      -0.253
  67       3.388     0.090    13.689      -0.241
  68       3.140     0.413    14.041      -0.194
  69       5.539     3.249    17.441      -0.131
  70       6.960     1.198    17.043      -0.338
  71       5.656     1.777    17.114      -0.227
  72       4.237     0.350    13.002      -0.299
  73       6.680     2.671    17.188      -0.233
  74       4.339    -0.003    16.974      -0.256
  75       6.995     4.559    18.728      -0.130
  76      -1.037     0.708    11.703       0.149
  77       8.148     3.428    19.218      -0.246
  78       4.951     1.514    14.392      -0.239
  79       4.629    -0.139    14.682      -0.325
  80       6.956     0.136    16.191      -0.421
  81       6.552     2.391    18.742      -0.222
  82       3.561    -0.379    13.814      -0.285
  83       6.467     4.553    17.811      -0.107
  84       4.650     0.372    15.830      -0.270
  85       4.818     0.093    13.399      -0.353
  86       4.355     0.640    15.502      -0.240
  87       6.067     2.538    16.276      -0.217
  88       6.367     1.860    14.831      -0.304
 ---------------------------------------------------------------------



--------------------------------------------------------------------------------------------------------


 stress matrix after NEB project (eV)
    -42.22351      2.23800      1.72191
      2.23757    -46.11566     -1.15627
      1.71117     -1.14520    -57.86197
  FORCES: max atom, RMS     2.646844    1.119829
  FORCE total and by dimension   10.504926    2.581589
  Stress total and by dimension   85.299728   57.861966
     LOOP+:  cpu time  619.3726: real time  620.3584
    4ORBIT:  cpu time    0.0000: real time    0.0000
 


 total charge     
 
# of ion       s       p       d       tot
------------------------------------------
    1        0.048   5.990   0.000   6.038
    2        0.047   5.990   0.000   6.037
    3        0.052   5.995   0.000   6.047
    4        0.050   5.993   0.000   6.043
    5        0.052   5.994   0.000   6.046
    6        0.047   5.988   0.000   6.035
    7        0.054   5.998   0.000   6.052
    8        0.050   5.992   0.000   6.042
    9        0.048   5.991   0.000   6.039
   10        0.045   5.988   0.000   6.033
   11        0.050   5.993   0.000   6.043
   12        0.049   5.992   0.000   6.041
   13        0.052   5.995   0.000   6.047
   14        0.052   5.994   0.000   6.046
   15        0.054   5.997   0.000   6.052
   16        0.054   5.997   0.000   6.051
   17        0.151   6.133   0.087   6.372
   18        0.146   6.121   0.078   6.345
   19        0.151   6.129   0.085   6.365
   20        0.150   6.130   0.086   6.366
   21        0.149   6.128   0.084   6.361
   22        0.152   6.132   0.087   6.371
   23        0.148   6.126   0.082   6.356
   24        0.147   6.125   0.082   6.354
   25        0.369   6.440   4.810  11.618
   26        0.378   6.454   4.844  11.676
   27        0.392   6.492   4.869  11.753
   28        0.377   6.462   4.834  11.673
   29        0.384   6.474   4.855  11.714
   30        0.371   6.442   4.815  11.628
   31        0.392   6.491   4.869  11.751
   32        0.366   6.432   4.810  11.608
   33        0.373   6.451   4.827  11.651
   34        0.372   6.454   4.819  11.645
   35        0.362   6.427   4.802  11.591
   36        0.384   6.470   4.851  11.705
   37        0.389   6.485   4.864  11.738
   38        0.370   6.446   4.822  11.639
   39        0.382   6.469   4.840  11.691
   40        0.370   6.442   4.824  11.635
   41        1.600   3.489   0.000   5.088
   42        1.600   3.523   0.000   5.123
   43        1.603   3.538   0.000   5.142
   44        1.600   3.532   0.000   5.131
   45        1.599   3.487   0.000   5.086
   46        1.599   3.527   0.000   5.126
   47        1.596   3.488   0.000   5.084
   48        1.600   3.505   0.000   5.105
   49        1.599   3.494   0.000   5.092
   50        1.598   3.477   0.000   5.074
   51        1.601   3.536   0.000   5.137
   52        1.597   3.506   0.000   5.103
   53        1.597   3.479   0.000   5.076
   54        1.597   3.503   0.000   5.100
   55        1.597   3.525   0.000   5.122
   56        1.599   3.497   0.000   5.096
   57        1.601   3.498   0.000   5.099
   58        1.599   3.484   0.000   5.082
   59        1.597   3.534   0.000   5.130
   60        1.602   3.496   0.000   5.098
   61        1.598   3.534   0.000   5.132
   62        1.597   3.494   0.000   5.091
   63        1.602   3.545   0.000   5.147
   64        1.597   3.491   0.000   5.088
   65        1.604   3.507   0.000   5.110
   66        1.599   3.487   0.000   5.085
   67        1.598   3.505   0.000   5.103
   68        1.599   3.501   0.000   5.100
   69        1.600   3.478   0.000   5.079
   70        1.598   3.508   0.000   5.106
   71        1.599   3.480   0.000   5.079
   72        1.596   3.488   0.000   5.083
   73        1.601   3.537   0.000   5.138
   74        1.602   3.512   0.000   5.114
   75        1.600   3.494   0.000   5.094
   76        1.597   3.511   0.000   5.109
   77        1.601   3.504   0.000   5.106
   78        1.596   3.500   0.000   5.096
   79        1.597   3.495   0.000   5.092
   80        1.598   3.515   0.000   5.113
   81        1.602   3.523   0.000   5.125
   82        1.597   3.502   0.000   5.098
   83        1.601   3.499   0.000   5.100
   84        1.604   3.519   0.000   5.123
   85        1.597   3.493   0.000   5.089
   86        1.599   3.514   0.000   5.113
   87        1.599   3.501   0.000   5.100
   88        1.600   3.540   0.000   5.140
--------------------------------------------------
tot         84.784 416.535  78.027 579.345
 


 magnetization (x)
 
# of ion       s       p       d       tot
------------------------------------------
    1        0.001   0.000   0.000   0.001
    2        0.001   0.001   0.000   0.002
    3        0.002   0.000   0.000   0.002
    4        0.002   0.000   0.000   0.002
    5        0.001   0.001   0.000   0.002
    6        0.002   0.000   0.000   0.002
    7        0.002   0.000   0.000   0.003
    8        0.002  -0.000   0.000   0.002
    9        0.001   0.001   0.000   0.001
   10        0.002   0.000   0.000   0.003
   11        0.002   0.000   0.000   0.002
   12        0.001   0.001   0.000   0.002
   13        0.001   0.000   0.000   0.002
   14        0.002   0.000   0.000   0.002
   15        0.002   0.001   0.000   0.003
   16        0.002  -0.000   0.000   0.001
   17        0.007   0.002   0.001   0.010
   18        0.007   0.002   0.001   0.010
   19        0.007   0.002   0.001   0.011
   20        0.007   0.002   0.001   0.010
   21        0.008   0.003   0.002   0.013
   22        0.007   0.002   0.001   0.011
   23        0.007   0.003   0.001   0.011
   24        0.008   0.002   0.001   0.011
   25        0.015   0.030   2.773   2.818
   26        0.015   0.029   2.734   2.778
   27        0.014   0.031   2.717   2.762
   28        0.015   0.030   2.744   2.788
   29        0.015   0.030   2.732   2.777
   30        0.015   0.029   2.764   2.808
   31        0.015   0.032   2.724   2.771
   32        0.015   0.030   2.771   2.815
   33        0.016   0.030   2.764   2.810
   34        0.016   0.030   2.764   2.810
   35        0.016   0.030   2.794   2.839
   36        0.016   0.033   2.735   2.785
   37        0.016   0.032   2.723   2.771
   38        0.016   0.030   2.760   2.805
   39        0.015   0.030   2.742   2.787
   40        0.016   0.029   2.765   2.811
   41        0.002   0.021   0.000   0.023
   42        0.002   0.039   0.000   0.041
   43        0.002   0.059   0.000   0.061
   44        0.002   0.063   0.000   0.065
   45        0.002   0.036   0.000   0.038
   46        0.001   0.022   0.000   0.023
   47        0.002   0.026   0.000   0.028
   48        0.002   0.044   0.000   0.047
   49        0.002   0.027   0.000   0.029
   50        0.002   0.016   0.000   0.018
   51        0.002   0.048   0.000   0.050
   52        0.002   0.044   0.000   0.046
   53        0.002   0.024   0.000   0.026
   54        0.001   0.014   0.000   0.015
   55        0.002   0.032   0.000   0.034
   56        0.002   0.032   0.000   0.034
   57        0.002   0.041   0.000   0.044
   58        0.002   0.036   0.000   0.038
   59        0.002   0.036   0.000   0.038
   60        0.002   0.044   0.000   0.046
   61        0.002   0.023   0.000   0.024
   62        0.002   0.024   0.000   0.025
   63        0.002   0.058   0.000   0.060
   64        0.001   0.013   0.000   0.014
   65        0.003   0.054   0.000   0.056
   66        0.002   0.027   0.000   0.029
   67        0.002   0.023   0.000   0.025
   68        0.002   0.014   0.000   0.016
   69        0.002   0.036   0.000   0.039
   70        0.002   0.048   0.000   0.050
   71        0.002   0.032   0.000   0.034
   72        0.002   0.017   0.000   0.018
   73        0.002   0.054   0.000   0.056
   74        0.002   0.023   0.000   0.025
   75        0.003   0.048   0.000   0.050
   76        0.001   0.007   0.000   0.008
   77        0.003   0.056   0.000   0.059
   78        0.002   0.032   0.000   0.033
   79        0.002   0.027   0.000   0.029
   80        0.002   0.041   0.000   0.042
   81        0.002   0.049   0.000   0.051
   82        0.002   0.019   0.000   0.020
   83        0.002   0.048   0.000   0.050
   84        0.002   0.027   0.000   0.029
   85        0.002   0.019   0.000   0.020
   86        0.002   0.027   0.000   0.029
   87        0.002   0.035   0.000   0.037
   88        0.002   0.037   0.000   0.039
--------------------------------------------------
tot          0.425   2.127  44.015  46.566
 

 total amount of memory used by VASP MPI-rank0    88174. kBytes
=======================================================================

   base      :      30000. kBytes
   nonlr-proj:      13665. kBytes
   fftplans  :        992. kBytes
   grid      :      21513. kBytes
   one-center:       2737. kBytes
   wavefun   :      19267. kBytes
 
  
  
 General timing and accounting informations for this job:
 ========================================================
  
                  Total CPU time used (sec):      638.833
                            User time (sec):      633.425
                          System time (sec):        5.408
                         Elapsed time (sec):      642.555
  
                   Maximum memory used (kb):      182336.
                   Average memory used (kb):           0.
  
                          Minor page faults:       309270
                          Major page faults:            0
                 Voluntary context switches:         3490
