 vasp.5.4.4.18Apr17-6-g9f103f2a35 (build Dec 02 2020 12:53:39) complex          
  
 executed on             LinuxIFC date 2021.07.31  00:28:46
 running on  112 total cores
 distrk:  each k-point on  112 cores,    1 groups
 distr:  one band on NCORES_PER_BAND=   1 cores,  112 groups


--------------------------------------------------------------------------------------------------------


 INCAR:
 POTCAR:    PAW_PBE Na_pv 19Sep2006               
 POTCAR:    PAW_PBE Mg_pv 13Apr2007               
 POTCAR:    PAW_PBE Mn_pv 02Aug2007               
 POTCAR:    PAW_PBE O 08Apr2002                   

 ----------------------------------------------------------------------------- 
|                                                                             |
|           W    W    AA    RRRRR   N    N  II  N    N   GGGG   !!!           |
|           W    W   A  A   R    R  NN   N  II  NN   N  G    G  !!!           |
|           W    W  A    A  R    R  N N  N  II  N N  N  G       !!!           |
|           W WW W  AAAAAA  RRRRR   N  N N  II  N  N N  G  GGG   !            |
|           WW  WW  A    A  R   R   N   NN  II  N   NN  G    G                |
|           W    W  A    A  R    R  N    N  II  N    N   GGGG   !!!           |
|                                                                             |
|      For optimal performance we recommend to set                            |
|        NCORE= 4 - approx SQRT( number of cores)                             |
|      NCORE specifies how many cores store one orbital (NPAR=cpu/NCORE).     |
|      This setting can  greatly improve the performance of VASP for DFT.     |
|      The default,   NCORE=1            might be grossly inefficient         |
|      on modern multi-core architectures or massively parallel machines.     |
|      Do your own testing !!!!                                               |
|      Unfortunately you need to use the default for GW and RPA calculations. |
|      (for HF NCORE is supported but not extensively tested yet)             |
|                                                                             |
 ----------------------------------------------------------------------------- 

 POTCAR:    PAW_PBE Na_pv 19Sep2006               
   VRHFIN =Na: p6s1                                                             
   LEXCH  = PE                                                                  
   EATOM  =   766.0439 eV,   56.3026 Ry                                         
                                                                                
   TITEL  = PAW_PBE Na_pv 19Sep2006                                             
   LULTRA =        F    use ultrasoft PP ?                                      
   IUNSCR =        1    unscreen: 0-lin 1-nonlin 2-no                           
   RPACOR =    1.800    partial core radius                                     
   POMASS =   22.990; ZVAL   =    7.000    mass and valenz                      
   RCORE  =    2.200    outmost cutoff radius                                   
   RWIGS  =    2.200; RWIGS  =    1.164    wigner-seitz radius (au A)           
   ENMAX  =  259.561; ENMIN  =  194.671 eV                                      
   ICORE  =        2    local potential                                         
   LCOR   =        T    correct aug charges                                     
   LPAW   =        T    paw PP                                                  
   EAUG   =  368.056                                                            
   DEXC   =    0.000                                                            
   RMAX   =    2.245    core radius for proj-oper                               
   RAUG   =    1.300    factor for augmentation sphere                          
   RDEP   =    2.259    radius for radial grids                                 
   RDEPT  =    1.738    core radius for aug-charge                              
                                                                                
   Atomic configuration                                                         
    5 entries                                                                   
     n  l   j            E        occ.                                          
     1  0  0.50     -1033.6933   2.0000                                         
     2  0  0.50       -56.7526   2.0000                                         
     2  1  1.50       -28.6721   6.0000                                         
     3  0  0.50        -2.7440   1.0000                                         
     3  2  1.50        -1.3606   0.0000                                         
   Description                                                                  
     l       E           TYP  RCUT    TYP  RCUT                                 
     1    -28.6720912     23  2.000                                             
     1      6.8029130     23  2.000                                             
     0     -2.7439560     23  2.200                                             
     0     34.0145650     23  2.200                                             
     2     -1.3605826     23  2.200                                             
  local pseudopotential read in
  partial core-charges read in
  partial kinetic energy density read in
  atomic valenz-charges read in
  non local Contribution for L=           1  read in
    real space projection operators read in
  non local Contribution for L=           1  read in
    real space projection operators read in
  non local Contribution for L=           0  read in
    real space projection operators read in
  non local Contribution for L=           0  read in
    real space projection operators read in
    PAW grid and wavefunctions read in
 
   number of l-projection  operators is LMAX  =           4
   number of lm-projection operators is LMMAX =           8
 
 POTCAR:    PAW_PBE Mg_pv 13Apr2007               
   VRHFIN =Mg: p6s2                                                             
   LEXCH  = PE                                                                  
   EATOM  =  1056.7344 eV,   77.6678 Ry                                         
                                                                                
   TITEL  = PAW_PBE Mg_pv 13Apr2007                                             
   LULTRA =        F    use ultrasoft PP ?                                      
   IUNSCR =        1    unscreen: 0-lin 1-nonlin 2-no                           
   RPACOR =    1.500    partial core radius                                     
   POMASS =   24.305; ZVAL   =    8.000    mass and valenz                      
   RCORE  =    2.000    outmost cutoff radius                                   
   RWIGS  =    2.000; RWIGS  =    1.058    wigner-seitz radius (au A)           
   ENMAX  =  403.929; ENMIN  =  302.947 eV                                      
   RCLOC  =    1.506    cutoff for local pot                                    
   LCOR   =        T    correct aug charges                                     
   LPAW   =        T    paw PP                                                  
   EAUG   =  758.780                                                            
   DEXC   =    0.000                                                            
   RMAX   =    2.045    core radius for proj-oper                               
   RAUG   =    1.300    factor for augmentation sphere                          
   RDEP   =    2.025    radius for radial grids                                 
   RDEPT  =    1.557    core radius for aug-charge                              
                                                                                
   Atomic configuration                                                         
    5 entries                                                                   
     n  l   j            E        occ.                                          
     1  0  0.50     -1259.6230   2.0000                                         
     2  0  0.50       -79.8442   2.0000                                         
     2  1  1.50       -46.6121   6.0000                                         
     3  0  0.50        -4.7055   2.0000                                         
     3  2  1.50        -1.3606   0.0000                                         
   Description                                                                  
     l       E           TYP  RCUT    TYP  RCUT                                 
     1    -46.6121073     23  1.600                                             
     1      2.7211652     23  1.600                                             
     0     -4.7054661     23  2.000                                             
     0     61.2262170     23  2.000                                             
     2     -1.3605826     23  2.000                                             
  local pseudopotential read in
  partial core-charges read in
  partial kinetic energy density read in
  atomic valenz-charges read in
  non local Contribution for L=           1  read in
    real space projection operators read in
  non local Contribution for L=           1  read in
    real space projection operators read in
  non local Contribution for L=           0  read in
    real space projection operators read in
  non local Contribution for L=           0  read in
    real space projection operators read in
  non local Contribution for L=           2  read in
    real space projection operators read in
    PAW grid and wavefunctions read in
 
   number of l-projection  operators is LMAX  =           5
   number of lm-projection operators is LMMAX =          13
 
 POTCAR:    PAW_PBE Mn_pv 02Aug2007               
   VRHFIN =Mn: 3p4s3d                                                           
   LEXCH  = PE                                                                  
   EATOM  =  2025.2664 eV,  148.8529 Ry                                         
                                                                                
   TITEL  = PAW_PBE Mn_pv 02Aug2007                                             
   LULTRA =        F    use ultrasoft PP ?                                      
   IUNSCR =        1    unscreen: 0-lin 1-nonlin 2-no                           
   RPACOR =    2.080    partial core radius                                     
   POMASS =   54.938; ZVAL   =   13.000    mass and valenz                      
   RCORE  =    2.300    outmost cutoff radius                                   
   RWIGS  =    2.500; RWIGS  =    1.323    wigner-seitz radius (au A)           
   ENMAX  =  269.864; ENMIN  =  202.398 eV                                      
   ICORE  =        3    local potential                                         
   LCOR   =        T    correct aug charges                                     
   LPAW   =        T    paw PP                                                  
   EAUG   =  569.085                                                            
   DEXC   =    0.000                                                            
   RMAX   =    2.343    core radius for proj-oper                               
   RAUG   =    1.300    factor for augmentation sphere                          
   RDEP   =    2.338    radius for radial grids                                 
   RDEPT  =    1.798    core radius for aug-charge                              
                                                                                
   Atomic configuration                                                         
    8 entries                                                                   
     n  l   j            E        occ.                                          
     1  0  0.50     -6424.8287   2.0000                                         
     2  0  0.50      -739.1154   2.0000                                         
     2  1  1.50      -625.3949   6.0000                                         
     3  0  0.50       -81.6100   2.0000                                         
     3  1  1.50       -50.4667   6.0000                                         
     3  2  2.50        -3.3745   6.0000                                         
     4  0  0.50        -4.1331   1.0000                                         
     4  3  2.50        -1.3606   0.0000                                         
   Description                                                                  
     l       E           TYP  RCUT    TYP  RCUT                                 
     1    -50.4666628     23  2.000                                             
     1     -1.3605826     23  2.000                                             
     2     -3.3744729     23  2.300                                             
     2     -4.7350555     23  2.300                                             
     0     -4.1331431     23  2.300                                             
     0      7.6656591     23  2.300                                             
     3      9.5240782     23  2.300                                             
  local pseudopotential read in
  partial core-charges read in
  partial kinetic energy density read in
  atomic valenz-charges read in
  non local Contribution for L=           1  read in
    real space projection operators read in
  non local Contribution for L=           1  read in
    real space projection operators read in
  non local Contribution for L=           2  read in
    real space projection operators read in
  non local Contribution for L=           2  read in
    real space projection operators read in
  non local Contribution for L=           0  read in
    real space projection operators read in
  non local Contribution for L=           0  read in
    real space projection operators read in
    PAW grid and wavefunctions read in
 
   number of l-projection  operators is LMAX  =           6
   number of lm-projection operators is LMMAX =          18
 
 POTCAR:    PAW_PBE O 08Apr2002                   
   VRHFIN =O: s2p4                                                              
   LEXCH  = PE                                                                  
   EATOM  =   432.3788 eV,   31.7789 Ry                                         
                                                                                
   TITEL  = PAW_PBE O 08Apr2002                                                 
   LULTRA =        F    use ultrasoft PP ?                                      
   IUNSCR =        1    unscreen: 0-lin 1-nonlin 2-no                           
   RPACOR =    1.200    partial core radius                                     
   POMASS =   16.000; ZVAL   =    6.000    mass and valenz                      
   RCORE  =    1.520    outmost cutoff radius                                   
   RWIGS  =    1.550; RWIGS  =    0.820    wigner-seitz radius (au A)           
   ENMAX  =  400.000; ENMIN  =  300.000 eV                                      
   ICORE  =        2    local potential                                         
   LCOR   =        T    correct aug charges                                     
   LPAW   =        T    paw PP                                                  
   EAUG   =  605.392                                                            
   DEXC   =    0.000                                                            
   RMAX   =    1.553    core radius for proj-oper                               
   RAUG   =    1.300    factor for augmentation sphere                          
   RDEP   =    1.550    radius for radial grids                                 
   RDEPT  =    1.329    core radius for aug-charge                              
                                                                                
   Atomic configuration                                                         
    4 entries                                                                   
     n  l   j            E        occ.                                          
     1  0  0.50      -514.6923   2.0000                                         
     2  0  0.50       -23.9615   2.0000                                         
     2  1  0.50        -9.0305   4.0000                                         
     3  2  1.50        -9.5241   0.0000                                         
   Description                                                                  
     l       E           TYP  RCUT    TYP  RCUT                                 
     0    -23.9615318     23  1.200                                             
     0     -9.5240782     23  1.200                                             
     1     -9.0304911     23  1.520                                             
     1      8.1634956     23  1.520                                             
     2     -9.5240782      7  1.500                                             
  local pseudopotential read in
  partial core-charges read in
  partial kinetic energy density read in
  kinetic energy density of atom read in
  atomic valenz-charges read in
  non local Contribution for L=           0  read in
    real space projection operators read in
  non local Contribution for L=           0  read in
    real space projection operators read in
  non local Contribution for L=           1  read in
    real space projection operators read in
  non local Contribution for L=           1  read in
    real space projection operators read in
    PAW grid and wavefunctions read in
 
   number of l-projection  operators is LMAX  =           4
   number of lm-projection operators is LMMAX =           8
 
 Optimization of the real space projectors (new method)

 maximal supplied QI-value         = 17.01
 optimisation between [QCUT,QGAM] = [ 10.20, 20.41] = [ 29.16,116.64] Ry 
 Optimized for a Real-space Cutoff    1.30 Angstroem

   l    n(q)    QCUT    max X(q) W(low)/X(q) W(high)/X(q)  e(spline) 
   1      7    10.205     4.940    0.23E-03    0.84E-03    0.11E-06
   1      7    10.205     6.253    0.40E-03    0.13E-02    0.18E-06
   0      8    10.205    37.438    0.23E-03    0.37E-03    0.42E-07
   0      8    10.205     9.606    0.16E-03    0.26E-03    0.31E-07
 Optimization of the real space projectors (new method)

 maximal supplied QI-value         = 18.90
 optimisation between [QCUT,QGAM] = [ 10.20, 20.41] = [ 29.16,116.64] Ry 
 Optimized for a Real-space Cutoff    1.26 Angstroem

   l    n(q)    QCUT    max X(q) W(low)/X(q) W(high)/X(q)  e(spline) 
   1      7    10.205     2.974    0.63E-04    0.14E-03    0.13E-06
   1      7    10.205     4.279    0.11E-03    0.45E-03    0.24E-06
   0      8    10.205    16.381    0.44E-03    0.15E-03    0.55E-07
   0      8    10.205     5.611    0.31E-03    0.11E-03    0.40E-07
   2      7    10.205     4.652    0.50E-03    0.47E-03    0.57E-07
 Optimization of the real space projectors (new method)

 maximal supplied QI-value         = 16.25
 optimisation between [QCUT,QGAM] = [ 10.24, 20.48] = [ 29.35,117.42] Ry 
 Optimized for a Real-space Cutoff    1.34 Angstroem

   l    n(q)    QCUT    max X(q) W(low)/X(q) W(high)/X(q)  e(spline) 
   1      8    10.239     3.658    0.23E-03    0.30E-03    0.98E-07
   1      8    10.239     5.612    0.32E-03    0.65E-03    0.21E-06
   2      7    10.239    55.373    0.42E-03    0.45E-03    0.65E-07
   2      7    10.239    50.863    0.43E-03    0.48E-03    0.67E-07
   0      8    10.239    79.536    0.11E-03    0.21E-03    0.56E-07
   0      8    10.239    38.668    0.96E-04    0.19E-03    0.52E-07
 Optimization of the real space projectors (new method)

 maximal supplied QI-value         = 24.76
 optimisation between [QCUT,QGAM] = [ 10.15, 20.30] = [ 28.85,115.39] Ry 
 Optimized for a Real-space Cutoff    1.38 Angstroem

   l    n(q)    QCUT    max X(q) W(low)/X(q) W(high)/X(q)  e(spline) 
   0      8    10.150    20.381    0.22E-03    0.32E-03    0.29E-06
   0      8    10.150    15.268    0.23E-03    0.35E-03    0.30E-06
   1      8    10.150     5.964    0.46E-03    0.53E-03    0.21E-06
   1      8    10.150     5.382    0.38E-03    0.45E-03    0.19E-06
  PAW_PBE Na_pv 19Sep2006               :
 energy of atom  1       EATOM= -766.0439
 kinetic energy error for atom=    0.0103 (will be added to EATOM!!)
  PAW_PBE Mg_pv 13Apr2007               :
 energy of atom  2       EATOM=-1056.7344
 kinetic energy error for atom=    0.0820 (will be added to EATOM!!)
  PAW_PBE Mn_pv 02Aug2007               :
 energy of atom  3       EATOM=-2025.2664
 kinetic energy error for atom=    0.0284 (will be added to EATOM!!)
  PAW_PBE O 08Apr2002                   :
 energy of atom  4       EATOM= -432.3788
 kinetic energy error for atom=    0.1156 (will be added to EATOM!!)
 
 
 POSCAR: Na Mg Mn  O                             
  positions in cartesian coordinates
  No initial velocities read in

 METAGGA = SCAN     LMAXTAU =  6    LMIXTAU =  F

 exchange correlation table for  LEXCH =        8
   RHO(1)=    0.500       N(1)  =     2000
   RHO(2)=  100.500       N(2)  =     4000

 VTST: version 3.2, (02/03/18)

 CHAIN: initializing optimizer
 
 OPT: Using VASP Dynamics algorithm
 CHAIN: Read ICHAIN            0
 
 POSCAR: Na Mg Mn  O                             
  positions in cartesian coordinates
  No initial velocities read in
 


--------------------------------------------------------------------------------------------------------


 ion  position               nearest neighbor table
   1  0.362  0.656  0.263-  87 2.19
   2  0.183  0.152  0.749-  47 2.33
   3  0.172  0.842  0.751-  44 2.27  47 2.38  81 2.38  36 2.86
   4  0.816  0.510  0.749-  73 2.34  71 2.34
   5  0.165  0.953  0.244-  42 2.22  67 2.27  76 2.33
   6  0.308  0.300  0.248-  41 2.33
   7  0.001  0.330  0.739-  80 2.17  60 2.35
   8  0.504  0.498  0.750-  71 2.31  85 2.36  33 2.80  35 2.87
   9  0.659  0.443  0.259-  75 2.19  52 2.22  28 2.98
  10  0.945  0.155  0.250-  54 2.23  64 2.27  55 2.37  63 2.37
  11  0.526  0.018  0.263-  62 2.15  53 2.36  31 2.76  29 2.95
  12  0.446  0.754  0.745-  85 2.22  82 2.27  84 2.36
  13  0.813  0.945  0.747-  69 2.17  72 2.31  56 2.35
  14  0.625  0.109  0.762-  59 2.14  49 2.26  56 2.28  46 2.36
  15  0.819  0.802  0.256-  74 2.30  65 2.36  67 2.36
  16  0.992  0.491  0.249-  75 2.35  77 2.38  39 2.82  37 2.88
  17  0.665  0.314  0.986-  49 1.89  60 2.01  53 2.10  66 2.11  71 2.16  43 2.25  26 2.84  37 2.86

  18  0.319  0.146  0.501-  44 2.01  52 2.05  51 2.05  45 2.10  50 2.10  46 2.16  27 2.78  36 2.82

  19  0.160  0.321  0.998-  61 1.94  55 1.95  41 2.00  78 2.04  83 2.10  48 2.11  30 2.81  25 2.84
                            38 2.85
  20  0.824  0.149  0.503-  56 2.04  64 2.05  62 2.05  63 2.05  58 2.11  57 2.15
  21  0.158  0.812  0.007-  77 2.01  67 2.04  73 2.06  47 2.11  42 2.12  84 2.14  37 2.79  34 2.85

  22  0.823  0.645  0.492-  75 1.97  68 2.03  74 2.05  70 2.06  76 2.07  69 2.10  39 2.84  28 2.85

  23  0.660  0.816  0.003-  65 1.99  79 2.02  85 2.03  59 2.04  72 2.05  54 2.10  33 2.80  29 2.84
                            34 2.85
  24  0.322  0.661  0.503-  81 1.96  86 1.97  82 2.03  87 2.07  88 2.13  80 2.13  36 2.81  31 2.82
                            39 2.83
  25  0.008  0.994  0.002-  41 1.84  72 1.90  61 1.95  54 1.97  47 1.98  67 1.99  19 2.84  26 2.87
                            30 2.89  34 2.92
  26  0.339  0.156  0.999-  47 1.84  49 1.88  48 1.91  43 1.94  42 1.95  41 1.99  17 2.84  25 2.87
                            29 2.89  33 2.93
  27  0.999  0.988  0.504-  50 1.87  44 1.88  63 1.92  76 1.93  69 1.94  58 1.95  18 2.78  36 2.83
                            40 2.92  32 2.93
  28  0.654  0.316  0.500-  62 1.84  46 1.85  68 1.90  52 1.92  57 1.95  75 2.01  22 2.85  31 2.86
                            39 2.96  35 2.97   9 2.98
  29  0.495  0.979  0.002-  84 1.83  79 1.89  59 1.92  53 1.95  42 2.03  49 2.03  23 2.84  38 2.86
                            26 2.89  11 2.95  30 2.97
  30  0.837  0.156  0.002-  53 1.89  61 1.90  55 1.90  54 1.91  60 1.99  59 2.07  19 2.81  25 2.89
                            37 2.91  29 2.97
  31  0.489  0.986  0.507-  88 1.87  81 1.88  46 1.91  51 1.92  62 1.99  56 2.07  11 2.76  24 2.82
                            28 2.86  36 2.87  40 2.95
  32  0.163  0.325  0.501-  80 1.81  45 1.89  87 1.92  58 1.93  64 1.94  50 2.00  35 2.86  39 2.89
                            27 2.93
  33  0.496  0.493  1.000-  48 1.87  78 1.89  71 1.90  43 1.92  85 1.93  65 1.96   8 2.80  23 2.80
                            38 2.83  34 2.89  26 2.93
  34  0.830  0.658  0.999-  66 1.87  72 1.91  71 1.94  65 1.94  67 1.97  73 1.99  23 2.85  21 2.85
                            37 2.87  33 2.89  25 2.92
  35  0.493  0.496  0.494-  82 1.84  74 1.89  45 1.91  68 1.96  87 2.01  52 2.02  40 2.81  32 2.86
                             8 2.87  28 2.97
  36  0.159  0.821  0.496-  86 1.86  44 1.88  76 1.91  51 1.91  81 1.94  70 1.96  24 2.81  18 2.82
                            27 2.83   3 2.86  31 2.87  39 2.87
  37  0.994  0.491  0.992-  73 1.84  77 1.89  66 1.93  83 1.94  60 1.96  55 1.98  21 2.79  17 2.86
                            34 2.87  16 2.88  38 2.89  30 2.91
  38  0.327  0.649  0.996-  83 1.83  84 1.91  85 1.91  77 1.92  78 1.96  79 2.03  33 2.83  19 2.85
                            29 2.86  37 2.89
  39  0.996  0.491  0.501-  80 1.85  70 1.89  57 1.90  86 1.93  75 2.01  64 2.03  16 2.82  24 2.83
                            22 2.84  36 2.87  32 2.89  28 2.96
  40  0.662  0.819  0.503-  82 1.86  88 1.88  69 1.90  74 1.90  63 1.96  56 2.01  35 2.81  27 2.92
                            31 2.95
  41  0.164  0.151  0.088-  25 1.84  26 1.99  19 2.00   6 2.33
  42  0.338  0.999  0.102-  26 1.95  29 2.03  21 2.12   5 2.22
  43  0.485  0.329  0.095-  33 1.92  26 1.94  17 2.25
  44  0.149  0.971  0.592-  36 1.88  27 1.88  18 2.01   3 2.27
  45  0.331  0.338  0.587-  32 1.89  35 1.91  18 2.10
  46  0.512  0.158  0.596-  28 1.85  31 1.91  18 2.16  14 2.36
  47  0.182  0.004  0.910-  26 1.84  25 1.98  21 2.11   2 2.33   3 2.38
  48  0.349  0.325  0.912-  33 1.87  26 1.91  19 2.11
  49  0.495  0.152  0.908-  26 1.88  17 1.89  29 2.03  14 2.26
  50  0.139  0.146  0.405-  27 1.87  32 2.00  18 2.10
  51  0.329  0.975  0.408-  36 1.91  31 1.92  18 2.05
  52  0.496  0.321  0.408-  28 1.92  35 2.02  18 2.05   9 2.22
  53  0.669  0.141  0.089-  30 1.89  29 1.95  17 2.10  11 2.36
  54  0.843  0.999  0.094-  30 1.91  25 1.97  23 2.10  10 2.23
  55  0.995  0.325  0.087-  30 1.90  19 1.95  37 1.98  10 2.37
  56  0.659  0.980  0.608-  40 2.01  20 2.04  31 2.07  14 2.28  13 2.35
  57  0.830  0.341  0.593-  39 1.90  28 1.95  20 2.15
  58  0.012  0.158  0.597-  32 1.93  27 1.95  20 2.11
  59  0.656  0.985  0.904-  29 1.92  23 2.04  30 2.07  14 2.14
  60  0.841  0.318  0.897-  37 1.96  30 1.99  17 2.01   7 2.35
  61  0.995  0.153  0.910-  30 1.90  19 1.94  25 1.95
  62  0.652  0.158  0.413-  28 1.84  31 1.99  20 2.05  11 2.15
  63  0.834  0.978  0.409-  27 1.92  40 1.96  20 2.05  10 2.37
  64  0.999  0.319  0.406-  32 1.94  39 2.03  20 2.05  10 2.27
  65  0.666  0.650  0.096-  34 1.94  33 1.96  23 1.99  15 2.36
  66  0.837  0.501  0.084-  34 1.87  37 1.93  17 2.11
  67  0.987  0.819  0.101-  34 1.97  25 1.99  21 2.04   5 2.27  15 2.36
  68  0.647  0.474  0.586-  28 1.90  35 1.96  22 2.03
  69  0.827  0.825  0.591-  40 1.90  27 1.94  22 2.10  13 2.17
  70  1.000  0.652  0.591-  39 1.89  36 1.96  22 2.06
  71  0.659  0.506  0.905-  33 1.90  34 1.94  17 2.16   8 2.31   4 2.34
  72  0.846  0.830  0.915-  25 1.90  34 1.91  23 2.05  13 2.31
  73  0.988  0.642  0.903-  37 1.84  34 1.99  21 2.06   4 2.34
  74  0.650  0.658  0.405-  35 1.89  40 1.90  22 2.05  15 2.30
  75  0.825  0.479  0.400-  22 1.97  39 2.01  28 2.01   9 2.19  16 2.35
  76  0.003  0.831  0.406-  36 1.91  27 1.93  22 2.07   5 2.33
  77  0.158  0.634  0.089-  37 1.89  38 1.92  21 2.01  16 2.38
  78  0.337  0.491  0.092-  33 1.89  38 1.96  19 2.04
  79  0.490  0.821  0.097-  29 1.89  23 2.02  38 2.03
  80  0.138  0.464  0.588-  32 1.81  39 1.85  24 2.13   7 2.17
  81  0.323  0.829  0.593-  31 1.88  36 1.94  24 1.96   3 2.38
  82  0.501  0.655  0.583-  35 1.84  40 1.86  24 2.03  12 2.27
  83  0.169  0.507  0.905-  38 1.83  37 1.94  19 2.10
  84  0.348  0.824  0.910-  29 1.83  38 1.91  21 2.14  12 2.36
  85  0.487  0.649  0.904-  38 1.91  33 1.93  23 2.03  12 2.22   8 2.36
  86  0.154  0.660  0.411-  36 1.86  39 1.93  24 1.97
  87  0.315  0.485  0.402-  32 1.92  35 2.01  24 2.07   1 2.19
  88  0.516  0.844  0.416-  31 1.87  40 1.88  24 2.13
 
  LATTYP: Found a hexagonal cell.
 ALAT       =    10.0190000534
 C/A-ratio  =     1.1196726572
  
  Lattice vectors:
  
 A1 = (  10.0190000534,   0.0000000000,   0.0000000000)
 A2 = (  -5.0095000267,   8.6767085668,   0.0000000000)
 A3 = (   0.0000000000,   0.0000000000,  11.2180004120)


Analysis of symmetry for initial positions (statically):
=====================================================================
 Subroutine PRICEL returns:
 Original cell was already a primitive cell.
 

 Routine SETGRP: Setting up the symmetry group for a 
 hexagonal supercell.


 Subroutine GETGRP returns: Found  1 space group operations
 (whereof  1 operations were pure point group operations)
 out of a pool of 24 trial point group operations.


The static configuration has the point symmetry C_1 .


Analysis of symmetry for dynamics (positions and initial velocities):
=====================================================================
 Subroutine PRICEL returns:
 Original cell was already a primitive cell.
 

 Routine SETGRP: Setting up the symmetry group for a 
 hexagonal supercell.


 Subroutine GETGRP returns: Found  1 space group operations
 (whereof  1 operations were pure point group operations)
 out of a pool of 24 trial point group operations.


The dynamic configuration has the point symmetry C_1 .


Analysis of structural, dynamic, and magnetic symmetry:
=====================================================================
 Subroutine PRICEL returns:
 Original cell was already a primitive cell.
 

 Routine SETGRP: Setting up the symmetry group for a 
 hexagonal supercell.


 Subroutine GETGRP returns: Found  1 space group operations
 (whereof  1 operations were pure point group operations)
 out of a pool of 24 trial point group operations.


The magnetic configuration has the point symmetry C_1 .


 Subroutine INISYM returns: Found  1 space group operations
 (whereof  1 operations are pure point group operations),
 and found     1 'primitive' translations

 
 

Automatic generation of k-mesh.
 generate k-points for:    2    2    2
Space group operators:
 irot       det(A)        alpha          n_x          n_y          n_z        tau_x        tau_y        tau_z
    1     1.000000     0.000000     1.000000     0.000000     0.000000     0.000000     0.000000     0.000000
 
 Subroutine IBZKPT returns following result:
 ===========================================
 
 Found      8 irreducible k-points:
 
 Following reciprocal coordinates:
            Coordinates               Weight
  0.000000  0.000000  0.000000      1.000000
  0.500000 -0.000000 -0.000000      1.000000
  0.000000  0.500000  0.000000      1.000000
  0.500000  0.500000 -0.000000      1.000000
  0.000000  0.000000  0.500000      1.000000
  0.500000 -0.000000  0.500000      1.000000
  0.000000  0.500000  0.500000      1.000000
  0.500000  0.500000  0.500000      1.000000
 
 Following cartesian coordinates:
            Coordinates               Weight
  0.000000  0.000000  0.000000      1.000000
  0.049905  0.028813 -0.000000      1.000000
  0.000000  0.057626  0.000000      1.000000
  0.049905  0.086438 -0.000000      1.000000
  0.000000  0.000000  0.044571      1.000000
  0.049905  0.028813  0.044571      1.000000
  0.000000  0.057626  0.044571      1.000000
  0.049905  0.086438  0.044571      1.000000
 


--------------------------------------------------------------------------------------------------------




 Dimension of arrays:
   k-points           NKPTS =      8   k-points in BZ     NKDIM =      8   number of bands    NBANDS=    448
   number of dos      NEDOS =    301   number of ions     NIONS =     88
   non local maximal  LDIM  =      6   non local SUM 2l+1 LMDIM =     18
   total plane-waves  NPLWV = 140000
   max r-space proj   IRMAX =   1632   max aug-charges    IRDMAX=   4555
   dimension x,y,z NGX =    50 NGY =   50 NGZ =   56
   dimension x,y,z NGXF=   100 NGYF=  100 NGZF=  112
   support grid    NGXF=   100 NGYF=  100 NGZF=  112
   ions per type =              16   8  16  48
   NGX,Y,Z   is equivalent  to a cutoff of   8.30,  8.30,  8.30 a.u.
   NGXF,Y,Z  is equivalent  to a cutoff of  16.59, 16.59, 16.60 a.u.

 SYSTEM =  unknown system                          
 POSCAR =  Na Mg Mn  O                             

 Startparameter for this run:
   NWRITE =      2    write-flag & timer
   PREC   = normal    normal or accurate (medium, high low for compatibility)
   ISTART =      0    job   : 0-new  1-cont  2-samecut
   ICHARG =      1    charge: 1-file 2-atom 10-const
   ISPIN  =      2    spin polarized calculation?
   LNONCOLLINEAR =      F non collinear calculations
   LSORBIT =      F    spin-orbit coupling
   INIWAV =      1    electr: 0-lowe 1-rand  2-diag
   LASPH  =      T    aspherical Exc in radial PAW
   METAGGA=      F    non-selfconsistent MetaGGA calc.

 Electronic Relaxation 1
   ENCUT  =  400.0 eV  29.40 Ry    5.42 a.u.  16.34 16.34 18.29*2*pi/ulx,y,z
   ENINI  =  400.0     initial cutoff
   ENAUG  =  758.8 eV  augmentation charge cutoff
   NELM   =    200;   NELMIN=  6; NELMDL=-12     # of ELM steps 
   EDIFF  = 0.1E-04   stopping-criterion for ELM
   LREAL  =      T    real-space projection
   NLSPLINE    = F    spline interpolate recip. space projectors
   LCOMPAT=      F    compatible to vasp.4.4
   GGA_COMPAT  = T    GGA compatible to vasp.4.4-vasp.4.6
   LMAXPAW     = -100 max onsite density
   LMAXMIX     =    4 max onsite mixed and CHGCAR
   VOSKOWN=      0    Vosko Wilk Nusair interpolation
   ROPT   =   -0.00050  -0.00050  -0.00050  -0.00050
 Ionic relaxation
   EDIFFG = 0.1E-03   stopping-criterion for IOM
   NSW    =      1    number of steps for IOM
   NBLOCK =      1;   KBLOCK =      1    inner block; outer block 
   IBRION =     -1    ionic relax: 0-MD 1-quasi-New 2-CG
   NFREE  =      0    steps in history (QN), initial steepest desc. (CG)
   ISIF   =      2    stress and relaxation
   IWAVPR =     10    prediction:  0-non 1-charg 2-wave 3-comb
   ISYM   =      2    0-nonsym 1-usesym 2-fastsym
   LCORR  =      T    Harris-Foulkes like correction to forces

   POTIM  = 0.5000    time-step for ionic-motion
   TEIN   =    0.0    initial temperature
   TEBEG  =    0.0;   TEEND  =   0.0 temperature during run
   SMASS  =  -3.00    Nose mass-parameter (am)
   estimated Nose-frequenzy (Omega)   =  0.10E-29 period in steps =****** mass=  -0.229E-26a.u.
   SCALEE = 1.0000    scale energy and forces
   NPACO  =    256;   APACO  = 16.0  distance and # of slots for P.C.
   PSTRESS=    0.0 pullay stress

  Mass of Ions in am
   POMASS =  22.99 24.30 54.94 16.00
  Ionic Valenz
   ZVAL   =   7.00  8.00 13.00  6.00
  Atomic Wigner-Seitz radii
   RWIGS  =  -1.00 -1.00 -1.00 -1.00
  virtual crystal weights 
   VCA    =   1.00  1.00  1.00  1.00
   NELECT =     672.0000    total number of electrons
   NUPDOWN=      48.0000    fix difference up-down

 DOS related values:
   EMIN   =  10.00;   EMAX   =-10.00  energy-range for DOS
   EFERMI =   0.00
   ISMEAR =     0;   SIGMA  =   0.05  broadening in eV -4-tet -1-fermi 0-gaus

 Electronic relaxation 2 (details)
   IALGO  =     48    algorithm
   LDIAG  =      T    sub-space diagonalisation (order eigenvalues)
   LSUBROT=      F    optimize rotation matrix (better conditioning)
   TURBO    =      0    0=normal 1=particle mesh
   IRESTART =      0    0=no restart 2=restart with 2 vectors
   NREBOOT  =      0    no. of reboots
   NMIN     =      0    reboot dimension
   EREF     =   0.00    reference energy to select bands
   IMIX   =      4    mixing-type and parameters
     AMIX     =   0.40;   BMIX     =  1.00
     AMIX_MAG =   1.60;   BMIX_MAG =  1.00
     AMIN     =   0.10
     WC   =   100.;   INIMIX=   1;  MIXPRE=   1;  MAXMIX= -45

 Intra band minimization:
   WEIMIN = 0.0000     energy-eigenvalue tresh-hold
   EBREAK =  0.56E-08  absolut break condition
   DEPER  =   0.30     relativ break condition  

   TIME   =   0.40     timestep for ELM

  volume/ion in A,a.u.               =      11.08        74.78
  Fermi-wavevector in a.u.,A,eV,Ry     =   1.445993  2.732531 28.448379  2.090897
  Thomas-Fermi vector in A             =   2.564112
 
 Write flags
   LWAVE        =      F    write WAVECAR
   LDOWNSAMPLE  =      F    k-point downsampling of WAVECAR
   LCHARG       =      F    write CHGCAR
   LVTOT        =      F    write LOCPOT, total local potential
   LVHAR        =      F    write LOCPOT, Hartree potential only
   LELF         =      F    write electronic localiz. function (ELF)
   LORBIT       =     11    0 simple, 1 ext, 2 COOP (PROOUT), +10 PAW based schemes


 Dipole corrections
   LMONO  =      F    monopole corrections only (constant potential shift)
   LDIPOL =      F    correct potential (dipole corrections)
   IDIPOL =      0    1-x, 2-y, 3-z, 4-all directions 
   EPSILON=  1.0000000 bulk dielectric constant

 Exchange correlation treatment:
   GGA     =    --    GGA type
   LEXCH   =     8    internal setting for exchange type
   VOSKOWN=      0    Vosko Wilk Nusair interpolation
   LHFCALC =     F    Hartree Fock is set to
   LHFONE  =     F    Hartree Fock one center treatment
   AEXX    =    0.0000 exact exchange contribution

 Linear response parameters
   LEPSILON=     F    determine dielectric tensor
   LRPA    =     F    only Hartree local field effects (RPA)
   LNABLA  =     F    use nabla operator in PAW spheres
   LVEL    =     F    velocity operator in full k-point grid
   LINTERFAST=   F  fast interpolation
   KINTER  =     0    interpolate to denser k-point grid
   CSHIFT  =0.1000    complex shift for real part using Kramers Kronig
   OMEGAMAX=  -1.0    maximum frequency
   DEG_THRESHOLD= 0.2000000E-02 threshold for treating states as degnerate
   RTIME   =   -0.100 relaxation time in fs
  (WPLASMAI=    0.000 imaginary part of plasma frequency in eV, 0.658/RTIME)
   DFIELD  = 0.0000000 0.0000000 0.0000000 field for delta impulse in time
 
 Orbital magnetization related:
   ORBITALMAG=     F  switch on orbital magnetization
   LCHIMAG   =     F  perturbation theory with respect to B field
   DQ        =  0.001000  dq finite difference perturbation B field
   LLRAUG    =     F  two centre corrections for induced B field



--------------------------------------------------------------------------------------------------------


 Static calculation
 charge density and potential will be updated during run
 spin polarized calculation
 RMM-DIIS sequential band-by-band
 perform sub-space diagonalisation
    before iterative eigenvector-optimisation
 modified Broyden-mixing scheme, WC =      100.0
 initial mixing is a Kerker type mixing with AMIX =  0.4000 and BMIX =      1.0000
 Hartree-type preconditioning will be used
 using additional bands          112
 real space projection scheme for non local part
 use partial core corrections
 calculate Harris-corrections to forces 
   (improved forces if not selfconsistent)
 use gradient corrections 
 use of overlap-Matrix (Vanderbilt PP)
 Gauss-broadening in eV      SIGMA  =   0.05


--------------------------------------------------------------------------------------------------------


  energy-cutoff  :      400.00
  volume of cell :      975.20
      direct lattice vectors                 reciprocal lattice vectors
    10.019000053  0.000000000  0.000000000     0.099810360  0.057625538 -0.000000000
    -5.009500027  8.676708567  0.000000000     0.000000000  0.115251076  0.000000000
     0.000000000  0.000000000 11.218000412     0.000000000  0.000000000  0.089142446

  length of vectors
    10.019000053 10.019000053 11.218000412     0.115251076  0.115251076  0.089142446


 
 k-points in units of 2pi/SCALE and weight: read from INCAR                         
   0.00000000  0.00000000  0.00000000       0.125
   0.04990518  0.02881277 -0.00000000       0.125
   0.00000000  0.05762554  0.00000000       0.125
   0.04990518  0.08643831 -0.00000000       0.125
   0.00000000  0.00000000  0.04457122       0.125
   0.04990518  0.02881277  0.04457122       0.125
   0.00000000  0.05762554  0.04457122       0.125
   0.04990518  0.08643831  0.04457122       0.125
 
 k-points in reciprocal lattice and weights: read from INCAR                         
   0.00000000  0.00000000  0.00000000       0.125
   0.50000000 -0.00000000 -0.00000000       0.125
   0.00000000  0.50000000  0.00000000       0.125
   0.50000000  0.50000000 -0.00000000       0.125
   0.00000000  0.00000000  0.50000000       0.125
   0.50000000 -0.00000000  0.50000000       0.125
   0.00000000  0.50000000  0.50000000       0.125
   0.50000000  0.50000000  0.50000000       0.125
 
 position of ions in fractional coordinates (direct lattice) 
   0.36217981  0.65622909  0.26315920
   0.18304644  0.15213339  0.74940539
   0.17196958  0.84249590  0.75061416
   0.81623435  0.51004133  0.74851219
   0.16484196  0.95287186  0.24430646
   0.30830665  0.30045000  0.24836690
   0.00136976  0.32958251  0.73900247
   0.50448433  0.49831091  0.75007663
   0.65856384  0.44296060  0.25907826
   0.94461802  0.15497713  0.24962203
   0.52590226  0.01848183  0.26262613
   0.44597397  0.75424717  0.74455515
   0.81336127  0.94461857  0.74717772
   0.62507890  0.10928545  0.76219644
   0.81945418  0.80207834  0.25600819
   0.99225047  0.49073908  0.24876626
   0.66543632  0.31377912  0.98591647
   0.31880217  0.14644954  0.50067122
   0.15990042  0.32097425  0.99824386
   0.82415675  0.14868080  0.50325546
   0.15843544  0.81248321  0.00699110
   0.82257670  0.64454856  0.49221606
   0.65961508  0.81590847  0.00280269
   0.32183026  0.66096262  0.50334371
   0.00826791  0.99398867  0.00191007
   0.33898272  0.15621477  0.99851805
   0.99877669  0.98757616  0.50363967
   0.65431725  0.31574300  0.49991975
   0.49463665  0.97855079  0.00199728
   0.83665509  0.15587132  0.00153321
   0.48915484  0.98581144  0.50708057
   0.16316694  0.32518667  0.50065072
   0.49618898  0.49313054  0.99956242
   0.82979172  0.65761918  0.99915390
   0.49252815  0.49628496  0.49401496
   0.15893564  0.82141056  0.49647440
   0.99419683  0.49122429  0.99213771
   0.32673350  0.64931189  0.99601899
   0.99579524  0.49056044  0.50053751
   0.66236002  0.81924844  0.50298893
   0.16449604  0.15075532  0.08781298
   0.33752235  0.99926668  0.10212515
   0.48521915  0.32870759  0.09501515
   0.14948371  0.97082090  0.59223745
   0.33108219  0.33780667  0.58690674
   0.51177247  0.15822705  0.59575145
   0.18178238  0.00373842  0.90962735
   0.34864238  0.32517976  0.91166871
   0.49460717  0.15170960  0.90773753
   0.13852925  0.14574421  0.40488143
   0.32857696  0.97545514  0.40753965
   0.49555983  0.32118055  0.40786770
   0.66903816  0.14058557  0.08937957
   0.84341707  0.99854190  0.09358531
   0.99504923  0.32485245  0.08717561
   0.65916754  0.98045704  0.60824120
   0.82994550  0.34069947  0.59335084
   0.01200479  0.15793892  0.59652877
   0.65585462  0.98545312  0.90444818
   0.84112313  0.31773684  0.89656798
   0.99495237  0.15268347  0.91004632
   0.65150796  0.15839071  0.41257174
   0.83404579  0.97814049  0.40936351
   0.99904395  0.31923972  0.40556515
   0.66563947  0.64974984  0.09618292
   0.83692367  0.50093189  0.08398680
   0.98727969  0.81927841  0.10110269
   0.64703454  0.47447831  0.58642626
   0.82705547  0.82479663  0.59102512
   0.99953682  0.65201107  0.59108573
   0.65942754  0.50594761  0.90494737
   0.84617778  0.83028950  0.91470847
   0.98847366  0.64230116  0.90323584
   0.64969372  0.65824961  0.40487162
   0.82456058  0.47860314  0.39969601
   0.00264020  0.83070210  0.40602245
   0.15823242  0.63426701  0.08876698
   0.33748110  0.49121392  0.09190051
   0.49028073  0.82102677  0.09745141
   0.13801699  0.46379684  0.58761988
   0.32344993  0.82914160  0.59302458
   0.50082325  0.65518278  0.58264038
   0.16879513  0.50667600  0.90472452
   0.34800159  0.82363029  0.91040289
   0.48735063  0.64880248  0.90443926
   0.15426245  0.66027457  0.41052682
   0.31525759  0.48520588  0.40226777
   0.51556689  0.84421413  0.41643785
 
 position of ions in cartesian coordinates  (Angst):
   0.34129992  5.69390857  2.95212000
   1.07183005  1.32001713  8.40683000
  -2.49752003  7.31009143  8.42039000
   5.62279995  4.42548000  8.39681000
  -3.12186003  8.26779143  2.74063000
   1.58382005  2.60691713  2.78618000
  -1.63732003  2.85969143  8.29013000
   2.55814003  4.32369857  8.41436000
   4.37914000  3.84344000  2.90634000
   8.68777008  1.34469143  2.80026000
   5.17643008  0.16036143  2.94614000
   0.68981200  6.54438287  8.35242000
   3.41699989  8.19618000  8.38184000
   5.71520011  0.94823800  8.55032000
   4.19210000  6.95940000  2.87190000
   7.48300005  4.25800000  2.79066000
   5.09513000  2.72257000 11.06001141
   2.46044000  1.27070000  5.61653000
  -0.00587815  2.78500000 11.19830000
   7.51241000  1.29006000  5.64552000
  -2.48277000  7.04968000  0.07842620
   5.01253000  5.59256000  5.52168000
   2.52139000  7.07940000  0.03144060
  -0.08667490  5.73498000  5.64651000
  -4.89655005  8.62455000  0.02142720
   2.61371000  1.35543000 11.20137591
   5.05948093  8.56891057  5.64983000
   4.97389000  2.73961000  5.60810000
   0.05371440  8.49060000  0.02240550
   7.60161000  1.35245000  0.01719959
  -0.03758003  8.55359857  5.68843000
   0.00574697  2.82155000  5.61630000
   2.50098000  4.27875000 11.21309160
   5.01934000  5.70597000 11.20850889
   2.44850000  4.30612000  5.54186000
  -2.52248000  7.12714000  5.56945000
   7.50007005  4.26221000 11.12980121
   0.02081500  5.63389000 11.17334141
   7.51941005  4.25645000  5.61503000
   2.53216000  7.10838000  5.64253000
   0.89287700  1.30806000  0.98508600
  -1.62419003  8.67034572  1.14564000
   3.21475000  2.85210000  1.06588000
  -3.36565000  8.42353000  6.64372000
   1.62487000  2.93105000  6.58392000
   4.33481000  1.37289000  6.68314000
   1.80255000  0.03243720 10.20420000
   1.86406000  2.82149000 10.22710000
   4.19548000  1.31634000 10.18300000
   0.65781900  1.26458000  4.54196000
  -1.59453000  8.46374000  4.57178000
   3.35606000  2.78679000  4.57546000
   5.99883000  1.21982000  1.00266000
   3.44799997  8.66405707  1.04984000
   8.34205000  2.81865000  0.97793600
   1.69260000  8.50714000  6.82325000
   6.60849000  2.95615000  6.65621000
  -0.67091900  1.37039000  6.69186000
   1.63437997  8.55048957 10.14610000
   6.83551000  2.75691000 10.05770000
   9.20356000  1.32479000 10.20890000
   5.73400000  1.37431000  4.62823000
   3.45631000  8.48704000  4.59224000
   8.41019005  2.76995000  4.54963000
   3.41412000  5.63769000  1.07898000
   5.87572000  4.34644000  0.94216400
   5.78738000  7.10864000  1.13417000
   4.10574000  4.11691000  6.57853000
   4.15445000  7.15652000  6.63012000
   6.74811005  5.65731000  6.63080000
   4.07226000  4.38996000 10.15170000
   4.31852000  7.20418000 10.26120000
   6.68591000  5.57306000 10.13250000
   3.21178000  5.71144000  4.54185000
   5.86371000  4.15270000  4.48379000
  -4.13495000  7.20776000  4.55476000
  -1.59203000  5.50335000  0.99578800
   0.92048700  4.26212000  1.03094000
   0.79918900  7.12381000  1.09321000
  -0.94059800  4.02423000  6.59192000
  -0.91294000  7.19422000  6.65255000
   1.73561000  5.68483000  6.53606000
  -0.84703500  4.39628000 10.14920000
  -0.63934800  7.14640000 10.21290000
   1.63259000  5.62947000 10.14600000
  -1.76209000  5.72901000  4.60529000
   0.72792700  4.20999000  4.51264000
   0.93637400  7.32500000  4.67160000
 


--------------------------------------------------------------------------------------------------------


 k-point  1 :   0.0000 0.0000 0.0000  plane waves:   17725
 k-point  2 :   0.5000-0.0000-0.0000  plane waves:   17736
 k-point  3 :   0.0000 0.5000 0.0000  plane waves:   17736
 k-point  4 :   0.5000 0.5000-0.0000  plane waves:   17736
 k-point  5 :   0.0000 0.0000 0.5000  plane waves:   17676
 k-point  6 :   0.5000-0.0000 0.5000  plane waves:   17700
 k-point  7 :   0.0000 0.5000 0.5000  plane waves:   17700
 k-point  8 :   0.5000 0.5000 0.5000  plane waves:   17700

 maximum and minimum number of plane-waves per node :     17736    17676

 maximum number of plane-waves:     17736
 maximum index in each direction: 
   IXMAX=   16   IYMAX=   16   IZMAX=   18
   IXMIN=  -16   IYMIN=  -16   IZMIN=  -18


 serial   3D FFT for wavefunctions
 parallel 3D FFT for charge:
    minimum data exchange during FFTs selected (reduces bandwidth)


 total amount of memory used by VASP MPI-rank0    88178. kBytes
=======================================================================

   base      :      30000. kBytes
   nonlr-proj:      13669. kBytes
   fftplans  :        992. kBytes
   grid      :      21513. kBytes
   one-center:       2737. kBytes
   wavefun   :      19267. kBytes
 
     INWAV:  cpu time    0.0000: real time    0.0000
 Broyden mixing: mesh for mixing (old mesh)
   NGX = 33   NGY = 33   NGZ = 37
  (NGX  =100   NGY  =100   NGZ  =112)
  gives a total of  40293 points

 initial charge density was supplied:
 charge density of overlapping atoms calculated
 number of electron     672.0000000 magnetization      48.0000000
 keeping initial charge density in first step


--------------------------------------------------------------------------------------------------------


 Maximum index for non-local projection operator         1547
 Maximum index for augmentation-charges          287 (set IRDMAX)


--------------------------------------------------------------------------------------------------------


 First call to EWALD:  gamma=   0.179
 Maximum number of real-space cells 3x 3x 2
 Maximum number of reciprocal cells 3x 3x 3

    FEWALD:  cpu time    0.0024: real time    0.0029


--------------------------------------- Iteration      1(   1)  ---------------------------------------


    POTLOK:  cpu time    0.2020: real time    0.2032
    SETDIJ:  cpu time    3.1370: real time    3.1381
    EDDIAG:  cpu time    3.7093: real time    3.7134
  RMM-DIIS:  cpu time    6.6005: real time    6.6052
    ORTHCH:  cpu time    1.1612: real time    1.2237
       DOS:  cpu time    0.0025: real time    0.0025
    --------------------------------------------
      LOOP:  cpu time   14.8123: real time   14.8861

 eigenvalue-minimisations  :  7168
 total energy-change (2. order) : 0.1725153E+04  (-0.3600733E+05)
 number of electron     672.0000000 magnetization      48.0000000
 augmentation part      672.0000000 magnetization      48.0000000

 Free energy of the ion-electron system (eV)
  ---------------------------------------------------
  alpha Z        PSCENC =      2652.81237852
  Ewald energy   TEWEN  =    -41829.15546852
  -Hartree energ DENC   =    -25781.61773800
  -exchange      EXHF   =         0.00000000
  -V(xc)+E(xc)   XCENC  =      3606.24967942
  PAW double counting   =     55594.23204139   -59034.67079123
  entropy T*S    EENTRO =        -0.05602013
  eigenvalues    EBANDS =     -7344.83891216
  atomic energy  EATOM  =     73862.19814772
  Solvation  Ediel_sol  =         0.00000000
  ---------------------------------------------------
  free energy    TOTEN  =      1725.15331701 eV

  energy without entropy =     1725.20933714  energy(sigma->0) =     1725.18132707


--------------------------------------------------------------------------------------------------------




--------------------------------------- Iteration      1(   2)  ---------------------------------------


    EDDIAG:  cpu time    3.7575: real time    3.7616
  RMM-DIIS:  cpu time    6.6711: real time    6.6737
    ORTHCH:  cpu time    1.1440: real time    1.1464
       DOS:  cpu time    0.0015: real time    0.0015
    --------------------------------------------
      LOOP:  cpu time   11.5742: real time   11.5833

 eigenvalue-minimisations  :  7168
 total energy-change (2. order) :-0.2556375E+04  (-0.8656774E+04)
 number of electron     672.0000000 magnetization      48.0000000
 augmentation part      672.0000000 magnetization      48.0000000

 Free energy of the ion-electron system (eV)
  ---------------------------------------------------
  alpha Z        PSCENC =      2652.81237852
  Ewald energy   TEWEN  =    -41829.15546852
  -Hartree energ DENC   =    -25781.61773800
  -exchange      EXHF   =         0.00000000
  -V(xc)+E(xc)   XCENC  =      3606.24967942
  PAW double counting   =     55594.23204139   -59034.67079123
  entropy T*S    EENTRO =        -0.04329188
  eigenvalues    EBANDS =     -9901.22658129
  atomic energy  EATOM  =     73862.19814772
  Solvation  Ediel_sol  =         0.00000000
  ---------------------------------------------------
  free energy    TOTEN  =      -831.22162388 eV

  energy without entropy =     -831.17833200  energy(sigma->0) =     -831.19997794


--------------------------------------------------------------------------------------------------------




--------------------------------------- Iteration      1(   3)  ---------------------------------------


    EDDIAG:  cpu time    3.8088: real time    3.8138
  RMM-DIIS:  cpu time    6.6059: real time    6.6098
    ORTHCH:  cpu time    1.1561: real time    1.1583
       DOS:  cpu time    0.0014: real time    0.0014
    --------------------------------------------
      LOOP:  cpu time   11.5722: real time   11.5834

 eigenvalue-minimisations  :  7168
 total energy-change (2. order) : 0.2972723E+03  (-0.1557526E+04)
 number of electron     672.0000000 magnetization      48.0000000
 augmentation part      672.0000000 magnetization      48.0000000

 Free energy of the ion-electron system (eV)
  ---------------------------------------------------
  alpha Z        PSCENC =      2652.81237852
  Ewald energy   TEWEN  =    -41829.15546852
  -Hartree energ DENC   =    -25781.61773800
  -exchange      EXHF   =         0.00000000
  -V(xc)+E(xc)   XCENC  =      3606.24967942
  PAW double counting   =     55594.23204139   -59034.67079123
  entropy T*S    EENTRO =        -0.03913727
  eigenvalues    EBANDS =     -9603.95841844
  atomic energy  EATOM  =     73862.19814772
  Solvation  Ediel_sol  =         0.00000000
  ---------------------------------------------------
  free energy    TOTEN  =      -533.94930641 eV

  energy without entropy =     -533.91016914  energy(sigma->0) =     -533.92973778


--------------------------------------------------------------------------------------------------------




--------------------------------------- Iteration      1(   4)  ---------------------------------------


    EDDIAG:  cpu time    3.7180: real time    3.7225
  RMM-DIIS:  cpu time    6.6055: real time    6.6195
    ORTHCH:  cpu time    1.1456: real time    1.1485
       DOS:  cpu time    0.0015: real time    0.0015
    --------------------------------------------
      LOOP:  cpu time   11.4706: real time   11.4920

 eigenvalue-minimisations  :  7168
 total energy-change (2. order) :-0.5235276E+03  (-0.5056655E+03)
 number of electron     672.0000000 magnetization      48.0000000
 augmentation part      672.0000000 magnetization      48.0000000

 Free energy of the ion-electron system (eV)
  ---------------------------------------------------
  alpha Z        PSCENC =      2652.81237852
  Ewald energy   TEWEN  =    -41829.15546852
  -Hartree energ DENC   =    -25781.61773800
  -exchange      EXHF   =         0.00000000
  -V(xc)+E(xc)   XCENC  =      3606.24967942
  PAW double counting   =     55594.23204139   -59034.67079123
  entropy T*S    EENTRO =        -0.00430391
  eigenvalues    EBANDS =    -10127.52083361
  atomic energy  EATOM  =     73862.19814772
  Solvation  Ediel_sol  =         0.00000000
  ---------------------------------------------------
  free energy    TOTEN  =     -1057.47688823 eV

  energy without entropy =    -1057.47258432  energy(sigma->0) =    -1057.47473628


--------------------------------------------------------------------------------------------------------




--------------------------------------- Iteration      1(   5)  ---------------------------------------


    EDDIAG:  cpu time    3.7334: real time    3.7360
  RMM-DIIS:  cpu time    6.5963: real time    6.6024
    ORTHCH:  cpu time    1.1489: real time    1.1512
       DOS:  cpu time    0.0010: real time    0.0010
    --------------------------------------------
      LOOP:  cpu time   11.4796: real time   11.4905

 eigenvalue-minimisations  :  7168
 total energy-change (2. order) :-0.1477650E+03  (-0.2122857E+03)
 number of electron     672.0000000 magnetization      48.0000000
 augmentation part      672.0000000 magnetization      48.0000000

 Free energy of the ion-electron system (eV)
  ---------------------------------------------------
  alpha Z        PSCENC =      2652.81237852
  Ewald energy   TEWEN  =    -41829.15546852
  -Hartree energ DENC   =    -25781.61773800
  -exchange      EXHF   =         0.00000000
  -V(xc)+E(xc)   XCENC  =      3606.24967942
  PAW double counting   =     55594.23204139   -59034.67079123
  entropy T*S    EENTRO =        -0.00000000
  eigenvalues    EBANDS =    -10275.29017089
  atomic energy  EATOM  =     73862.19814772
  Solvation  Ediel_sol  =         0.00000000
  ---------------------------------------------------
  free energy    TOTEN  =     -1205.24192160 eV

  energy without entropy =    -1205.24192160  energy(sigma->0) =    -1205.24192160


--------------------------------------------------------------------------------------------------------




--------------------------------------- Iteration      1(   6)  ---------------------------------------


    EDDIAG:  cpu time    3.7229: real time    3.7257
  RMM-DIIS:  cpu time    6.6151: real time    6.6194
    ORTHCH:  cpu time    1.1587: real time    1.1611
       DOS:  cpu time    0.0012: real time    0.0012
    --------------------------------------------
      LOOP:  cpu time   11.4978: real time   11.5073

 eigenvalue-minimisations  :  7168
 total energy-change (2. order) :-0.2187414E+02  (-0.1148344E+03)
 number of electron     672.0000000 magnetization      48.0000000
 augmentation part      672.0000000 magnetization      48.0000000

 Free energy of the ion-electron system (eV)
  ---------------------------------------------------
  alpha Z        PSCENC =      2652.81237852
  Ewald energy   TEWEN  =    -41829.15546852
  -Hartree energ DENC   =    -25781.61773800
  -exchange      EXHF   =         0.00000000
  -V(xc)+E(xc)   XCENC  =      3606.24967942
  PAW double counting   =     55594.23204139   -59034.67079123
  entropy T*S    EENTRO =        -0.00000000
  eigenvalues    EBANDS =    -10297.16430973
  atomic energy  EATOM  =     73862.19814772
  Solvation  Ediel_sol  =         0.00000000
  ---------------------------------------------------
  free energy    TOTEN  =     -1227.11606043 eV

  energy without entropy =    -1227.11606043  energy(sigma->0) =    -1227.11606043


--------------------------------------------------------------------------------------------------------




--------------------------------------- Iteration      1(   7)  ---------------------------------------


    EDDIAG:  cpu time    3.7497: real time    3.7763
  RMM-DIIS:  cpu time    6.5951: real time    6.5986
    ORTHCH:  cpu time    1.1534: real time    1.1556
       DOS:  cpu time    0.0010: real time    0.0010
    --------------------------------------------
      LOOP:  cpu time   11.4992: real time   11.5314

 eigenvalue-minimisations  :  7168
 total energy-change (2. order) :-0.6705222E+01  (-0.7570624E+02)
 number of electron     672.0000000 magnetization      48.0000000
 augmentation part      672.0000000 magnetization      48.0000000

 Free energy of the ion-electron system (eV)
  ---------------------------------------------------
  alpha Z        PSCENC =      2652.81237852
  Ewald energy   TEWEN  =    -41829.15546852
  -Hartree energ DENC   =    -25781.61773800
  -exchange      EXHF   =         0.00000000
  -V(xc)+E(xc)   XCENC  =      3606.24967942
  PAW double counting   =     55594.23204139   -59034.67079123
  entropy T*S    EENTRO =        -0.00000000
  eigenvalues    EBANDS =    -10303.86953205
  atomic energy  EATOM  =     73862.19814772
  Solvation  Ediel_sol  =         0.00000000
  ---------------------------------------------------
  free energy    TOTEN  =     -1233.82128276 eV

  energy without entropy =    -1233.82128276  energy(sigma->0) =    -1233.82128276


--------------------------------------------------------------------------------------------------------




--------------------------------------- Iteration      1(   8)  ---------------------------------------


    EDDIAG:  cpu time    3.7163: real time    3.7195
  RMM-DIIS:  cpu time    6.5965: real time    6.6019
    ORTHCH:  cpu time    1.1514: real time    1.1536
       DOS:  cpu time    0.0011: real time    0.0011
    --------------------------------------------
      LOOP:  cpu time   11.4653: real time   11.4761

 eigenvalue-minimisations  :  7168
 total energy-change (2. order) : 0.4618290E+01  (-0.5227129E+02)
 number of electron     672.0000000 magnetization      48.0000000
 augmentation part      672.0000000 magnetization      48.0000000

 Free energy of the ion-electron system (eV)
  ---------------------------------------------------
  alpha Z        PSCENC =      2652.81237852
  Ewald energy   TEWEN  =    -41829.15546852
  -Hartree energ DENC   =    -25781.61773800
  -exchange      EXHF   =         0.00000000
  -V(xc)+E(xc)   XCENC  =      3606.24967942
  PAW double counting   =     55594.23204139   -59034.67079123
  entropy T*S    EENTRO =        -0.00000000
  eigenvalues    EBANDS =    -10299.25124202
  atomic energy  EATOM  =     73862.19814772
  Solvation  Ediel_sol  =         0.00000000
  ---------------------------------------------------
  free energy    TOTEN  =     -1229.20299273 eV

  energy without entropy =    -1229.20299273  energy(sigma->0) =    -1229.20299273


--------------------------------------------------------------------------------------------------------




--------------------------------------- Iteration      1(   9)  ---------------------------------------


    EDDIAG:  cpu time    3.7277: real time    3.7310
  RMM-DIIS:  cpu time   13.7864: real time   13.8246
    ORTHCH:  cpu time    1.1616: real time    1.1638
       DOS:  cpu time    0.0010: real time    0.0010
    --------------------------------------------
      LOOP:  cpu time   18.6768: real time   18.7204

 eigenvalue-minimisations  : 20265
 total energy-change (2. order) : 0.1785082E+02  (-0.2339047E+02)
 number of electron     672.0000000 magnetization      48.0000000
 augmentation part      672.0000000 magnetization      48.0000000

 Free energy of the ion-electron system (eV)
  ---------------------------------------------------
  alpha Z        PSCENC =      2652.81237852
  Ewald energy   TEWEN  =    -41829.15546852
  -Hartree energ DENC   =    -25781.61773800
  -exchange      EXHF   =         0.00000000
  -V(xc)+E(xc)   XCENC  =      3606.24967942
  PAW double counting   =     55594.23204139   -59034.67079123
  entropy T*S    EENTRO =        -0.00000000
  eigenvalues    EBANDS =    -10281.40041761
  atomic energy  EATOM  =     73862.19814772
  Solvation  Ediel_sol  =         0.00000000
  ---------------------------------------------------
  free energy    TOTEN  =     -1211.35216831 eV

  energy without entropy =    -1211.35216831  energy(sigma->0) =    -1211.35216831


--------------------------------------------------------------------------------------------------------




--------------------------------------- Iteration      1(  10)  ---------------------------------------


    EDDIAG:  cpu time    3.7335: real time    3.7372
  RMM-DIIS:  cpu time   15.6542: real time   15.6647
    ORTHCH:  cpu time    1.1686: real time    1.2320
       DOS:  cpu time    0.0011: real time    0.0011
    --------------------------------------------
      LOOP:  cpu time   20.5574: real time   20.6350

 eigenvalue-minimisations  : 20264
 total energy-change (2. order) :-0.3045396E+01  (-0.1030570E+01)
 number of electron     672.0000000 magnetization      48.0000000
 augmentation part      672.0000000 magnetization      48.0000000

 Free energy of the ion-electron system (eV)
  ---------------------------------------------------
  alpha Z        PSCENC =      2652.81237852
  Ewald energy   TEWEN  =    -41829.15546852
  -Hartree energ DENC   =    -25781.61773800
  -exchange      EXHF   =         0.00000000
  -V(xc)+E(xc)   XCENC  =      3606.24967942
  PAW double counting   =     55594.23204139   -59034.67079123
  entropy T*S    EENTRO =        -0.00000007
  eigenvalues    EBANDS =    -10284.44581393
  atomic energy  EATOM  =     73862.19814772
  Solvation  Ediel_sol  =         0.00000000
  ---------------------------------------------------
  free energy    TOTEN  =     -1214.39756470 eV

  energy without entropy =    -1214.39756463  energy(sigma->0) =    -1214.39756467


--------------------------------------------------------------------------------------------------------




--------------------------------------- Iteration      1(  11)  ---------------------------------------


    EDDIAG:  cpu time    3.7491: real time    3.7534
  RMM-DIIS:  cpu time   15.1277: real time   15.1364
    ORTHCH:  cpu time    1.1553: real time    1.1575
       DOS:  cpu time    0.0014: real time    0.0014
    --------------------------------------------
      LOOP:  cpu time   20.0334: real time   20.0486

 eigenvalue-minimisations  : 21622
 total energy-change (2. order) : 0.1038609E+00  (-0.1039016E+00)
 number of electron     672.0000000 magnetization      48.0000000
 augmentation part      672.0000000 magnetization      48.0000000

 Free energy of the ion-electron system (eV)
  ---------------------------------------------------
  alpha Z        PSCENC =      2652.81237852
  Ewald energy   TEWEN  =    -41829.15546852
  -Hartree energ DENC   =    -25781.61773800
  -exchange      EXHF   =         0.00000000
  -V(xc)+E(xc)   XCENC  =      3606.24967942
  PAW double counting   =     55594.23204139   -59034.67079123
  entropy T*S    EENTRO =        -0.00000007
  eigenvalues    EBANDS =    -10284.34195308
  atomic energy  EATOM  =     73862.19814772
  Solvation  Ediel_sol  =         0.00000000
  ---------------------------------------------------
  free energy    TOTEN  =     -1214.29370385 eV

  energy without entropy =    -1214.29370378  energy(sigma->0) =    -1214.29370381


--------------------------------------------------------------------------------------------------------




--------------------------------------- Iteration      1(  12)  ---------------------------------------


    EDDIAG:  cpu time    3.7231: real time    3.7260
  RMM-DIIS:  cpu time   15.9805: real time   16.0125
    ORTHCH:  cpu time    1.1485: real time    1.1508
       DOS:  cpu time    0.0011: real time    0.0011
    CHARGE:  cpu time    1.3543: real time    1.3552
    MIXING:  cpu time    0.0013: real time    0.0015
    --------------------------------------------
      LOOP:  cpu time   22.2089: real time   22.2471

 eigenvalue-minimisations  : 22930
 total energy-change (2. order) : 0.6648958E-02  (-0.6866169E-02)
 number of electron     671.9999862 magnetization      47.9999971
 augmentation part      239.0948835 magnetization      29.0540939

 Broyden mixing:
  rms(total) = 0.12578E+02    rms(broyden)= 0.12569E+02
  rms(prec ) = 0.14426E+02
  weight for this iteration     100.00

 Free energy of the ion-electron system (eV)
  ---------------------------------------------------
  alpha Z        PSCENC =      2652.81237852
  Ewald energy   TEWEN  =    -41829.15546852
  -Hartree energ DENC   =    -25781.61773800
  -exchange      EXHF   =         0.00000000
  -V(xc)+E(xc)   XCENC  =      3606.24967942
  PAW double counting   =     55594.23204139   -59034.67079123
  entropy T*S    EENTRO =        -0.00000006
  eigenvalues    EBANDS =    -10284.33530412
  atomic energy  EATOM  =     73862.19814772
  Solvation  Ediel_sol  =         0.00000000
  ---------------------------------------------------
  free energy    TOTEN  =     -1214.28705489 eV

  energy without entropy =    -1214.28705483  energy(sigma->0) =    -1214.28705486


--------------------------------------------------------------------------------------------------------




--------------------------------------- Iteration      1(  13)  ---------------------------------------


    POTLOK:  cpu time    0.1965: real time    0.1975
    SETDIJ:  cpu time    3.2968: real time    3.2993
    EDDIAG:  cpu time    3.7436: real time    3.7459
  RMM-DIIS:  cpu time   13.0088: real time   13.0412
    ORTHCH:  cpu time    1.1644: real time    1.1674
       DOS:  cpu time    0.0016: real time    0.0016
    CHARGE:  cpu time    1.3598: real time    1.3601
    MIXING:  cpu time    0.0008: real time    0.0009
    --------------------------------------------
      LOOP:  cpu time   22.7723: real time   22.8139

 eigenvalue-minimisations  : 17305
 total energy-change (2. order) : 0.2257264E+03  (-0.1378994E+03)
 number of electron     671.9999933 magnetization      47.9999963
 augmentation part      268.7663701 magnetization      26.7291238

 Broyden mixing:
  rms(total) = 0.13846E+02    rms(broyden)= 0.13843E+02
  rms(prec ) = 0.15540E+02
  weight for this iteration     100.00

 eigenvalues of (default mixing * dielectric matrix)
  average eigenvalue GAMMA=   0.3191
  0.3191

 Free energy of the ion-electron system (eV)
  ---------------------------------------------------
  alpha Z        PSCENC =      2652.81237852
  Ewald energy   TEWEN  =    -41829.15546852
  -Hartree energ DENC   =    -25113.71062259
  -exchange      EXHF   =         0.00000000
  -V(xc)+E(xc)   XCENC  =      3696.57842361
  PAW double counting   =     59918.02014340   -63343.43792653
  entropy T*S    EENTRO =        -0.07535363
  eigenvalues    EBANDS =    -10831.79037699
  atomic energy  EATOM  =     73862.19814772
  Solvation  Ediel_sol  =         0.00000000
  ---------------------------------------------------
  free energy    TOTEN  =      -988.56065500 eV

  energy without entropy =     -988.48530137  energy(sigma->0) =     -988.52297819


--------------------------------------------------------------------------------------------------------




--------------------------------------- Iteration      1(  14)  ---------------------------------------


    POTLOK:  cpu time    0.2079: real time    0.2080
    SETDIJ:  cpu time    3.2954: real time    3.2963
    EDDIAG:  cpu time    3.7658: real time    3.7680
  RMM-DIIS:  cpu time   13.6434: real time   13.6531
    ORTHCH:  cpu time    1.1665: real time    1.1693
       DOS:  cpu time    0.0011: real time    0.0011
    CHARGE:  cpu time    1.3580: real time    1.3590
    MIXING:  cpu time    0.0009: real time    0.0009
    --------------------------------------------
      LOOP:  cpu time   23.4390: real time   23.4555

 eigenvalue-minimisations  : 17747
 total energy-change (2. order) : 0.7387572E+02  (-0.1850322E+02)
 number of electron     671.9999886 magnetization      47.9999941
 augmentation part      246.6943008 magnetization      32.2444058

 Broyden mixing:
  rms(total) = 0.52544E+01    rms(broyden)= 0.52503E+01
  rms(prec ) = 0.56586E+01
  weight for this iteration     100.00

 eigenvalues of (default mixing * dielectric matrix)
  average eigenvalue GAMMA=   0.7318
  1.1030  0.3607

 Free energy of the ion-electron system (eV)
  ---------------------------------------------------
  alpha Z        PSCENC =      2652.81237852
  Ewald energy   TEWEN  =    -41829.15546852
  -Hartree energ DENC   =    -25721.34948236
  -exchange      EXHF   =         0.00000000
  -V(xc)+E(xc)   XCENC  =      3674.60057413
  PAW double counting   =     63345.12970384   -66827.69622713
  entropy T*S    EENTRO =        -0.00000000
  eigenvalues    EBANDS =    -10071.22455737
  atomic energy  EATOM  =     73862.19814772
  Solvation  Ediel_sol  =         0.00000000
  ---------------------------------------------------
  free energy    TOTEN  =      -914.68493117 eV

  energy without entropy =     -914.68493117  energy(sigma->0) =     -914.68493117


--------------------------------------------------------------------------------------------------------




--------------------------------------- Iteration      1(  15)  ---------------------------------------


    POTLOK:  cpu time    0.1972: real time    0.1985
    SETDIJ:  cpu time    3.2847: real time    3.3012
    EDDIAG:  cpu time    3.7510: real time    3.7548
  RMM-DIIS:  cpu time   13.6875: real time   13.6952
    ORTHCH:  cpu time    1.1653: real time    1.1675
       DOS:  cpu time    0.0010: real time    0.0010
    CHARGE:  cpu time    1.3530: real time    1.3534
    MIXING:  cpu time    0.0007: real time    0.0007
    --------------------------------------------
      LOOP:  cpu time   23.4402: real time   23.4723

 eigenvalue-minimisations  : 18431
 total energy-change (2. order) : 0.1331470E+02  (-0.1926310E+01)
 number of electron     671.9999895 magnetization      47.9999927
 augmentation part      249.6986437 magnetization      33.8285257

 Broyden mixing:
  rms(total) = 0.21123E+01    rms(broyden)= 0.21120E+01
  rms(prec ) = 0.21920E+01
  weight for this iteration     100.00

 eigenvalues of (default mixing * dielectric matrix)
  average eigenvalue GAMMA=   0.9666
  0.3865  0.7646  1.7487

 Free energy of the ion-electron system (eV)
  ---------------------------------------------------
  alpha Z        PSCENC =      2652.81237852
  Ewald energy   TEWEN  =    -41829.15546852
  -Hartree energ DENC   =    -25642.95216501
  -exchange      EXHF   =         0.00000000
  -V(xc)+E(xc)   XCENC  =      3706.91466355
  PAW double counting   =     67459.10057427   -70982.33564156
  entropy T*S    EENTRO =        -0.00000000
  eigenvalues    EBANDS =    -10127.95272213
  atomic energy  EATOM  =     73862.19814772
  Solvation  Ediel_sol  =         0.00000000
  ---------------------------------------------------
  free energy    TOTEN  =      -901.37023317 eV

  energy without entropy =     -901.37023317  energy(sigma->0) =     -901.37023317


--------------------------------------------------------------------------------------------------------




--------------------------------------- Iteration      1(  16)  ---------------------------------------


    POTLOK:  cpu time    0.2058: real time    0.2061
    SETDIJ:  cpu time    3.3352: real time    3.3365
    EDDIAG:  cpu time    3.7435: real time    3.7457
  RMM-DIIS:  cpu time   12.9421: real time   13.0328
    ORTHCH:  cpu time    1.2161: real time    1.2189
       DOS:  cpu time    0.0011: real time    0.0011
    CHARGE:  cpu time    1.3530: real time    1.3554
    MIXING:  cpu time    0.0010: real time    0.0010
    --------------------------------------------
      LOOP:  cpu time   22.7978: real time   22.8974

 eigenvalue-minimisations  : 17360
 total energy-change (2. order) :-0.1601647E+01  (-0.7034171E+00)
 number of electron     671.9999902 magnetization      47.9999925
 augmentation part      251.2438037 magnetization      33.9106932

 Broyden mixing:
  rms(total) = 0.13706E+01    rms(broyden)= 0.13700E+01
  rms(prec ) = 0.14666E+01
  weight for this iteration     100.00

 eigenvalues of (default mixing * dielectric matrix)
  average eigenvalue GAMMA=   0.9788
  2.0769  0.9079  0.3939  0.5366

 Free energy of the ion-electron system (eV)
  ---------------------------------------------------
  alpha Z        PSCENC =      2652.81237852
  Ewald energy   TEWEN  =    -41829.15546852
  -Hartree energ DENC   =    -25591.60076155
  -exchange      EXHF   =         0.00000000
  -V(xc)+E(xc)   XCENC  =      3708.25576274
  PAW double counting   =     70479.45324087   -74033.29853879
  entropy T*S    EENTRO =        -0.00000000
  eigenvalues    EBANDS =    -10151.63664147
  atomic energy  EATOM  =     73862.19814772
  Solvation  Ediel_sol  =         0.00000000
  ---------------------------------------------------
  free energy    TOTEN  =      -902.97188049 eV

  energy without entropy =     -902.97188049  energy(sigma->0) =     -902.97188049


--------------------------------------------------------------------------------------------------------




--------------------------------------- Iteration      1(  17)  ---------------------------------------


    POTLOK:  cpu time    0.2069: real time    0.2070
    SETDIJ:  cpu time    3.3443: real time    3.3451
    EDDIAG:  cpu time    3.7526: real time    3.7548
  RMM-DIIS:  cpu time   13.8423: real time   13.8684
    ORTHCH:  cpu time    1.1574: real time    1.1598
       DOS:  cpu time    0.0012: real time    0.0012
    CHARGE:  cpu time    1.3550: real time    1.3555
    MIXING:  cpu time    0.0015: real time    0.0015
    --------------------------------------------
      LOOP:  cpu time   23.6611: real time   23.6933

 eigenvalue-minimisations  : 18757
 total energy-change (2. order) : 0.2292509E+00  (-0.5880808E-01)
 number of electron     671.9999900 magnetization      47.9999923
 augmentation part      251.0773278 magnetization      33.9050359

 Broyden mixing:
  rms(total) = 0.73604E+00    rms(broyden)= 0.73596E+00
  rms(prec ) = 0.82715E+00
  weight for this iteration     100.00

 eigenvalues of (default mixing * dielectric matrix)
  average eigenvalue GAMMA=   1.0112
  2.2488  1.1435  0.3847  0.7089  0.5703

 Free energy of the ion-electron system (eV)
  ---------------------------------------------------
  alpha Z        PSCENC =      2652.81237852
  Ewald energy   TEWEN  =    -41829.15546852
  -Hartree energ DENC   =    -25585.76913963
  -exchange      EXHF   =         0.00000000
  -V(xc)+E(xc)   XCENC  =      3705.15320371
  PAW double counting   =     71260.69439655   -74822.17412559
  entropy T*S    EENTRO =        -0.00000000
  eigenvalues    EBANDS =    -10146.50202236
  atomic energy  EATOM  =     73862.19814772
  Solvation  Ediel_sol  =         0.00000000
  ---------------------------------------------------
  free energy    TOTEN  =      -902.74262960 eV

  energy without entropy =     -902.74262960  energy(sigma->0) =     -902.74262960


--------------------------------------------------------------------------------------------------------




--------------------------------------- Iteration      1(  18)  ---------------------------------------


    POTLOK:  cpu time    0.2023: real time    0.2024
    SETDIJ:  cpu time    3.3137: real time    3.3144
    EDDIAG:  cpu time    3.8074: real time    3.8120
  RMM-DIIS:  cpu time   13.1667: real time   13.1723
    ORTHCH:  cpu time    1.1850: real time    1.2004
       DOS:  cpu time    0.0010: real time    0.0010
    CHARGE:  cpu time    1.3578: real time    1.3584
    MIXING:  cpu time    0.0009: real time    0.0009
    --------------------------------------------
      LOOP:  cpu time   23.0347: real time   23.0618

 eigenvalue-minimisations  : 17477
 total energy-change (2. order) : 0.3744218E+00  (-0.7115923E-01)
 number of electron     671.9999898 magnetization      47.9999922
 augmentation part      250.5908134 magnetization      33.8681431

 Broyden mixing:
  rms(total) = 0.26198E+00    rms(broyden)= 0.26168E+00
  rms(prec ) = 0.27535E+00
  weight for this iteration     100.00

 eigenvalues of (default mixing * dielectric matrix)
  average eigenvalue GAMMA=   1.0224
  2.4784  1.3525  0.8524  0.3860  0.5887  0.4763

[...]
   4      -0.578    -0.900     1.478    -0.000     0.016     0.502
   5      -0.644    -0.873     1.517    -0.082    -0.007    -0.464
   6      -0.852    -0.599     1.451     0.093    -0.422     0.231
   7      -0.888    -0.818     1.706    -0.084    -0.448    -0.320
   8      -0.965    -0.931     1.895    -0.013     0.020    -0.002
   9      -0.645    -0.835     1.480    -0.088    -0.080    -0.438
  10      -0.718    -0.737     1.456    -0.155     0.381     0.167
  11      -1.003    -0.899     1.902    -0.037    -0.125     0.029
  12      -0.805    -0.597     1.403    -0.164    -0.389    -0.206
  13      -0.723    -0.856     1.579     0.091     0.035     0.420
  14      -0.839    -0.811     1.650     0.132     0.446    -0.295
  15      -0.794    -0.725     1.519     0.148    -0.437     0.253
  16      -0.972    -0.962     1.934    -0.004     0.047     0.056
  17       1.303     1.579    -2.881     0.221     0.094     0.064
  18       1.378     1.530    -2.908     0.049     0.011    -0.049
  19       1.459     1.657    -3.116     0.140     0.058    -0.083
  20       1.484     1.324    -2.808    -0.035     0.032    -0.040
  21       1.271     1.593    -2.864    -0.051    -0.039     0.055
  22       1.553     1.402    -2.955     0.000     0.009     0.049
  23       1.590     1.333    -2.923    -0.007    -0.012     0.041
  24       1.648     1.436    -3.084    -0.083     0.051     0.060
  25      -0.130    -2.039     2.169    -1.539    -0.514    -0.239
  26       0.705    -1.239     0.534    -0.201     0.768    -1.128
  27       0.586    -0.456    -0.130     0.379    -1.084     0.561
  28       0.328    -0.975     0.647     0.860     0.263    -0.011
  29       0.976    -0.948    -0.027    -0.565     0.730     0.287
  30      -1.346    -0.270     1.616    -1.193     0.424     1.055
  31       1.035    -1.336     0.301     0.007     0.177    -0.412
  32      -0.460     0.102     0.358     1.192     0.176     0.837
  33       0.997    -0.525    -0.472    -0.896     1.060     0.367
  34       0.186    -0.677     0.491     0.787    -0.397     0.468
  35      -0.176    -2.262     2.438     0.568     0.485     0.964
  36      -0.668     0.022     0.646     0.243     0.213    -0.407
  37      -0.857     0.637     0.220     0.302    -1.687    -0.021
  38      -0.063    -0.043     0.106    -1.538    -0.713     0.346
  39      -1.068    -0.500     1.568     0.968     0.019     0.290
  40      -1.429     0.158     1.270    -0.970     0.884    -0.471
  41      -2.099     0.109     1.990    -4.193     1.180    -5.319
  42      -1.366     1.806    -0.440     4.245     1.360     3.679
  43       7.211    -5.969    -1.243     1.934    -4.426     0.069
  44      -2.808     2.708     0.100     4.421    -1.626    -3.648
  45      -4.255     1.558     2.697    -3.825    -1.912     5.293
  46       8.447    -7.998    -0.449    -1.789     4.429     0.639
  47      -3.825     2.377     1.448    -4.809     2.442    -4.040
  48       4.666    -6.476     1.810     1.522    -4.774    -1.559
  49      -3.557     0.974     2.583     3.317     4.345     3.056
  50       6.585    -5.092    -1.493    -0.919     2.271     1.929
  51      -3.399     2.595     0.805    -4.885    -3.460     3.820
  52      -1.765     0.361     1.403     5.012    -2.919    -3.496
  53      -4.899     2.247     2.652    -5.412     3.774    -3.718
  54      -3.693     1.177     2.516     4.822     3.312     5.042
  55       3.671    -6.061     2.390    -1.747    -4.955    -1.853
  56      -2.443     1.956     0.487     3.355    -1.861    -4.129
  57      -2.328     2.281     0.047    -5.562    -0.821     3.737
  58       4.627    -5.203     0.575     0.162     4.089    -0.132
  59      -2.290     3.104    -0.813    -4.473     3.268    -3.266
  60       4.522    -4.697     0.175     0.838    -3.068     0.440
  61      -2.394     1.466     0.928     4.313     1.454     3.197
  62       5.466    -5.881     0.415     0.521     6.712     0.208
  63      -2.572     2.914    -0.342    -5.139    -2.791     4.821
  64      -2.136     1.935     0.202     3.304    -3.262    -4.781
  65      -4.468     4.178     0.290    -4.160     3.551    -3.181
  66      -3.525     3.021     0.504     5.435     2.988     4.164
  67       5.716    -5.679    -0.037    -0.191    -4.650     0.923
  68      -2.769     1.508     1.261     4.891    -4.368    -3.060
  69      -3.911     2.189     1.722    -6.007    -3.724     2.943
  70       5.047    -6.310     1.263     2.096     6.373     0.286
  71      -2.079     1.666     0.413    -5.145     1.401    -4.071
  72       4.784    -6.916     2.132    -1.384    -5.749     0.430
  73      -2.125     0.982     1.143     5.495     1.316     5.495
  74       4.547    -6.390     1.843    -0.486     5.969    -0.395
  75      -0.925     1.339    -0.414    -4.299    -2.370     1.654
  76      -3.748     2.540     1.208     4.759    -2.535    -4.287
  77      -3.525     4.337    -0.812    -4.579     0.946    -4.182
  78      -4.441     4.222     0.219     4.038     1.374     4.072
  79       5.287    -4.757    -0.530     1.560    -5.280     2.246
  80      -4.916     4.147     0.769     6.794    -1.279    -3.673
  81      -1.873     0.633     1.240    -4.285    -1.914     3.426
  82       3.537    -5.637     2.100    -0.569     5.195    -1.675
  83      -4.320     2.884     1.436    -6.071     1.646    -6.252
  84       6.400    -6.683     0.282    -0.380    -4.523    -1.390
  85      -4.003     2.595     1.409     3.364     2.577     3.788
  86       4.219    -6.775     2.556     1.427     4.984     0.350
  87      -2.817     1.785     1.032    -4.667    -2.216     3.959
  88      -4.674     4.419     0.256     5.629    -0.475    -2.853
 ---------------------------------------------------------------------


 Total hyperfine coupling parameters after diagonalization (MHz)
 (convention: |A_zz| > |A_xx| > |A_yy|)
 ----------------------------------------------------------------------
  ion      A_xx      A_yy      A_zz     asymmetry (A_yy - A_xx)/ A_zz 
 ----------------------------------------------------------------------
   1       1.159     0.949     3.002      -0.070
   2       2.349     2.067     4.668      -0.060
   3       1.305     1.184     3.297      -0.037
   4       2.206     1.782     4.364      -0.097
   5       1.708     1.352     3.936      -0.090
   6       1.778     1.373     3.896      -0.104
   7       2.858     2.567     5.436      -0.054
   8       0.634     0.591     3.456      -0.012
   9       1.361     1.025     3.537      -0.095
  10       1.831     1.468     3.943      -0.092
  11       0.096    -0.034     2.892      -0.045
  12       2.272     1.802     4.264      -0.110
  13       1.662     1.399     4.006      -0.066
  14       1.455     1.088     3.905      -0.094
  15       2.315     1.913     4.545      -0.089
  16      -0.210    -0.197     2.700       0.005
  17      13.383     9.318    13.906      -0.292
  18      14.232     9.959    14.413      -0.296
  19      15.750    11.244    16.092      -0.280
  20      12.747     8.621    12.923      -0.319
  21      13.799     9.670    14.136      -0.292
  22      14.154     9.796    14.305      -0.305
  23      13.442     9.184    13.698      -0.311
  24      16.906    12.411    17.173      -0.262
  25      98.859    95.265   100.483      -0.036
  26      94.708    92.810    96.306      -0.020
  27      95.432    94.004    96.774      -0.015
  28      93.678    91.797    94.148      -0.020
  29      94.799    93.620    96.339      -0.012
  30      95.489    92.894    97.329      -0.027
  31      99.352    97.561   100.075      -0.018
  32      95.425    93.993    97.042      -0.015
  33      94.751    93.288    96.629      -0.015
  34      99.331    97.417    99.531      -0.019
  35     100.850    98.506   103.798      -0.023
  36      97.185    96.390    98.065      -0.008
  37      99.583    96.863   100.468      -0.027
  38      98.465    97.011   100.462      -0.014
  39      99.292    97.310   100.728      -0.020
  40      96.729    94.595    98.479      -0.022
  41       7.079     2.372    16.462      -0.286
  42       4.313     1.752    13.196      -0.194
  43       2.896    -0.551    15.132      -0.228
  44       7.093     3.857    16.497      -0.196
  45       5.839     2.083    17.001      -0.221
  46       9.154     2.798    21.553      -0.295
  47       5.644     0.999    15.717      -0.296
  48       4.217    -0.868    14.470      -0.351
  49       5.694     0.843    14.688      -0.330
  50       7.725     2.558    15.931      -0.324
  51       5.072     0.881    15.880      -0.264
  52       3.214    -0.728    12.809      -0.308
  53       6.917    -0.083    17.181      -0.407
  54       2.598    -1.318    14.764      -0.265
  55       5.471    -1.063    14.246      -0.459
  56       0.921    -0.746    10.493      -0.159
  57       4.679    -0.435    13.657      -0.374
  58       3.813     0.548    12.928      -0.253
  59       2.843     0.023    13.325      -0.212
  60       5.879     2.221    13.254      -0.276
  61       5.364     1.330    13.028      -0.310
  62       3.165     1.478    17.517      -0.096
  63       1.734    -0.345    14.547      -0.143
  64       1.548     0.715    13.183      -0.063
  65       4.981    -0.595    14.563      -0.383
  66       6.710     2.513    18.283      -0.230
  67       2.957    -0.434    13.763      -0.246
  68       4.096    -0.883    14.089      -0.353
  69       8.558     1.474    18.161      -0.390
  70       4.143     0.497    17.341      -0.210
  71       4.744     0.465    14.103      -0.303
  72       6.869     2.167    18.722      -0.251
  73       7.226     1.775    17.702      -0.308
  74       6.491     3.002    18.757      -0.186
  75       4.376     1.307    11.654      -0.263
  76       4.398     0.267    15.079      -0.274
  77       4.755     1.431    15.648      -0.212
  78       6.658     2.716    16.896      -0.233
  79       6.864     1.298    16.696      -0.333
  80       8.210     0.501    18.577      -0.415
  81       6.307     2.672    14.467      -0.251
  82       6.022     2.208    16.463      -0.232
  83       7.092     1.387    20.212      -0.282
  84       8.060     2.695    18.590      -0.289
  85       6.027     2.262    15.253      -0.247
  86       7.744     2.361    17.882      -0.301
  87       5.264     1.554    15.030      -0.247
  88      10.030     3.223    18.773      -0.363
 ---------------------------------------------------------------------



--------------------------------------------------------------------------------------------------------


 stress matrix after NEB project (eV)
    -46.47135     -0.63883     -0.99931
     -0.62231    -42.51153      6.07697
     -1.00820      6.06622    -57.60531
  FORCES: max atom, RMS     2.417496    1.142659
  FORCE total and by dimension   10.719093    2.171779
  Stress total and by dimension   85.800508   57.605311
     LOOP+:  cpu time  668.4702: real time  669.6363
    4ORBIT:  cpu time    0.0000: real time    0.0000
 


 total charge     
 
# of ion       s       p       d       tot
------------------------------------------
    1        0.047   5.990   0.000   6.037
    2        0.045   5.986   0.000   6.032
    3        0.045   5.989   0.000   6.034
    4        0.047   5.989   0.000   6.036
    5        0.053   5.996   0.000   6.048
    6        0.047   5.989   0.000   6.036
    7        0.052   5.995   0.000   6.047
    8        0.050   5.993   0.000   6.044
    9        0.052   5.995   0.000   6.047
   10        0.053   5.995   0.000   6.048
   11        0.051   5.996   0.000   6.046
   12        0.052   5.994   0.000   6.047
   13        0.053   5.995   0.000   6.048
   14        0.059   6.003   0.000   6.062
   15        0.050   5.992   0.000   6.042
   16        0.047   5.991   0.000   6.038
   17        0.150   6.127   0.083   6.361
   18        0.146   6.123   0.080   6.350
   19        0.158   6.143   0.097   6.398
   20        0.146   6.123   0.080   6.348
   21        0.147   6.123   0.080   6.349
   22        0.152   6.133   0.088   6.373
   23        0.152   6.134   0.089   6.374
   24        0.155   6.137   0.090   6.382
   25        0.368   6.442   4.813  11.622
   26        0.378   6.460   4.828  11.666
   27        0.381   6.468   4.840  11.689
   28        0.384   6.473   4.842  11.699
   29        0.372   6.443   4.825  11.640
   30        0.368   6.436   4.815  11.619
   31        0.373   6.448   4.836  11.657
   32        0.384   6.471   4.849  11.704
   33        0.383   6.472   4.844  11.699
   34        0.370   6.444   4.813  11.627
   35        0.370   6.444   4.820  11.634
   36        0.385   6.477   4.853  11.715
   37        0.379   6.459   4.844  11.682
   38        0.378   6.458   4.845  11.681
   39        0.373   6.446   4.829  11.648
   40        0.379   6.463   4.834  11.677
   41        1.599   3.529   0.000   5.128
   42        1.596   3.477   0.000   5.072
   43        1.599   3.481   0.000   5.079
   44        1.599   3.546   0.000   5.144
   45        1.599   3.507   0.000   5.106
   46        1.604   3.489   0.000   5.094
   47        1.598   3.515   0.000   5.113
   48        1.598   3.513   0.000   5.111
   49        1.601   3.515   0.000   5.116
   50        1.597   3.503   0.000   5.100
   51        1.600   3.504   0.000   5.104
   52        1.596   3.500   0.000   5.096
   53        1.600   3.486   0.000   5.086
   54        1.601   3.488   0.000   5.088
   55        1.600   3.514   0.000   5.114
   56        1.593   3.483   0.000   5.076
   57        1.597   3.496   0.000   5.093
   58        1.595   3.507   0.000   5.102
   59        1.597   3.499   0.000   5.096
   60        1.594   3.502   0.000   5.096
   61        1.597   3.524   0.000   5.121
   62        1.604   3.508   0.000   5.112
   63        1.599   3.497   0.000   5.097
   64        1.598   3.487   0.000   5.085
   65        1.600   3.490   0.000   5.090
   66        1.600   3.504   0.000   5.105
   67        1.597   3.492   0.000   5.089
   68        1.598   3.511   0.000   5.109
   69        1.601   3.499   0.000   5.101
   70        1.601   3.489   0.000   5.090
   71        1.597   3.508   0.000   5.105
   72        1.600   3.509   0.000   5.109
   73        1.600   3.507   0.000   5.107
   74        1.600   3.511   0.000   5.111
   75        1.595   3.510   0.000   5.104
   76        1.600   3.506   0.000   5.106
   77        1.600   3.510   0.000   5.110
   78        1.600   3.499   0.000   5.099
   79        1.600   3.486   0.000   5.086
   80        1.606   3.533   0.000   5.138
   81        1.598   3.535   0.000   5.133
   82        1.601   3.557   0.000   5.157
   83        1.603   3.493   0.000   5.096
   84        1.601   3.518   0.000   5.119
   85        1.598   3.530   0.000   5.128
   86        1.600   3.525   0.000   5.125
   87        1.598   3.497   0.000   5.095
   88        1.600   3.522   0.000   5.122
--------------------------------------------------
tot         84.785 416.545  78.017 579.347
 


 magnetization (x)
 
# of ion       s       p       d       tot
------------------------------------------
    1        0.001   0.001   0.000   0.002
    2        0.002   0.000   0.000   0.003
    3        0.001   0.001   0.000   0.002
    4        0.002   0.000   0.000   0.003
    5        0.002   0.000   0.000   0.002
    6        0.002   0.000   0.000   0.002
    7        0.002   0.001   0.000   0.003
    8        0.001   0.001   0.000   0.002
    9        0.001  -0.000   0.000   0.001
   10        0.002   0.000   0.000   0.002
   11        0.001   0.000   0.000   0.001
   12        0.002   0.001   0.000   0.003
   13        0.002   0.000   0.000   0.002
   14        0.002   0.000   0.000   0.002
   15        0.002   0.000   0.000   0.003
   16        0.001   0.000   0.000   0.001
   17        0.007   0.002   0.001   0.010
   18        0.007   0.002   0.001   0.010
   19        0.008   0.003   0.001   0.012
   20        0.006   0.002   0.001   0.010
   21        0.007   0.002   0.001   0.010
   22        0.007   0.003   0.001   0.011
   23        0.007   0.002   0.001   0.010
   24        0.008   0.003   0.001   0.013
   25        0.016   0.030   2.783   2.828
   26        0.014   0.030   2.747   2.791
   27        0.015   0.031   2.743   2.789
   28        0.014   0.030   2.734   2.778
   29        0.014   0.029   2.760   2.804
   30        0.015   0.028   2.766   2.809
   31        0.016   0.031   2.754   2.802
   32        0.015   0.030   2.739   2.784
   33        0.015   0.030   2.735   2.780
   34        0.016   0.030   2.774   2.820
   35        0.016   0.030   2.779   2.825
   36        0.016   0.030   2.731   2.777
   37        0.016   0.031   2.747   2.793
   38        0.016   0.030   2.739   2.784
   39        0.015   0.030   2.761   2.807
   40        0.015   0.031   2.750   2.796
   41        0.002   0.046   0.000   0.048
   42        0.002   0.020   0.000   0.022
   43        0.002   0.022   0.000   0.024
   44        0.002   0.055   0.000   0.057
   45        0.002   0.046   0.000   0.048
   46        0.003   0.057   0.000   0.059
   47        0.002   0.038   0.000   0.039
   48        0.002   0.033   0.000   0.035
   49        0.002   0.033   0.000   0.035
   50        0.002   0.041   0.000   0.043
   51        0.002   0.031   0.000   0.033
   52        0.001   0.014   0.000   0.015
   53        0.002   0.045   0.000   0.047
   54        0.002   0.013   0.000   0.014
   55        0.002   0.022   0.000   0.023
   56        0.001  -0.001   0.000   0.000
   57        0.002   0.024   0.000   0.026
   58        0.002   0.024   0.000   0.026
   59        0.002   0.005   0.000   0.007
   60        0.002   0.025   0.000   0.027
   61        0.002   0.026   0.000   0.028
   62        0.002   0.033   0.000   0.035
   63        0.002   0.017   0.000   0.019
   64        0.002   0.009   0.000   0.011
   65        0.002   0.020   0.000   0.022
   66        0.002   0.049   0.000   0.051
   67        0.002   0.011   0.000   0.013
   68        0.002   0.023   0.000   0.025
   69        0.002   0.050   0.000   0.053
   70        0.002   0.028   0.000   0.031
   71        0.002   0.030   0.000   0.031
   72        0.002   0.053   0.000   0.056
   73        0.002   0.042   0.000   0.045
   74        0.002   0.049   0.000   0.052
   75        0.002   0.014   0.000   0.016
   76        0.002   0.031   0.000   0.032
   77        0.002   0.028   0.000   0.030
   78        0.002   0.039   0.000   0.042
   79        0.002   0.031   0.000   0.033
   80        0.002   0.054   0.000   0.056
   81        0.002   0.038   0.000   0.040
   82        0.002   0.051   0.000   0.053
   83        0.002   0.052   0.000   0.054
   84        0.002   0.054   0.000   0.056
   85        0.002   0.043   0.000   0.045
   86        0.002   0.053   0.000   0.055
   87        0.002   0.024   0.000   0.026
   88        0.003   0.059   0.000   0.061
--------------------------------------------------
tot          0.424   2.107  44.050  46.581
 

 total amount of memory used by VASP MPI-rank0    88178. kBytes
=======================================================================

   base      :      30000. kBytes
   nonlr-proj:      13669. kBytes
   fftplans  :        992. kBytes
   grid      :      21513. kBytes
   one-center:       2737. kBytes
   wavefun   :      19267. kBytes
 
  
  
 General timing and accounting informations for this job:
 ========================================================
  
                  Total CPU time used (sec):      686.933
                            User time (sec):      680.878
                          System time (sec):        6.055
                         Elapsed time (sec):      691.077
  
                   Maximum memory used (kb):      183604.
                   Average memory used (kb):           0.
  
                          Minor page faults:       319092
                          Major page faults:            0
                 Voluntary context switches:         3589
