 vasp.5.4.4.18Apr17-6-g9f103f2a35 (build Dec 02 2020 12:53:39) complex          
  
 executed on             LinuxIFC date 2021.08.05  14:56:40
 running on  112 total cores
 distrk:  each k-point on  112 cores,    1 groups
 distr:  one band on NCORES_PER_BAND=   1 cores,  112 groups


--------------------------------------------------------------------------------------------------------


 INCAR:
 POTCAR:    PAW_PBE Na_pv 19Sep2006               
 POTCAR:    PAW_PBE Mg_pv 13Apr2007               
 POTCAR:    PAW_PBE Mn_pv 02Aug2007               
 POTCAR:    PAW_PBE O 08Apr2002                   

 ----------------------------------------------------------------------------- 
|                                                                             |
|           W    W    AA    RRRRR   N    N  II  N    N   GGGG   !!!           |
|           W    W   A  A   R    R  NN   N  II  NN   N  G    G  !!!           |
|           W    W  A    A  R    R  N N  N  II  N N  N  G       !!!           |
|           W WW W  AAAAAA  RRRRR   N  N N  II  N  N N  G  GGG   !            |
|           WW  WW  A    A  R   R   N   NN  II  N   NN  G    G                |
|           W    W  A    A  R    R  N    N  II  N    N   GGGG   !!!           |
|                                                                             |
|      For optimal performance we recommend to set                            |
|        NCORE= 4 - approx SQRT( number of cores)                             |
|      NCORE specifies how many cores store one orbital (NPAR=cpu/NCORE).     |
|      This setting can  greatly improve the performance of VASP for DFT.     |
|      The default,   NCORE=1            might be grossly inefficient         |
|      on modern multi-core architectures or massively parallel machines.     |
|      Do your own testing !!!!                                               |
|      Unfortunately you need to use the default for GW and RPA calculations. |
|      (for HF NCORE is supported but not extensively tested yet)             |
|                                                                             |
 ----------------------------------------------------------------------------- 

 POTCAR:    PAW_PBE Na_pv 19Sep2006               
   VRHFIN =Na: p6s1                                                             
   LEXCH  = PE                                                                  
   EATOM  =   766.0439 eV,   56.3026 Ry                                         
                                                                                
   TITEL  = PAW_PBE Na_pv 19Sep2006                                             
   LULTRA =        F    use ultrasoft PP ?                                      
   IUNSCR =        1    unscreen: 0-lin 1-nonlin 2-no                           
   RPACOR =    1.800    partial core radius                                     
   POMASS =   22.990; ZVAL   =    7.000    mass and valenz                      
   RCORE  =    2.200    outmost cutoff radius                                   
   RWIGS  =    2.200; RWIGS  =    1.164    wigner-seitz radius (au A)           
   ENMAX  =  259.561; ENMIN  =  194.671 eV                                      
   ICORE  =        2    local potential                                         
   LCOR   =        T    correct aug charges                                     
   LPAW   =        T    paw PP                                                  
   EAUG   =  368.056                                                            
   DEXC   =    0.000                                                            
   RMAX   =    2.245    core radius for proj-oper                               
   RAUG   =    1.300    factor for augmentation sphere                          
   RDEP   =    2.259    radius for radial grids                                 
   RDEPT  =    1.738    core radius for aug-charge                              
                                                                                
   Atomic configuration                                                         
    5 entries                                                                   
     n  l   j            E        occ.                                          
     1  0  0.50     -1033.6933   2.0000                                         
     2  0  0.50       -56.7526   2.0000                                         
     2  1  1.50       -28.6721   6.0000                                         
     3  0  0.50        -2.7440   1.0000                                         
     3  2  1.50        -1.3606   0.0000                                         
   Description                                                                  
     l       E           TYP  RCUT    TYP  RCUT                                 
     1    -28.6720912     23  2.000                                             
     1      6.8029130     23  2.000                                             
     0     -2.7439560     23  2.200                                             
     0     34.0145650     23  2.200                                             
     2     -1.3605826     23  2.200                                             
  local pseudopotential read in
  partial core-charges read in
  partial kinetic energy density read in
  atomic valenz-charges read in
  non local Contribution for L=           1  read in
    real space projection operators read in
  non local Contribution for L=           1  read in
    real space projection operators read in
  non local Contribution for L=           0  read in
    real space projection operators read in
  non local Contribution for L=           0  read in
    real space projection operators read in
    PAW grid and wavefunctions read in
 
   number of l-projection  operators is LMAX  =           4
   number of lm-projection operators is LMMAX =           8
 
 POTCAR:    PAW_PBE Mg_pv 13Apr2007               
   VRHFIN =Mg: p6s2                                                             
   LEXCH  = PE                                                                  
   EATOM  =  1056.7344 eV,   77.6678 Ry                                         
                                                                                
   TITEL  = PAW_PBE Mg_pv 13Apr2007                                             
   LULTRA =        F    use ultrasoft PP ?                                      
   IUNSCR =        1    unscreen: 0-lin 1-nonlin 2-no                           
   RPACOR =    1.500    partial core radius                                     
   POMASS =   24.305; ZVAL   =    8.000    mass and valenz                      
   RCORE  =    2.000    outmost cutoff radius                                   
   RWIGS  =    2.000; RWIGS  =    1.058    wigner-seitz radius (au A)           
   ENMAX  =  403.929; ENMIN  =  302.947 eV                                      
   RCLOC  =    1.506    cutoff for local pot                                    
   LCOR   =        T    correct aug charges                                     
   LPAW   =        T    paw PP                                                  
   EAUG   =  758.780                                                            
   DEXC   =    0.000                                                            
   RMAX   =    2.045    core radius for proj-oper                               
   RAUG   =    1.300    factor for augmentation sphere                          
   RDEP   =    2.025    radius for radial grids                                 
   RDEPT  =    1.557    core radius for aug-charge                              
                                                                                
   Atomic configuration                                                         
    5 entries                                                                   
     n  l   j            E        occ.                                          
     1  0  0.50     -1259.6230   2.0000                                         
     2  0  0.50       -79.8442   2.0000                                         
     2  1  1.50       -46.6121   6.0000                                         
     3  0  0.50        -4.7055   2.0000                                         
     3  2  1.50        -1.3606   0.0000                                         
   Description                                                                  
     l       E           TYP  RCUT    TYP  RCUT                                 
     1    -46.6121073     23  1.600                                             
     1      2.7211652     23  1.600                                             
     0     -4.7054661     23  2.000                                             
     0     61.2262170     23  2.000                                             
     2     -1.3605826     23  2.000                                             
  local pseudopotential read in
  partial core-charges read in
  partial kinetic energy density read in
  atomic valenz-charges read in
  non local Contribution for L=           1  read in
    real space projection operators read in
  non local Contribution for L=           1  read in
    real space projection operators read in
  non local Contribution for L=           0  read in
    real space projection operators read in
  non local Contribution for L=           0  read in
    real space projection operators read in
  non local Contribution for L=           2  read in
    real space projection operators read in
    PAW grid and wavefunctions read in
 
   number of l-projection  operators is LMAX  =           5
   number of lm-projection operators is LMMAX =          13
 
 POTCAR:    PAW_PBE Mn_pv 02Aug2007               
   VRHFIN =Mn: 3p4s3d                                                           
   LEXCH  = PE                                                                  
   EATOM  =  2025.2664 eV,  148.8529 Ry                                         
                                                                                
   TITEL  = PAW_PBE Mn_pv 02Aug2007                                             
   LULTRA =        F    use ultrasoft PP ?                                      
   IUNSCR =        1    unscreen: 0-lin 1-nonlin 2-no                           
   RPACOR =    2.080    partial core radius                                     
   POMASS =   54.938; ZVAL   =   13.000    mass and valenz                      
   RCORE  =    2.300    outmost cutoff radius                                   
   RWIGS  =    2.500; RWIGS  =    1.323    wigner-seitz radius (au A)           
   ENMAX  =  269.864; ENMIN  =  202.398 eV                                      
   ICORE  =        3    local potential                                         
   LCOR   =        T    correct aug charges                                     
   LPAW   =        T    paw PP                                                  
   EAUG   =  569.085                                                            
   DEXC   =    0.000                                                            
   RMAX   =    2.343    core radius for proj-oper                               
   RAUG   =    1.300    factor for augmentation sphere                          
   RDEP   =    2.338    radius for radial grids                                 
   RDEPT  =    1.798    core radius for aug-charge                              
                                                                                
   Atomic configuration                                                         
    8 entries                                                                   
     n  l   j            E        occ.                                          
     1  0  0.50     -6424.8287   2.0000                                         
     2  0  0.50      -739.1154   2.0000                                         
     2  1  1.50      -625.3949   6.0000                                         
     3  0  0.50       -81.6100   2.0000                                         
     3  1  1.50       -50.4667   6.0000                                         
     3  2  2.50        -3.3745   6.0000                                         
     4  0  0.50        -4.1331   1.0000                                         
     4  3  2.50        -1.3606   0.0000                                         
   Description                                                                  
     l       E           TYP  RCUT    TYP  RCUT                                 
     1    -50.4666628     23  2.000                                             
     1     -1.3605826     23  2.000                                             
     2     -3.3744729     23  2.300                                             
     2     -4.7350555     23  2.300                                             
     0     -4.1331431     23  2.300                                             
     0      7.6656591     23  2.300                                             
     3      9.5240782     23  2.300                                             
  local pseudopotential read in
  partial core-charges read in
  partial kinetic energy density read in
  atomic valenz-charges read in
  non local Contribution for L=           1  read in
    real space projection operators read in
  non local Contribution for L=           1  read in
    real space projection operators read in
  non local Contribution for L=           2  read in
    real space projection operators read in
  non local Contribution for L=           2  read in
    real space projection operators read in
  non local Contribution for L=           0  read in
    real space projection operators read in
  non local Contribution for L=           0  read in
    real space projection operators read in
    PAW grid and wavefunctions read in
 
   number of l-projection  operators is LMAX  =           6
   number of lm-projection operators is LMMAX =          18
 
 POTCAR:    PAW_PBE O 08Apr2002                   
   VRHFIN =O: s2p4                                                              
   LEXCH  = PE                                                                  
   EATOM  =   432.3788 eV,   31.7789 Ry                                         
                                                                                
   TITEL  = PAW_PBE O 08Apr2002                                                 
   LULTRA =        F    use ultrasoft PP ?                                      
   IUNSCR =        1    unscreen: 0-lin 1-nonlin 2-no                           
   RPACOR =    1.200    partial core radius                                     
   POMASS =   16.000; ZVAL   =    6.000    mass and valenz                      
   RCORE  =    1.520    outmost cutoff radius                                   
   RWIGS  =    1.550; RWIGS  =    0.820    wigner-seitz radius (au A)           
   ENMAX  =  400.000; ENMIN  =  300.000 eV                                      
   ICORE  =        2    local potential                                         
   LCOR   =        T    correct aug charges                                     
   LPAW   =        T    paw PP                                                  
   EAUG   =  605.392                                                            
   DEXC   =    0.000                                                            
   RMAX   =    1.553    core radius for proj-oper                               
   RAUG   =    1.300    factor for augmentation sphere                          
   RDEP   =    1.550    radius for radial grids                                 
   RDEPT  =    1.329    core radius for aug-charge                              
                                                                                
   Atomic configuration                                                         
    4 entries                                                                   
     n  l   j            E        occ.                                          
     1  0  0.50      -514.6923   2.0000                                         
     2  0  0.50       -23.9615   2.0000                                         
     2  1  0.50        -9.0305   4.0000                                         
     3  2  1.50        -9.5241   0.0000                                         
   Description                                                                  
     l       E           TYP  RCUT    TYP  RCUT                                 
     0    -23.9615318     23  1.200                                             
     0     -9.5240782     23  1.200                                             
     1     -9.0304911     23  1.520                                             
     1      8.1634956     23  1.520                                             
     2     -9.5240782      7  1.500                                             
  local pseudopotential read in
  partial core-charges read in
  partial kinetic energy density read in
  kinetic energy density of atom read in
  atomic valenz-charges read in
  non local Contribution for L=           0  read in
    real space projection operators read in
  non local Contribution for L=           0  read in
    real space projection operators read in
  non local Contribution for L=           1  read in
    real space projection operators read in
  non local Contribution for L=           1  read in
    real space projection operators read in
    PAW grid and wavefunctions read in
 
   number of l-projection  operators is LMAX  =           4
   number of lm-projection operators is LMMAX =           8
 
 Optimization of the real space projectors (new method)

 maximal supplied QI-value         = 17.01
 optimisation between [QCUT,QGAM] = [ 10.20, 20.41] = [ 29.16,116.64] Ry 
 Optimized for a Real-space Cutoff    1.30 Angstroem

   l    n(q)    QCUT    max X(q) W(low)/X(q) W(high)/X(q)  e(spline) 
   1      7    10.205     4.940    0.23E-03    0.84E-03    0.11E-06
   1      7    10.205     6.253    0.40E-03    0.13E-02    0.18E-06
   0      8    10.205    37.438    0.23E-03    0.37E-03    0.42E-07
   0      8    10.205     9.606    0.16E-03    0.26E-03    0.31E-07
 Optimization of the real space projectors (new method)

 maximal supplied QI-value         = 18.90
 optimisation between [QCUT,QGAM] = [ 10.20, 20.41] = [ 29.16,116.64] Ry 
 Optimized for a Real-space Cutoff    1.26 Angstroem

   l    n(q)    QCUT    max X(q) W(low)/X(q) W(high)/X(q)  e(spline) 
   1      7    10.205     2.974    0.63E-04    0.14E-03    0.13E-06
   1      7    10.205     4.279    0.11E-03    0.45E-03    0.24E-06
   0      8    10.205    16.381    0.44E-03    0.15E-03    0.55E-07
   0      8    10.205     5.611    0.31E-03    0.11E-03    0.40E-07
   2      7    10.205     4.652    0.50E-03    0.47E-03    0.57E-07
 Optimization of the real space projectors (new method)

 maximal supplied QI-value         = 16.25
 optimisation between [QCUT,QGAM] = [ 10.24, 20.48] = [ 29.35,117.42] Ry 
 Optimized for a Real-space Cutoff    1.34 Angstroem

   l    n(q)    QCUT    max X(q) W(low)/X(q) W(high)/X(q)  e(spline) 
   1      8    10.239     3.658    0.23E-03    0.30E-03    0.98E-07
   1      8    10.239     5.612    0.32E-03    0.65E-03    0.21E-06
   2      7    10.239    55.373    0.42E-03    0.45E-03    0.65E-07
   2      7    10.239    50.863    0.43E-03    0.48E-03    0.67E-07
   0      8    10.239    79.536    0.11E-03    0.21E-03    0.56E-07
   0      8    10.239    38.668    0.96E-04    0.19E-03    0.52E-07
 Optimization of the real space projectors (new method)

 maximal supplied QI-value         = 24.76
 optimisation between [QCUT,QGAM] = [ 10.15, 20.30] = [ 28.85,115.39] Ry 
 Optimized for a Real-space Cutoff    1.38 Angstroem

   l    n(q)    QCUT    max X(q) W(low)/X(q) W(high)/X(q)  e(spline) 
   0      8    10.150    20.381    0.22E-03    0.32E-03    0.29E-06
   0      8    10.150    15.268    0.23E-03    0.35E-03    0.30E-06
   1      8    10.150     5.964    0.46E-03    0.53E-03    0.21E-06
   1      8    10.150     5.382    0.38E-03    0.45E-03    0.19E-06
  PAW_PBE Na_pv 19Sep2006               :
 energy of atom  1       EATOM= -766.0439
 kinetic energy error for atom=    0.0103 (will be added to EATOM!!)
  PAW_PBE Mg_pv 13Apr2007               :
 energy of atom  2       EATOM=-1056.7344
 kinetic energy error for atom=    0.0820 (will be added to EATOM!!)
  PAW_PBE Mn_pv 02Aug2007               :
 energy of atom  3       EATOM=-2025.2664
 kinetic energy error for atom=    0.0284 (will be added to EATOM!!)
  PAW_PBE O 08Apr2002                   :
 energy of atom  4       EATOM= -432.3788
 kinetic energy error for atom=    0.1156 (will be added to EATOM!!)
 
 
 POSCAR: Na Mg Mn  O                             
  positions in cartesian coordinates
  No initial velocities read in

 METAGGA = SCAN     LMAXTAU =  6    LMIXTAU =  F

 exchange correlation table for  LEXCH =        8
   RHO(1)=    0.500       N(1)  =     2000
   RHO(2)=  100.500       N(2)  =     4000

 VTST: version 3.2, (02/03/18)

 CHAIN: initializing optimizer
 
 OPT: Using VASP Dynamics algorithm
 CHAIN: Read ICHAIN            0
 
 POSCAR: Na Mg Mn  O                             
  positions in cartesian coordinates
  No initial velocities read in
 


--------------------------------------------------------------------------------------------------------


 ion  position               nearest neighbor table
   1  0.099  0.659  0.250-  77 2.28  78 2.29  87 2.38
   2  0.639  0.800  0.754-  72 2.24  71 2.25  68 2.34
   3  0.186  0.597  0.763-  83 2.31  48 2.35
   4  0.896  0.645  0.750-  70 2.33  83 2.38  39 2.85  37 2.87
   5  0.394  0.090  0.250-  79 2.15  88 2.21  31 2.78  29 2.90
   6  0.096  0.131  0.245-  42 2.22  76 2.31  51 2.34
   7  0.208  0.132  0.750-  47 2.23  44 2.34  49 2.38
   8  0.898  0.136  0.751-  69 2.29  72 2.34  58 2.36  25 2.71  27 2.88
   9  0.921  0.302  0.253-  50 2.20  41 2.35  16 2.76
  10  0.884  0.804  0.256-  66 2.30  76 2.31  75 2.34  67 2.38
  11  0.374  0.589  0.256-  87 2.21  43 2.21  52 2.25  35 2.81  33 2.87
  12  0.623  0.313  0.752-  59 2.32  60 2.34  57 2.34
  13  0.406  0.468  0.742-  68 2.32  46 2.35  45 2.35
  14  0.403  0.971  0.750-
  15  0.681  0.458  0.252-  62 2.24  75 2.28  28 2.98
  16  0.712  0.990  0.246-  54 2.21  63 2.23   9 2.76
  17  0.562  0.461  0.998-  53 1.97  60 2.03  71 2.03  43 2.03  49 2.08  66 2.20  26 2.82
  18  0.242  0.308  0.485-  50 1.95  51 2.05  44 2.06  52 2.06  45 2.17  32 2.75
  19  0.069  0.477  0.011-  55 2.00  78 2.00  61 2.07  41 2.14  83 2.15  48 2.15  37 2.82  38 2.85

  20  0.742  0.300  0.506-  56 1.94  57 2.01  63 2.06  62 2.07  64 2.15  58 2.15  40 2.85
  21  0.063  0.970  0.998-  47 1.97  73 2.02  84 2.02  42 2.06  67 2.12  77 2.14  34 2.76  25 2.84

  22  0.749  0.806  0.498-  70 1.98  74 2.02  75 2.05  68 2.08  69 2.13  76 2.15  36 2.84
  23  0.565  0.959  0.996-  65 1.93  85 2.07  59 2.08  72 2.09  79 2.10  54 2.12  33 2.78  34 2.83
                            38 2.84
  24  0.247  0.800  0.510-  80 1.99  81 2.06  82 2.07  87 2.10  86 2.13  88 2.14  40 2.85
  25  0.903  0.138  0.993-  61 1.85  41 1.90  72 1.91  54 1.92  47 1.96  67 2.03   8 2.71  34 2.83
                            21 2.84  30 2.87  26 2.91
  26  0.238  0.300  0.007-  42 1.86  49 1.90  41 1.94  43 1.96  48 1.97  47 1.97  17 2.82  29 2.83
                            25 2.91  33 2.94
  27  0.909  0.137  0.494-  63 1.83  69 1.87  76 1.91  44 1.92  58 1.93  50 1.98   8 2.88  32 2.89
                            36 2.90  40 2.90
  28  0.578  0.472  0.499-  52 1.81  68 1.89  75 1.92  57 1.94  46 1.96  62 1.97  39 2.84  35 2.86
                            31 2.92  15 2.98
  29  0.394  0.129  0.993-  84 1.88  59 1.91  53 1.92  49 1.93  42 1.93  79 1.98  38 2.82  26 2.83
                            30 2.90   5 2.90
  30  0.727  0.292  0.011-  54 1.86  53 1.89  59 1.93  55 1.95  60 2.03  61 2.05  25 2.87  29 2.90
                            37 2.98
  31  0.409  0.135  0.495-  51 1.88  62 1.90  88 1.91  81 1.93  56 1.95  46 2.02   5 2.78  40 2.87
                            36 2.88  28 2.92
  32  0.088  0.470  0.491-  87 1.92  50 1.93  45 1.93  64 1.94  58 1.95  80 1.97  18 2.75  35 2.86
                            27 2.89  39 2.99
  33  0.411  0.639  0.003-  71 1.85  43 1.88  65 1.94  78 2.01  85 2.02  48 2.02  23 2.78  11 2.87
                            34 2.90  26 2.94  38 2.94
  34  0.744  0.813  0.007-  65 1.85  73 1.86  67 1.86  72 1.91  66 1.97  71 1.99  21 2.76  25 2.83
                            23 2.83  33 2.90  37 2.91
  35  0.418  0.641  0.502-  74 1.91  52 1.91  45 1.92  82 1.94  87 1.99  68 2.01  11 2.81  28 2.86
                            32 2.86  40 2.87
  36  0.077  0.970  0.496-  44 1.87  86 1.91  81 1.91  70 1.96  51 1.98  76 1.98  22 2.84  31 2.88
                            27 2.90  39 2.94
  37  0.902  0.635  0.005-  83 1.82  66 1.86  77 1.87  60 1.89  73 1.89  55 2.02  19 2.82   4 2.87
                            38 2.91  34 2.91  30 2.98
  38  0.237  0.804  0.995-  85 1.89  79 1.90  83 1.94  78 1.95  84 1.99  77 2.02  29 2.82  23 2.84
                            19 2.85  37 2.91  33 2.94
  39  0.906  0.632  0.496-  75 1.88  70 1.88  57 1.89  80 1.93  86 1.95  64 1.95  28 2.84   4 2.85
                            36 2.94  32 2.99
  40  0.575  0.971  0.506-  88 1.87  82 1.91  56 1.94  69 1.94  63 1.96  74 1.99  24 2.85  20 2.85
                            35 2.87  31 2.87  27 2.90
  41  0.063  0.282  0.094-  25 1.90  26 1.94  19 2.14   9 2.35
  42  0.243  0.143  0.092-  26 1.86  29 1.93  21 2.06   6 2.22
  43  0.398  0.476  0.095-  33 1.88  26 1.96  17 2.03  11 2.21
  44  0.071  0.128  0.580-  36 1.87  27 1.92  18 2.06   7 2.34
  45  0.249  0.488  0.596-  35 1.92  32 1.93  18 2.17  13 2.35
  46  0.429  0.306  0.602-  28 1.96  31 2.02  13 2.35
  47  0.074  0.143  0.905-  25 1.96  21 1.97  26 1.97   7 2.23
  48  0.243  0.464  0.908-  26 1.97  33 2.02  19 2.15   3 2.35
  49  0.380  0.286  0.903-  26 1.90  29 1.93  17 2.08   7 2.38
  50  0.072  0.302  0.396-  32 1.93  18 1.95  27 1.98   9 2.20
  51  0.251  0.130  0.402-  31 1.88  36 1.98  18 2.05   6 2.34
  52  0.437  0.490  0.411-  28 1.81  35 1.91  18 2.06  11 2.25
  53  0.556  0.288  0.086-  30 1.89  29 1.92  17 1.97
  54  0.748  0.141  0.091-  30 1.86  25 1.92  23 2.12  16 2.21
  55  0.889  0.459  0.102-  30 1.95  19 2.00  37 2.02
  56  0.571  0.136  0.593-  40 1.94  20 1.94  31 1.95
  57  0.746  0.478  0.590-  39 1.89  28 1.94  20 2.01  12 2.34
  58  0.937  0.307  0.593-  27 1.93  32 1.95  20 2.15   8 2.36
  59  0.566  0.143  0.909-  29 1.91  30 1.93  23 2.08  12 2.32
  60  0.747  0.473  0.915-  37 1.89  30 2.03  17 2.03  12 2.34
  61  0.901  0.297  0.912-  25 1.85  30 2.05  19 2.07
  62  0.568  0.299  0.406-  31 1.90  28 1.97  20 2.07  15 2.24
  63  0.747  0.127  0.411-  27 1.83  40 1.96  20 2.06  16 2.23
  64  0.926  0.478  0.403-  32 1.94  39 1.95  20 2.15
  65  0.581  0.805  0.089-  34 1.85  23 1.93  33 1.94
  66  0.755  0.649  0.096-  37 1.86  34 1.97  17 2.20  10 2.30
  67  0.887  0.970  0.103-  34 1.86  25 2.03  21 2.12  10 2.38
  68  0.579  0.625  0.597-  28 1.89  35 2.01  22 2.08  13 2.32   2 2.34
  69  0.753  0.992  0.593-  27 1.87  40 1.94  22 2.13   8 2.29
  70  0.915  0.796  0.585-  39 1.88  36 1.96  22 1.98   4 2.33
  71  0.570  0.646  0.915-  33 1.85  34 1.99  17 2.03   2 2.25
  72  0.750  0.967  0.904-  25 1.91  34 1.91  23 2.09   2 2.24   8 2.34
  73  0.886  0.787  0.917-  34 1.86  37 1.89  21 2.02
  74  0.573  0.804  0.409-  35 1.91  40 1.99  22 2.02
  75  0.745  0.627  0.407-  39 1.88  28 1.92  22 2.05  15 2.28  10 2.34
  76  0.925  0.991  0.395-  27 1.91  36 1.98  22 2.15   6 2.31  10 2.31
  77  0.063  0.788  0.096-  37 1.87  38 2.02  21 2.14   1 2.28
  78  0.246  0.650  0.097-  38 1.95  19 2.00  33 2.01   1 2.29
  79  0.388  0.963  0.093-  38 1.90  29 1.98  23 2.10   5 2.15
  80  0.066  0.623  0.586-  39 1.93  32 1.97  24 1.99
  81  0.241  0.983  0.590-  36 1.91  31 1.93  24 2.06
  82  0.428  0.804  0.602-  40 1.91  35 1.94  24 2.07
  83  0.057  0.652  0.909-  37 1.82  38 1.94  19 2.15   3 2.31   4 2.38
  84  0.236  0.974  0.902-  29 1.88  38 1.99  21 2.02
  85  0.385  0.789  0.899-  38 1.89  33 2.02  23 2.07
  86  0.069  0.803  0.408-  36 1.91  39 1.95  24 2.13
  87  0.251  0.633  0.400-  32 1.92  35 1.99  24 2.10  11 2.21   1 2.38
  88  0.429  0.981  0.409-  40 1.87  31 1.91  24 2.14   5 2.21
 
  LATTYP: Found a hexagonal cell.
 ALAT       =    10.0190000534
 C/A-ratio  =     1.1196726572
  
  Lattice vectors:
  
 A1 = (  10.0190000534,   0.0000000000,   0.0000000000)
 A2 = (  -5.0095000267,   8.6767085668,   0.0000000000)
 A3 = (   0.0000000000,   0.0000000000,  11.2180004120)


Analysis of symmetry for initial positions (statically):
=====================================================================
 Subroutine PRICEL returns:
 Original cell was already a primitive cell.
 

 Routine SETGRP: Setting up the symmetry group for a 
 hexagonal supercell.


 Subroutine GETGRP returns: Found  1 space group operations
 (whereof  1 operations were pure point group operations)
 out of a pool of 24 trial point group operations.


The static configuration has the point symmetry C_1 .


Analysis of symmetry for dynamics (positions and initial velocities):
=====================================================================
 Subroutine PRICEL returns:
 Original cell was already a primitive cell.
 

 Routine SETGRP: Setting up the symmetry group for a 
 hexagonal supercell.


 Subroutine GETGRP returns: Found  1 space group operations
 (whereof  1 operations were pure point group operations)
 out of a pool of 24 trial point group operations.


The dynamic configuration has the point symmetry C_1 .


Analysis of structural, dynamic, and magnetic symmetry:
=====================================================================
 Subroutine PRICEL returns:
 Original cell was already a primitive cell.
 

 Routine SETGRP: Setting up the symmetry group for a 
 hexagonal supercell.


 Subroutine GETGRP returns: Found  1 space group operations
 (whereof  1 operations were pure point group operations)
 out of a pool of 24 trial point group operations.


The magnetic configuration has the point symmetry C_1 .


 Subroutine INISYM returns: Found  1 space group operations
 (whereof  1 operations are pure point group operations),
 and found     1 'primitive' translations

 
 

Automatic generation of k-mesh.
 generate k-points for:    2    2    2
Space group operators:
 irot       det(A)        alpha          n_x          n_y          n_z        tau_x        tau_y        tau_z
    1     1.000000     0.000000     1.000000     0.000000     0.000000     0.000000     0.000000     0.000000
 
 Subroutine IBZKPT returns following result:
 ===========================================
 
 Found      8 irreducible k-points:
 
 Following reciprocal coordinates:
            Coordinates               Weight
  0.000000  0.000000  0.000000      1.000000
  0.500000 -0.000000 -0.000000      1.000000
  0.000000  0.500000  0.000000      1.000000
  0.500000  0.500000 -0.000000      1.000000
  0.000000  0.000000  0.500000      1.000000
  0.500000 -0.000000  0.500000      1.000000
  0.000000  0.500000  0.500000      1.000000
  0.500000  0.500000  0.500000      1.000000
 
 Following cartesian coordinates:
            Coordinates               Weight
  0.000000  0.000000  0.000000      1.000000
  0.049905  0.028813 -0.000000      1.000000
  0.000000  0.057626  0.000000      1.000000
  0.049905  0.086438 -0.000000      1.000000
  0.000000  0.000000  0.044571      1.000000
  0.049905  0.028813  0.044571      1.000000
  0.000000  0.057626  0.044571      1.000000
  0.049905  0.086438  0.044571      1.000000
 


--------------------------------------------------------------------------------------------------------




 Dimension of arrays:
   k-points           NKPTS =      8   k-points in BZ     NKDIM =      8   number of bands    NBANDS=    448
   number of dos      NEDOS =    301   number of ions     NIONS =     88
   non local maximal  LDIM  =      6   non local SUM 2l+1 LMDIM =     18
   total plane-waves  NPLWV = 140000
   max r-space proj   IRMAX =   1632   max aug-charges    IRDMAX=   4555
   dimension x,y,z NGX =    50 NGY =   50 NGZ =   56
   dimension x,y,z NGXF=   100 NGYF=  100 NGZF=  112
   support grid    NGXF=   100 NGYF=  100 NGZF=  112
   ions per type =              16   8  16  48
   NGX,Y,Z   is equivalent  to a cutoff of   8.30,  8.30,  8.30 a.u.
   NGXF,Y,Z  is equivalent  to a cutoff of  16.59, 16.59, 16.60 a.u.

 SYSTEM =  unknown system                          
 POSCAR =  Na Mg Mn  O                             

 Startparameter for this run:
   NWRITE =      2    write-flag & timer
   PREC   = normal    normal or accurate (medium, high low for compatibility)
   ISTART =      0    job   : 0-new  1-cont  2-samecut
   ICHARG =      1    charge: 1-file 2-atom 10-const
   ISPIN  =      2    spin polarized calculation?
   LNONCOLLINEAR =      F non collinear calculations
   LSORBIT =      F    spin-orbit coupling
   INIWAV =      1    electr: 0-lowe 1-rand  2-diag
   LASPH  =      T    aspherical Exc in radial PAW
   METAGGA=      F    non-selfconsistent MetaGGA calc.

 Electronic Relaxation 1
   ENCUT  =  400.0 eV  29.40 Ry    5.42 a.u.  16.34 16.34 18.29*2*pi/ulx,y,z
   ENINI  =  400.0     initial cutoff
   ENAUG  =  758.8 eV  augmentation charge cutoff
   NELM   =    200;   NELMIN=  6; NELMDL=-12     # of ELM steps 
   EDIFF  = 0.1E-04   stopping-criterion for ELM
   LREAL  =      T    real-space projection
   NLSPLINE    = F    spline interpolate recip. space projectors
   LCOMPAT=      F    compatible to vasp.4.4
   GGA_COMPAT  = T    GGA compatible to vasp.4.4-vasp.4.6
   LMAXPAW     = -100 max onsite density
   LMAXMIX     =    4 max onsite mixed and CHGCAR
   VOSKOWN=      0    Vosko Wilk Nusair interpolation
   ROPT   =   -0.00050  -0.00050  -0.00050  -0.00050
 Ionic relaxation
   EDIFFG = 0.1E-03   stopping-criterion for IOM
   NSW    =      1    number of steps for IOM
   NBLOCK =      1;   KBLOCK =      1    inner block; outer block 
   IBRION =     -1    ionic relax: 0-MD 1-quasi-New 2-CG
   NFREE  =      0    steps in history (QN), initial steepest desc. (CG)
   ISIF   =      2    stress and relaxation
   IWAVPR =     10    prediction:  0-non 1-charg 2-wave 3-comb
   ISYM   =      2    0-nonsym 1-usesym 2-fastsym
   LCORR  =      T    Harris-Foulkes like correction to forces

   POTIM  = 0.5000    time-step for ionic-motion
   TEIN   =    0.0    initial temperature
   TEBEG  =    0.0;   TEEND  =   0.0 temperature during run
   SMASS  =  -3.00    Nose mass-parameter (am)
   estimated Nose-frequenzy (Omega)   =  0.10E-29 period in steps =****** mass=  -0.229E-26a.u.
   SCALEE = 1.0000    scale energy and forces
   NPACO  =    256;   APACO  = 16.0  distance and # of slots for P.C.
   PSTRESS=    0.0 pullay stress

  Mass of Ions in am
   POMASS =  22.99 24.30 54.94 16.00
  Ionic Valenz
   ZVAL   =   7.00  8.00 13.00  6.00
  Atomic Wigner-Seitz radii
   RWIGS  =  -1.00 -1.00 -1.00 -1.00
  virtual crystal weights 
   VCA    =   1.00  1.00  1.00  1.00
   NELECT =     672.0000    total number of electrons
   NUPDOWN=      48.0000    fix difference up-down

 DOS related values:
   EMIN   =  10.00;   EMAX   =-10.00  energy-range for DOS
   EFERMI =   0.00
   ISMEAR =     0;   SIGMA  =   0.05  broadening in eV -4-tet -1-fermi 0-gaus

 Electronic relaxation 2 (details)
   IALGO  =     48    algorithm
   LDIAG  =      T    sub-space diagonalisation (order eigenvalues)
   LSUBROT=      F    optimize rotation matrix (better conditioning)
   TURBO    =      0    0=normal 1=particle mesh
   IRESTART =      0    0=no restart 2=restart with 2 vectors
   NREBOOT  =      0    no. of reboots
   NMIN     =      0    reboot dimension
   EREF     =   0.00    reference energy to select bands
   IMIX   =      4    mixing-type and parameters
     AMIX     =   0.40;   BMIX     =  1.00
     AMIX_MAG =   1.60;   BMIX_MAG =  1.00
     AMIN     =   0.10
     WC   =   100.;   INIMIX=   1;  MIXPRE=   1;  MAXMIX= -45

 Intra band minimization:
   WEIMIN = 0.0000     energy-eigenvalue tresh-hold
   EBREAK =  0.56E-08  absolut break condition
   DEPER  =   0.30     relativ break condition  

   TIME   =   0.40     timestep for ELM

  volume/ion in A,a.u.               =      11.08        74.78
  Fermi-wavevector in a.u.,A,eV,Ry     =   1.445993  2.732531 28.448379  2.090897
  Thomas-Fermi vector in A             =   2.564112
 
 Write flags
   LWAVE        =      F    write WAVECAR
   LDOWNSAMPLE  =      F    k-point downsampling of WAVECAR
   LCHARG       =      F    write CHGCAR
   LVTOT        =      F    write LOCPOT, total local potential
   LVHAR        =      F    write LOCPOT, Hartree potential only
   LELF         =      F    write electronic localiz. function (ELF)
   LORBIT       =     11    0 simple, 1 ext, 2 COOP (PROOUT), +10 PAW based schemes


 Dipole corrections
   LMONO  =      F    monopole corrections only (constant potential shift)
   LDIPOL =      F    correct potential (dipole corrections)
   IDIPOL =      0    1-x, 2-y, 3-z, 4-all directions 
   EPSILON=  1.0000000 bulk dielectric constant

 Exchange correlation treatment:
   GGA     =    --    GGA type
   LEXCH   =     8    internal setting for exchange type
   VOSKOWN=      0    Vosko Wilk Nusair interpolation
   LHFCALC =     F    Hartree Fock is set to
   LHFONE  =     F    Hartree Fock one center treatment
   AEXX    =    0.0000 exact exchange contribution

 Linear response parameters
   LEPSILON=     F    determine dielectric tensor
   LRPA    =     F    only Hartree local field effects (RPA)
   LNABLA  =     F    use nabla operator in PAW spheres
   LVEL    =     F    velocity operator in full k-point grid
   LINTERFAST=   F  fast interpolation
   KINTER  =     0    interpolate to denser k-point grid
   CSHIFT  =0.1000    complex shift for real part using Kramers Kronig
   OMEGAMAX=  -1.0    maximum frequency
   DEG_THRESHOLD= 0.2000000E-02 threshold for treating states as degnerate
   RTIME   =   -0.100 relaxation time in fs
  (WPLASMAI=    0.000 imaginary part of plasma frequency in eV, 0.658/RTIME)
   DFIELD  = 0.0000000 0.0000000 0.0000000 field for delta impulse in time
 
 Orbital magnetization related:
   ORBITALMAG=     F  switch on orbital magnetization
   LCHIMAG   =     F  perturbation theory with respect to B field
   DQ        =  0.001000  dq finite difference perturbation B field
   LLRAUG    =     F  two centre corrections for induced B field



--------------------------------------------------------------------------------------------------------


 Static calculation
 charge density and potential will be updated during run
 spin polarized calculation
 RMM-DIIS sequential band-by-band
 perform sub-space diagonalisation
    before iterative eigenvector-optimisation
 modified Broyden-mixing scheme, WC =      100.0
 initial mixing is a Kerker type mixing with AMIX =  0.4000 and BMIX =      1.0000
 Hartree-type preconditioning will be used
 using additional bands          112
 real space projection scheme for non local part
 use partial core corrections
 calculate Harris-corrections to forces 
   (improved forces if not selfconsistent)
 use gradient corrections 
 use of overlap-Matrix (Vanderbilt PP)
 Gauss-broadening in eV      SIGMA  =   0.05


--------------------------------------------------------------------------------------------------------


  energy-cutoff  :      400.00
  volume of cell :      975.20
      direct lattice vectors                 reciprocal lattice vectors
    10.019000053  0.000000000  0.000000000     0.099810360  0.057625538 -0.000000000
    -5.009500027  8.676708567  0.000000000     0.000000000  0.115251076  0.000000000
     0.000000000  0.000000000 11.218000412     0.000000000  0.000000000  0.089142446

  length of vectors
    10.019000053 10.019000053 11.218000412     0.115251076  0.115251076  0.089142446


 
 k-points in units of 2pi/SCALE and weight: read from INCAR                         
   0.00000000  0.00000000  0.00000000       0.125
   0.04990518  0.02881277 -0.00000000       0.125
   0.00000000  0.05762554  0.00000000       0.125
   0.04990518  0.08643831 -0.00000000       0.125
   0.00000000  0.00000000  0.04457122       0.125
   0.04990518  0.02881277  0.04457122       0.125
   0.00000000  0.05762554  0.04457122       0.125
   0.04990518  0.08643831  0.04457122       0.125
 
 k-points in reciprocal lattice and weights: read from INCAR                         
   0.00000000  0.00000000  0.00000000       0.125
   0.50000000 -0.00000000 -0.00000000       0.125
   0.00000000  0.50000000  0.00000000       0.125
   0.50000000  0.50000000 -0.00000000       0.125
   0.00000000  0.00000000  0.50000000       0.125
   0.50000000 -0.00000000  0.50000000       0.125
   0.00000000  0.50000000  0.50000000       0.125
   0.50000000  0.50000000  0.50000000       0.125
 
 position of ions in fractional coordinates (direct lattice) 
   0.09904605  0.65919598  0.24955517
   0.63907966  0.79984807  0.75420036
   0.18585795  0.59732723  0.76318681
   0.89573706  0.64521207  0.74982080
   0.39376748  0.09028374  0.24998573
   0.09636346  0.13055444  0.24488767
   0.20783816  0.13193548  0.74994916
   0.89820393  0.13550365  0.75085752
   0.92106412  0.30181490  0.25343911
   0.88390527  0.80358253  0.25594847
   0.37397497  0.58921158  0.25592261
   0.62280117  0.31296035  0.75161167
   0.40615407  0.46806228  0.74178728
   0.40337754  0.97128239  0.75001424
   0.68103817  0.45833344  0.25191299
   0.71239646  0.98964770  0.24558744
   0.56230612  0.46136043  0.99806102
   0.24229458  0.30769387  0.48459171
   0.06917846  0.47714522  0.01050094
   0.74169839  0.29978764  0.50559991
   0.06257412  0.97023657  0.99806716
   0.74894140  0.80615708  0.49791672
   0.56487053  0.95895695  0.99614669
   0.24672551  0.80038184  0.51040469
   0.90303348  0.13793842  0.99271890
   0.23804336  0.29968968  0.00667910
   0.90936856  0.13722600  0.49429754
   0.57805170  0.47160395  0.49895880
   0.39366855  0.12942712  0.99347935
   0.72658317  0.29165322  0.01052769
   0.40902326  0.13453719  0.49519342
   0.08811464  0.47011490  0.49092261
   0.41083661  0.63885977  0.00283842
   0.74437025  0.81264110  0.00650892
   0.41753354  0.64062772  0.50233195
   0.07658296  0.97021352  0.49575056
   0.90233971  0.63525932  0.00507458
   0.23736161  0.80444675  0.99487590
   0.90561660  0.63161047  0.49618825
   0.57546135  0.97083127  0.50617488
   0.06262849  0.28151689  0.09387502
   0.24314339  0.14261975  0.09210643
   0.39811092  0.47561699  0.09467463
   0.07068293  0.12842444  0.57968620
   0.24948476  0.48847325  0.59576839
   0.42865784  0.30617486  0.60212246
   0.07404865  0.14268890  0.90484932
   0.24346732  0.46433737  0.90761273
   0.38044465  0.28586185  0.90326258
   0.07204017  0.30184718  0.39594846
   0.25073891  0.13022120  0.40156533
   0.43719368  0.49018933  0.41120876
   0.55608115  0.28840545  0.08605562
   0.74814118  0.14081376  0.09103227
   0.88936366  0.45934815  0.10154929
   0.57051054  0.13559882  0.59252717
   0.74570779  0.47843027  0.59029861
   0.93681357  0.30688596  0.59271882
   0.56556910  0.14295974  0.90899444
   0.74732734  0.47262853  0.91496698
   0.90109406  0.29747110  0.91184700
   0.56764412  0.29912495  0.40630860
   0.74736291  0.12660923  0.41123906
   0.92615531  0.47836112  0.40290870
   0.58072588  0.80499304  0.08923961
   0.75471546  0.64915745  0.09580941
   0.88735596  0.96994499  0.10343733
   0.57945805  0.62533390  0.59720804
   0.75300039  0.99224492  0.59285254
   0.91523501  0.79575797  0.58480921
   0.57000598  0.64559734  0.91524333
   0.75022181  0.96741638  0.90418075
   0.88603226  0.78714987  0.91732034
   0.57272710  0.80368955  0.40899892
   0.74492305  0.62699351  0.40687376
   0.92520976  0.99096448  0.39486360
   0.06316931  0.78762816  0.09617133
   0.24553388  0.65036989  0.09657603
   0.38785672  0.96319243  0.09344000
   0.06583594  0.62327782  0.58623638
   0.24131083  0.98269752  0.59033515
   0.42804153  0.80392697  0.60165179
   0.05663724  0.65227038  0.90873593
   0.23557682  0.97351316  0.90248704
   0.38467781  0.78866427  0.89942946
   0.06863862  0.80303031  0.40829915
   0.25144770  0.63293932  0.40044213
   0.42912527  0.98109553  0.40914422
 
 position of ions in cartesian coordinates  (Angst):
  -2.30989989  5.71965140  2.79951000
   2.39610021  6.94004860  8.46062000
  -1.13019995  5.18283427  8.56143000
   5.74219973  5.59831713  8.41149000
   3.49288000  0.78336573  2.80434000
   0.31145300  1.13278287  2.74715000
   1.42139973  1.14476573  8.41293000
   8.32029971  1.17572570  8.42312000
   7.71619971  2.61875997  2.84308000
   4.83030021  6.97245140  2.87123000
   0.79519984  5.11241713  2.87094000
   4.67207005  2.71546573  8.43158000
   1.72449960  4.06124003  8.32137000
  -0.82419963  8.42753427  8.41366000
   4.52730008  3.97682570  2.82596000
   2.17986003  8.58688467  2.75500000
   3.32256000  4.00309000 11.19624891
   0.88615700  2.66977000  5.43615000
  -1.69716000  4.14005000  0.11779959
   5.92929000  2.60117000  5.67182000
  -4.23347000  8.41846000 11.19631781
   3.46520000  6.99479000  5.58563000
   0.85554300  8.32059000 11.17477401
  -1.53757000  6.94468000  5.72572000
   8.35649003  1.19685143 11.13632101
   0.88366100  2.60032000  0.07492610
   8.42353005  1.19067000  5.54503000
   3.42900000  4.09197000  5.59732000
   3.29580003  1.12300143 11.14485181
   5.81860000  2.53059000  0.11809959
   3.42404000  1.16734000  5.55508000
  -1.47222000  4.07905000  5.50717000
   0.91580400  5.54320000  0.03184140
   3.38692000  7.05105000  0.07301710
   0.97404400  5.55854000  5.63516000
  -4.09300000  8.41826000  5.56133000
   5.85821005  5.51196000  0.05692660
  -1.65175000  6.97995000 11.16051831
   5.90932005  5.48030000  5.56624000
   0.90216800  8.42362000  5.67827000
  -0.78278400  2.44264000  1.05309000
   1.72160000  1.23747000  1.03325000
   1.60607000  4.12679000  1.06206000
   0.06483003  1.11430143  6.50292000
   0.05258110  4.23834000  6.68333000
   2.76094000  2.65659000  6.75461000
   0.02709340  1.23807000 10.15060000
   0.11320100  4.02892000 10.18160000
   2.37965000  2.48034000 10.13280000
  -0.79033300  2.61904000  4.44175000
   1.85981003  1.12989143  4.50476000
   1.92464000  4.25323000  4.61294000
   4.12661000  2.50241000  0.96537200
   6.79022000  1.22180000  1.02120000
   6.60943000  3.98563000  1.13918000
   5.03666283  1.17655143  6.64697000
   5.07455000  4.15120000  6.62197000
   7.84859005  2.66276000  6.64912000
   4.95028000  1.24042000 10.19710000
   5.11984000  4.10086000 10.26410000
   7.53788000  2.58107000 10.22910000
   4.18876000  2.59542000  4.55797000
   6.85358003  1.09855143  4.61328000
   6.88280005  4.15060000  4.51983000
   1.78568000  6.98469000  1.00109000
   4.30954000  5.63255000  1.07479000
   4.03148000  8.41593000  1.16036000
   2.67298000  5.42584000  6.69948000
   2.57366000  8.60942000  6.65062000
   5.18339005  6.90456000  6.56039000
   2.47677000  5.60166000 10.26720000
   2.67020000  8.39399000 10.14310000
   4.93393000  6.82987000 10.29050000
   1.71207000  6.97338000  4.58815000
   4.32246000  5.44024000  4.56431000
   4.30544005  8.59831000  4.42958000
  -3.31273000  6.83402000  1.07885000
  -0.79802400  5.64307000  1.08339000
  -0.93917600  8.35734000  1.04821000
  -2.46270000  5.40800000  6.57640000
  -2.50513000  8.52658000  6.62238000
   0.26127600  6.97544000  6.74933000
  -2.70010000  5.65956000 10.19420000
  -2.51657000  8.44689000 10.12410000
  -0.09672670  6.84301000 10.08980000
  -3.33509000  6.96766000  4.58030000
  -0.65145500  5.49183000  4.49216000
  -0.61539200  8.51268000  4.58978000
 


--------------------------------------------------------------------------------------------------------


 k-point  1 :   0.0000 0.0000 0.0000  plane waves:   17725
 k-point  2 :   0.5000-0.0000-0.0000  plane waves:   17736
 k-point  3 :   0.0000 0.5000 0.0000  plane waves:   17736
 k-point  4 :   0.5000 0.5000-0.0000  plane waves:   17736
 k-point  5 :   0.0000 0.0000 0.5000  plane waves:   17676
 k-point  6 :   0.5000-0.0000 0.5000  plane waves:   17700
 k-point  7 :   0.0000 0.5000 0.5000  plane waves:   17700
 k-point  8 :   0.5000 0.5000 0.5000  plane waves:   17700

 maximum and minimum number of plane-waves per node :     17736    17676

 maximum number of plane-waves:     17736
 maximum index in each direction: 
   IXMAX=   16   IYMAX=   16   IZMAX=   18
   IXMIN=  -16   IYMIN=  -16   IZMIN=  -18


 serial   3D FFT for wavefunctions
 parallel 3D FFT for charge:
    minimum data exchange during FFTs selected (reduces bandwidth)


 total amount of memory used by VASP MPI-rank0    88174. kBytes
=======================================================================

   base      :      30000. kBytes
   nonlr-proj:      13665. kBytes
   fftplans  :        992. kBytes
   grid      :      21513. kBytes
   one-center:       2737. kBytes
   wavefun   :      19267. kBytes
 
     INWAV:  cpu time    0.0000: real time    0.0001
 Broyden mixing: mesh for mixing (old mesh)
   NGX = 33   NGY = 33   NGZ = 37
  (NGX  =100   NGY  =100   NGZ  =112)
  gives a total of  40293 points

 initial charge density was supplied:
 charge density of overlapping atoms calculated
 number of electron     672.0000000 magnetization      48.0000000
 keeping initial charge density in first step


--------------------------------------------------------------------------------------------------------


 Maximum index for non-local projection operator         1546
 Maximum index for augmentation-charges          151 (set IRDMAX)


--------------------------------------------------------------------------------------------------------


 First call to EWALD:  gamma=   0.179
 Maximum number of real-space cells 3x 3x 2
 Maximum number of reciprocal cells 3x 3x 3

    FEWALD:  cpu time    0.0024: real time    0.0031


--------------------------------------- Iteration      1(   1)  ---------------------------------------


    POTLOK:  cpu time    0.2057: real time    0.2096
    SETDIJ:  cpu time    3.1222: real time    3.1251
    EDDIAG:  cpu time    3.8059: real time    3.8118
  RMM-DIIS:  cpu time    6.7935: real time    6.8009
    ORTHCH:  cpu time    1.1625: real time    1.1652
       DOS:  cpu time    0.0021: real time    0.0022
    --------------------------------------------
      LOOP:  cpu time   15.0920: real time   15.1149

 eigenvalue-minimisations  :  7168
 total energy-change (2. order) : 0.1859458E+04  (-0.3595691E+05)
 number of electron     672.0000000 magnetization      48.0000000
 augmentation part      672.0000000 magnetization      48.0000000

 Free energy of the ion-electron system (eV)
  ---------------------------------------------------
  alpha Z        PSCENC =      2652.81237852
  Ewald energy   TEWEN  =    -41869.74175063
  -Hartree energ DENC   =    -25745.01908831
  -exchange      EXHF   =         0.00000000
  -V(xc)+E(xc)   XCENC  =      3605.80943438
  PAW double counting   =     55594.23204139   -59034.67079123
  entropy T*S    EENTRO =        -0.05473733
  eigenvalues    EBANDS =     -7206.10809402
  atomic energy  EATOM  =     73862.19814772
  Solvation  Ediel_sol  =         0.00000000
  ---------------------------------------------------
  free energy    TOTEN  =      1859.45754049 eV

  energy without entropy =     1859.51227782  energy(sigma->0) =     1859.48490915


--------------------------------------------------------------------------------------------------------




--------------------------------------- Iteration      1(   2)  ---------------------------------------


    EDDIAG:  cpu time    3.8308: real time    3.8370
  RMM-DIIS:  cpu time    6.8754: real time    6.9246
    ORTHCH:  cpu time    1.1653: real time    1.1684
       DOS:  cpu time    0.0015: real time    0.0015
    --------------------------------------------
      LOOP:  cpu time   11.8729: real time   11.9314

 eigenvalue-minimisations  :  7168
 total energy-change (2. order) :-0.2707799E+04  (-0.8696191E+04)
 number of electron     672.0000000 magnetization      48.0000000
 augmentation part      672.0000000 magnetization      48.0000000

 Free energy of the ion-electron system (eV)
  ---------------------------------------------------
  alpha Z        PSCENC =      2652.81237852
  Ewald energy   TEWEN  =    -41869.74175063
  -Hartree energ DENC   =    -25745.01908831
  -exchange      EXHF   =         0.00000000
  -V(xc)+E(xc)   XCENC  =      3605.80943438
  PAW double counting   =     55594.23204139   -59034.67079123
  entropy T*S    EENTRO =        -0.04730588
  eigenvalues    EBANDS =     -9913.91473018
  atomic energy  EATOM  =     73862.19814772
  Solvation  Ediel_sol  =         0.00000000
  ---------------------------------------------------
  free energy    TOTEN  =      -848.34166422 eV

  energy without entropy =     -848.29435834  energy(sigma->0) =     -848.31801128


--------------------------------------------------------------------------------------------------------




--------------------------------------- Iteration      1(   3)  ---------------------------------------


    EDDIAG:  cpu time    3.8769: real time    3.8806
  RMM-DIIS:  cpu time    6.8326: real time    6.8386
    ORTHCH:  cpu time    1.2404: real time    1.2427
       DOS:  cpu time    0.0018: real time    0.0018
    --------------------------------------------
      LOOP:  cpu time   11.9518: real time   11.9637

 eigenvalue-minimisations  :  7168
 total energy-change (2. order) : 0.3144057E+03  (-0.1561910E+04)
 number of electron     672.0000000 magnetization      48.0000000
 augmentation part      672.0000000 magnetization      48.0000000

 Free energy of the ion-electron system (eV)
  ---------------------------------------------------
  alpha Z        PSCENC =      2652.81237852
  Ewald energy   TEWEN  =    -41869.74175063
  -Hartree energ DENC   =    -25745.01908831
  -exchange      EXHF   =         0.00000000
  -V(xc)+E(xc)   XCENC  =      3605.80943438
  PAW double counting   =     55594.23204139   -59034.67079123
  entropy T*S    EENTRO =        -0.03878153
  eigenvalues    EBANDS =     -9599.51759421
  atomic energy  EATOM  =     73862.19814772
  Solvation  Ediel_sol  =         0.00000000
  ---------------------------------------------------
  free energy    TOTEN  =      -533.93600390 eV

  energy without entropy =     -533.89722237  energy(sigma->0) =     -533.91661314


--------------------------------------------------------------------------------------------------------




--------------------------------------- Iteration      1(   4)  ---------------------------------------


    EDDIAG:  cpu time    3.8455: real time    3.8500
  RMM-DIIS:  cpu time    6.8366: real time    6.8410
    ORTHCH:  cpu time    1.1728: real time    1.1751
       DOS:  cpu time    0.0012: real time    0.0012
    --------------------------------------------
      LOOP:  cpu time   11.8560: real time   11.8672

 eigenvalue-minimisations  :  7168
 total energy-change (2. order) :-0.5234119E+03  (-0.5066276E+03)
 number of electron     672.0000000 magnetization      48.0000000
 augmentation part      672.0000000 magnetization      48.0000000

 Free energy of the ion-electron system (eV)
  ---------------------------------------------------
  alpha Z        PSCENC =      2652.81237852
  Ewald energy   TEWEN  =    -41869.74175063
  -Hartree energ DENC   =    -25745.01908831
  -exchange      EXHF   =         0.00000000
  -V(xc)+E(xc)   XCENC  =      3605.80943438
  PAW double counting   =     55594.23204139   -59034.67079123
  entropy T*S    EENTRO =        -0.00000000
  eigenvalues    EBANDS =    -10122.96828913
  atomic energy  EATOM  =     73862.19814772
  Solvation  Ediel_sol  =         0.00000000
  ---------------------------------------------------
  free energy    TOTEN  =     -1057.34791729 eV

  energy without entropy =    -1057.34791729  energy(sigma->0) =    -1057.34791729


--------------------------------------------------------------------------------------------------------




--------------------------------------- Iteration      1(   5)  ---------------------------------------


    EDDIAG:  cpu time    3.8440: real time    3.8488
  RMM-DIIS:  cpu time    6.8338: real time    6.8741
    ORTHCH:  cpu time    1.1628: real time    1.1662
       DOS:  cpu time    0.0010: real time    0.0010
    --------------------------------------------
      LOOP:  cpu time   11.8416: real time   11.8902

 eigenvalue-minimisations  :  7168
 total energy-change (2. order) :-0.1478151E+03  (-0.2123395E+03)
 number of electron     672.0000000 magnetization      48.0000000
 augmentation part      672.0000000 magnetization      48.0000000

 Free energy of the ion-electron system (eV)
  ---------------------------------------------------
  alpha Z        PSCENC =      2652.81237852
  Ewald energy   TEWEN  =    -41869.74175063
  -Hartree energ DENC   =    -25745.01908831
  -exchange      EXHF   =         0.00000000
  -V(xc)+E(xc)   XCENC  =      3605.80943438
  PAW double counting   =     55594.23204139   -59034.67079123
  entropy T*S    EENTRO =        -0.00000000
  eigenvalues    EBANDS =    -10270.78340772
  atomic energy  EATOM  =     73862.19814772
  Solvation  Ediel_sol  =         0.00000000
  ---------------------------------------------------
  free energy    TOTEN  =     -1205.16303588 eV

  energy without entropy =    -1205.16303588  energy(sigma->0) =    -1205.16303588


--------------------------------------------------------------------------------------------------------




--------------------------------------- Iteration      1(   6)  ---------------------------------------


    EDDIAG:  cpu time    3.8378: real time    3.8405
  RMM-DIIS:  cpu time    6.8477: real time    6.8533
    ORTHCH:  cpu time    1.1753: real time    1.1775
       DOS:  cpu time    0.0012: real time    0.0012
    --------------------------------------------
      LOOP:  cpu time   11.8620: real time   11.8725

 eigenvalue-minimisations  :  7168
 total energy-change (2. order) :-0.2190057E+02  (-0.1154201E+03)
 number of electron     672.0000000 magnetization      48.0000000
 augmentation part      672.0000000 magnetization      48.0000000

 Free energy of the ion-electron system (eV)
  ---------------------------------------------------
  alpha Z        PSCENC =      2652.81237852
  Ewald energy   TEWEN  =    -41869.74175063
  -Hartree energ DENC   =    -25745.01908831
  -exchange      EXHF   =         0.00000000
  -V(xc)+E(xc)   XCENC  =      3605.80943438
  PAW double counting   =     55594.23204139   -59034.67079123
  entropy T*S    EENTRO =        -0.00000000
  eigenvalues    EBANDS =    -10292.68397548
  atomic energy  EATOM  =     73862.19814772
  Solvation  Ediel_sol  =         0.00000000
  ---------------------------------------------------
  free energy    TOTEN  =     -1227.06360364 eV

  energy without entropy =    -1227.06360364  energy(sigma->0) =    -1227.06360364


--------------------------------------------------------------------------------------------------------




--------------------------------------- Iteration      1(   7)  ---------------------------------------


    EDDIAG:  cpu time    3.8355: real time    3.8410
  RMM-DIIS:  cpu time    6.8392: real time    6.8466
    ORTHCH:  cpu time    1.2243: real time    1.2401
       DOS:  cpu time    0.0011: real time    0.0011
    --------------------------------------------
      LOOP:  cpu time   11.9001: real time   11.9289

 eigenvalue-minimisations  :  7168
 total energy-change (2. order) :-0.6681203E+01  (-0.7629478E+02)
 number of electron     672.0000000 magnetization      48.0000000
 augmentation part      672.0000000 magnetization      48.0000000

 Free energy of the ion-electron system (eV)
  ---------------------------------------------------
  alpha Z        PSCENC =      2652.81237852
  Ewald energy   TEWEN  =    -41869.74175063
  -Hartree energ DENC   =    -25745.01908831
  -exchange      EXHF   =         0.00000000
  -V(xc)+E(xc)   XCENC  =      3605.80943438
  PAW double counting   =     55594.23204139   -59034.67079123
  entropy T*S    EENTRO =        -0.00000000
  eigenvalues    EBANDS =    -10299.36517833
  atomic energy  EATOM  =     73862.19814772
  Solvation  Ediel_sol  =         0.00000000
  ---------------------------------------------------
  free energy    TOTEN  =     -1233.74480649 eV

  energy without entropy =    -1233.74480649  energy(sigma->0) =    -1233.74480649


--------------------------------------------------------------------------------------------------------




--------------------------------------- Iteration      1(   8)  ---------------------------------------


    EDDIAG:  cpu time    3.8523: real time    3.8554
  RMM-DIIS:  cpu time    6.8670: real time    6.8736
    ORTHCH:  cpu time    1.1970: real time    1.1993
       DOS:  cpu time    0.0012: real time    0.0012
    --------------------------------------------
      LOOP:  cpu time   11.9175: real time   11.9295

 eigenvalue-minimisations  :  7168
 total energy-change (2. order) : 0.4694724E+01  (-0.5288454E+02)
 number of electron     672.0000000 magnetization      48.0000000
 augmentation part      672.0000000 magnetization      48.0000000

 Free energy of the ion-electron system (eV)
  ---------------------------------------------------
  alpha Z        PSCENC =      2652.81237852
  Ewald energy   TEWEN  =    -41869.74175063
  -Hartree energ DENC   =    -25745.01908831
  -exchange      EXHF   =         0.00000000
  -V(xc)+E(xc)   XCENC  =      3605.80943438
  PAW double counting   =     55594.23204139   -59034.67079123
  entropy T*S    EENTRO =        -0.00000000
  eigenvalues    EBANDS =    -10294.67045420
  atomic energy  EATOM  =     73862.19814772
  Solvation  Ediel_sol  =         0.00000000
  ---------------------------------------------------
  free energy    TOTEN  =     -1229.05008235 eV

  energy without entropy =    -1229.05008235  energy(sigma->0) =    -1229.05008235


--------------------------------------------------------------------------------------------------------




--------------------------------------- Iteration      1(   9)  ---------------------------------------


    EDDIAG:  cpu time    3.8416: real time    3.8461
  RMM-DIIS:  cpu time   14.1959: real time   14.2306
    ORTHCH:  cpu time    1.1640: real time    1.1668
       DOS:  cpu time    0.0011: real time    0.0011
    --------------------------------------------
      LOOP:  cpu time   19.2026: real time   19.2445

 eigenvalue-minimisations  : 20241
 total energy-change (2. order) : 0.1812022E+02  (-0.2376745E+02)
 number of electron     672.0000000 magnetization      48.0000000
 augmentation part      672.0000000 magnetization      48.0000000

 Free energy of the ion-electron system (eV)
  ---------------------------------------------------
  alpha Z        PSCENC =      2652.81237852
  Ewald energy   TEWEN  =    -41869.74175063
  -Hartree energ DENC   =    -25745.01908831
  -exchange      EXHF   =         0.00000000
  -V(xc)+E(xc)   XCENC  =      3605.80943438
  PAW double counting   =     55594.23204139   -59034.67079123
  entropy T*S    EENTRO =        -0.00000000
  eigenvalues    EBANDS =    -10276.55023532
  atomic energy  EATOM  =     73862.19814772
  Solvation  Ediel_sol  =         0.00000000
  ---------------------------------------------------
  free energy    TOTEN  =     -1210.92986348 eV

  energy without entropy =    -1210.92986348  energy(sigma->0) =    -1210.92986348


--------------------------------------------------------------------------------------------------------




--------------------------------------- Iteration      1(  10)  ---------------------------------------


    EDDIAG:  cpu time    3.8544: real time    3.8576
  RMM-DIIS:  cpu time   15.6597: real time   15.6697
    ORTHCH:  cpu time    1.1754: real time    1.1776
       DOS:  cpu time    0.0012: real time    0.0012
    --------------------------------------------
      LOOP:  cpu time   20.6907: real time   20.7061

 eigenvalue-minimisations  : 20200
 total energy-change (2. order) :-0.3066342E+01  (-0.1035435E+01)
 number of electron     672.0000000 magnetization      48.0000000
 augmentation part      672.0000000 magnetization      48.0000000

 Free energy of the ion-electron system (eV)
  ---------------------------------------------------
  alpha Z        PSCENC =      2652.81237852
  Ewald energy   TEWEN  =    -41869.74175063
  -Hartree energ DENC   =    -25745.01908831
  -exchange      EXHF   =         0.00000000
  -V(xc)+E(xc)   XCENC  =      3605.80943438
  PAW double counting   =     55594.23204139   -59034.67079123
  entropy T*S    EENTRO =        -0.00000000
  eigenvalues    EBANDS =    -10279.61657774
  atomic energy  EATOM  =     73862.19814772
  Solvation  Ediel_sol  =         0.00000000
  ---------------------------------------------------
  free energy    TOTEN  =     -1213.99620590 eV

  energy without entropy =    -1213.99620590  energy(sigma->0) =    -1213.99620590


--------------------------------------------------------------------------------------------------------




--------------------------------------- Iteration      1(  11)  ---------------------------------------


    EDDIAG:  cpu time    3.8582: real time    3.8619
  RMM-DIIS:  cpu time   15.0374: real time   15.0769
    ORTHCH:  cpu time    1.2718: real time    1.2742
       DOS:  cpu time    0.0013: real time    0.0013
    --------------------------------------------
      LOOP:  cpu time   20.1687: real time   20.2144

 eigenvalue-minimisations  : 21713
 total energy-change (2. order) : 0.1050533E+00  (-0.9796192E-01)
 number of electron     672.0000000 magnetization      48.0000000
 augmentation part      672.0000000 magnetization      48.0000000

 Free energy of the ion-electron system (eV)
  ---------------------------------------------------
  alpha Z        PSCENC =      2652.81237852
  Ewald energy   TEWEN  =    -41869.74175063
  -Hartree energ DENC   =    -25745.01908831
  -exchange      EXHF   =         0.00000000
  -V(xc)+E(xc)   XCENC  =      3605.80943438
  PAW double counting   =     55594.23204139   -59034.67079123
  entropy T*S    EENTRO =        -0.00000000
  eigenvalues    EBANDS =    -10279.51152443
  atomic energy  EATOM  =     73862.19814772
  Solvation  Ediel_sol  =         0.00000000
  ---------------------------------------------------
  free energy    TOTEN  =     -1213.89115259 eV

  energy without entropy =    -1213.89115258  energy(sigma->0) =    -1213.89115259


--------------------------------------------------------------------------------------------------------




--------------------------------------- Iteration      1(  12)  ---------------------------------------


    EDDIAG:  cpu time    3.8383: real time    3.8429
  RMM-DIIS:  cpu time   16.2165: real time   16.2705
    ORTHCH:  cpu time    1.1711: real time    1.1734
       DOS:  cpu time    0.0013: real time    0.0013
    CHARGE:  cpu time    1.3834: real time    1.3852
    MIXING:  cpu time    0.0013: real time    0.0015
    --------------------------------------------
      LOOP:  cpu time   22.6118: real time   22.6747

 eigenvalue-minimisations  : 22851
 total energy-change (2. order) : 0.7099340E-02  (-0.6800432E-02)
 number of electron     671.9999794 magnetization      48.0000027
 augmentation part      239.0242790 magnetization      29.0282404

 Broyden mixing:
  rms(total) = 0.12531E+02    rms(broyden)= 0.12521E+02
  rms(prec ) = 0.14390E+02
  weight for this iteration     100.00

 Free energy of the ion-electron system (eV)
  ---------------------------------------------------
  alpha Z        PSCENC =      2652.81237852
  Ewald energy   TEWEN  =    -41869.74175063
  -Hartree energ DENC   =    -25745.01908831
  -exchange      EXHF   =         0.00000000
  -V(xc)+E(xc)   XCENC  =      3605.80943438
  PAW double counting   =     55594.23204139   -59034.67079123
  entropy T*S    EENTRO =        -0.00000000
  eigenvalues    EBANDS =    -10279.50442509
  atomic energy  EATOM  =     73862.19814772
  Solvation  Ediel_sol  =         0.00000000
  ---------------------------------------------------
  free energy    TOTEN  =     -1213.88405325 eV

  energy without entropy =    -1213.88405325  energy(sigma->0) =    -1213.88405325


--------------------------------------------------------------------------------------------------------




--------------------------------------- Iteration      1(  13)  ---------------------------------------


    POTLOK:  cpu time    0.1941: real time    0.1957
    SETDIJ:  cpu time    3.3064: real time    3.3075
    EDDIAG:  cpu time    3.8761: real time    3.8790
  RMM-DIIS:  cpu time   13.3024: real time   13.3108
    ORTHCH:  cpu time    1.1854: real time    1.1877
       DOS:  cpu time    0.0015: real time    0.0015
    CHARGE:  cpu time    1.3843: real time    1.3849
    MIXING:  cpu time    0.0008: real time    0.0009
    --------------------------------------------
      LOOP:  cpu time   23.2511: real time   23.2681

 eigenvalue-minimisations  : 17334
 total energy-change (2. order) : 0.2237744E+03  (-0.1382414E+03)
 number of electron     671.9999841 magnetization      48.0000034
 augmentation part      269.2055012 magnetization      26.4205162

 Broyden mixing:
  rms(total) = 0.14028E+02    rms(broyden)= 0.14025E+02
  rms(prec ) = 0.15783E+02
  weight for this iteration     100.00

 eigenvalues of (default mixing * dielectric matrix)
  average eigenvalue GAMMA=   0.3160
  0.3160

 Free energy of the ion-electron system (eV)
  ---------------------------------------------------
  alpha Z        PSCENC =      2652.81237852
  Ewald energy   TEWEN  =    -41869.74175063
  -Hartree energ DENC   =    -25069.49940224
  -exchange      EXHF   =         0.00000000
  -V(xc)+E(xc)   XCENC  =      3695.93012515
  PAW double counting   =     59863.79723238   -63288.67883719
  entropy T*S    EENTRO =        -0.08011568
  eigenvalues    EBANDS =    -10836.84739215
  atomic energy  EATOM  =     73862.19814772
  Solvation  Ediel_sol  =         0.00000000
  ---------------------------------------------------
  free energy    TOTEN  =      -990.10961412 eV

  energy without entropy =     -990.02949844  energy(sigma->0) =     -990.06955628


--------------------------------------------------------------------------------------------------------




--------------------------------------- Iteration      1(  14)  ---------------------------------------


    POTLOK:  cpu time    0.2058: real time    0.2059
    SETDIJ:  cpu time    3.2782: real time    3.2999
    EDDIAG:  cpu time    3.8671: real time    3.8705
  RMM-DIIS:  cpu time   13.8183: real time   13.8275
    ORTHCH:  cpu time    1.1832: real time    1.1856
       DOS:  cpu time    0.0010: real time    0.0010
    CHARGE:  cpu time    1.3808: real time    1.3817
    MIXING:  cpu time    0.0007: real time    0.0007
    --------------------------------------------
      LOOP:  cpu time   23.7351: real time   23.7728

 eigenvalue-minimisations  : 17741
 total energy-change (2. order) : 0.7511722E+02  (-0.1893274E+02)
 number of electron     671.9999814 magnetization      48.0000053
 augmentation part      246.5987424 magnetization      32.1910752

 Broyden mixing:
  rms(total) = 0.52368E+01    rms(broyden)= 0.52324E+01
  rms(prec ) = 0.56611E+01
  weight for this iteration     100.00

 eigenvalues of (default mixing * dielectric matrix)
  average eigenvalue GAMMA=   0.7280
  1.0979  0.3581

 Free energy of the ion-electron system (eV)
  ---------------------------------------------------
  alpha Z        PSCENC =      2652.81237852
  Ewald energy   TEWEN  =    -41869.74175063
  -Hartree energ DENC   =    -25682.48936146
  -exchange      EXHF   =         0.00000000
  -V(xc)+E(xc)   XCENC  =      3673.45368172
  PAW double counting   =     63274.13498071   -66756.01299512
  entropy T*S    EENTRO =        -0.00000000
  eigenvalues    EBANDS =    -10069.34747815
  atomic energy  EATOM  =     73862.19814772
  Solvation  Ediel_sol  =         0.00000000
  ---------------------------------------------------
  free energy    TOTEN  =      -914.99239670 eV

  energy without entropy =     -914.99239670  energy(sigma->0) =     -914.99239670


--------------------------------------------------------------------------------------------------------




--------------------------------------- Iteration      1(  15)  ---------------------------------------


    POTLOK:  cpu time    0.2007: real time    0.2024
    SETDIJ:  cpu time    3.3004: real time    3.3018
    EDDIAG:  cpu time    3.8489: real time    3.8542
  RMM-DIIS:  cpu time   13.6531: real time   13.6846
    ORTHCH:  cpu time    1.1740: real time    1.1763
       DOS:  cpu time    0.0010: real time    0.0010
    CHARGE:  cpu time    1.3736: real time    1.3754
    MIXING:  cpu time    0.0007: real time    0.0007
    --------------------------------------------
      LOOP:  cpu time   23.5523: real time   23.5962

 eigenvalue-minimisations  : 18402
 total energy-change (2. order) : 0.1382002E+02  (-0.2131243E+01)
 number of electron     671.9999820 magnetization      48.0000067
 augmentation part      249.6916434 magnetization      33.8179337

 Broyden mixing:
  rms(total) = 0.21571E+01    rms(broyden)= 0.21568E+01
  rms(prec ) = 0.22371E+01
  weight for this iteration     100.00

 eigenvalues of (default mixing * dielectric matrix)
  average eigenvalue GAMMA=   0.9424
  1.6938  0.3827  0.7507

 Free energy of the ion-electron system (eV)
  ---------------------------------------------------
  alpha Z        PSCENC =      2652.81237852
  Ewald energy   TEWEN  =    -41869.74175063
  -Hartree energ DENC   =    -25600.00761252
  -exchange      EXHF   =         0.00000000
  -V(xc)+E(xc)   XCENC  =      3706.18306259
  PAW double counting   =     67356.93369736   -70879.19366601
  entropy T*S    EENTRO =        -0.00000000
  eigenvalues    EBANDS =    -10130.35663783
  atomic energy  EATOM  =     73862.19814772
  Solvation  Ediel_sol  =         0.00000000
  ---------------------------------------------------
  free energy    TOTEN  =      -901.17238080 eV

  energy without entropy =     -901.17238080  energy(sigma->0) =     -901.17238080


--------------------------------------------------------------------------------------------------------




--------------------------------------- Iteration      1(  16)  ---------------------------------------


    POTLOK:  cpu time    0.2071: real time    0.2072
    SETDIJ:  cpu time    3.6317: real time    3.6323
    EDDIAG:  cpu time    3.8845: real time    3.8875
  RMM-DIIS:  cpu time   13.3128: real time   13.3420
    ORTHCH:  cpu time    1.1699: real time    1.1724
       DOS:  cpu time    0.0010: real time    0.0010
    CHARGE:  cpu time    1.3774: real time    1.3778
    MIXING:  cpu time    0.0010: real time    0.0010
    --------------------------------------------
      LOOP:  cpu time   23.5853: real time   23.6213

 eigenvalue-minimisations  : 17443
 total energy-change (2. order) :-0.1543091E+01  (-0.7030549E+00)
 number of electron     671.9999825 magnetization      48.0000072
 augmentation part      251.1650903 magnetization      33.9214608

 Broyden mixing:
  rms(total) = 0.14530E+01    rms(broyden)= 0.14525E+01
  rms(prec ) = 0.15421E+01
  weight for this iteration     100.00

 eigenvalues of (default mixing * dielectric matrix)
  average eigenvalue GAMMA=   0.9676
  2.0639  0.8987  0.3894  0.5185

 Free energy of the ion-electron system (eV)
  ---------------------------------------------------
  alpha Z        PSCENC =      2652.81237852
  Ewald energy   TEWEN  =    -41869.74175063
  -Hartree energ DENC   =    -25549.31782784
  -exchange      EXHF   =         0.00000000
  -V(xc)+E(xc)   XCENC  =      3707.24074138
  PAW double counting   =     70258.15807930   -73809.91826043
  entropy T*S    EENTRO =        -0.00000000
  eigenvalues    EBANDS =    -10154.14698031
  atomic energy  EATOM  =     73862.19814772
  Solvation  Ediel_sol  =         0.00000000
  ---------------------------------------------------
  free energy    TOTEN  =      -902.71547228 eV

  energy without entropy =     -902.71547228  energy(sigma->0) =     -902.71547228


--------------------------------------------------------------------------------------------------------




--------------------------------------- Iteration      1(  17)  ---------------------------------------


    POTLOK:  cpu time    0.2100: real time    0.2102
    SETDIJ:  cpu time    3.3424: real time    3.3431
    EDDIAG:  cpu time    3.8576: real time    3.8616
  RMM-DIIS:  cpu time   14.0286: real time   14.0482
    ORTHCH:  cpu time    1.1739: real time    1.1762
       DOS:  cpu time    0.0011: real time    0.0011
    CHARGE:  cpu time    1.3829: real time    1.3839
    MIXING:  cpu time    0.0016: real time    0.0016
    --------------------------------------------
      LOOP:  cpu time   23.9982: real time   24.0261

 eigenvalue-minimisations  : 18515
 total energy-change (2. order) : 0.1531784E+00  ( 0.7094614E-01)
 number of electron     671.9999824 magnetization      48.0000076
 augmentation part      251.0982232 magnetization      33.9216584

 Broyden mixing:
  rms(total) = 0.77355E+00    rms(broyden)= 0.77343E+00
  rms(prec ) = 0.87267E+00
  weight for this iteration     100.00

 eigenvalues of (default mixing * dielectric matrix)
  average eigenvalue GAMMA=   0.9969
  2.2277  1.1248  0.3796  0.6962  0.5564

 Free energy of the ion-electron system (eV)
  ---------------------------------------------------
  alpha Z        PSCENC =      2652.81237852
  Ewald energy   TEWEN  =    -41869.74175063
  -Hartree energ DENC   =    -25541.06066694
  -exchange      EXHF   =         0.00000000
  -V(xc)+E(xc)   XCENC  =      3704.54060147
  PAW double counting   =     71115.78782616   -74675.94384882
  entropy T*S    EENTRO =        -0.00000000
  eigenvalues    EBANDS =    -10151.15498139
  atomic energy  EATOM  =     73862.19814772
  Solvation  Ediel_sol  =         0.00000000
  ---------------------------------------------------
  free energy    TOTEN  =      -902.56229391 eV

  energy without entropy =     -902.56229391  energy(sigma->0) =     -902.56229391


--------------------------------------------------------------------------------------------------------




--------------------------------------- Iteration      1(  18)  ---------------------------------------


    POTLOK:  cpu time    0.2001: real time    0.2013
    SETDIJ:  cpu time    3.3135: real time    3.3153
    EDDIAG:  cpu time    3.8389: real time    3.8420
  RMM-DIIS:  cpu time   13.4042: real time   13.4124
    ORTHCH:  cpu time    1.1847: real time    1.1880
       DOS:  cpu time    0.0012: real time    0.0012
    CHARGE:  cpu time    1.3792: real time    1.3796
    MIXING:  cpu time    0.0009: real time    0.0009
    --------------------------------------------
      LOOP:  cpu time   23.3228: real time   23.3406

 eigenvalue-minimisations  : 17580
 total energy-change (2. order) : 0.4049858E+00  (-0.7733557E-01)
 number of electron     671.9999822 magnetization      48.0000077
 augmentation part      250.5893069 magnetization      33.8842602

 Broyden mixing:
  rms(total) = 0.27596E+00    rms(broyden)= 0.27567E+00
  rms(prec ) = 0.28945E+00
  weight for this iteration     100.00

 eigenvalues of (default mixing * dielectric matrix)
  average eigenvalue GAMMA=   1.0217
  2.4711  1.3623  0.8532  0.3811  0.5819  0.4808

 Free energy of the ion-electron system (eV)
  ---------------------------------------------------
[...]
   4      -0.895    -0.926     1.821     0.067     0.088     0.069
   5      -0.917    -0.952     1.869     0.054     0.080     0.063
   6      -0.615    -0.878     1.493    -0.007    -0.057    -0.490
   7      -0.581    -0.945     1.526    -0.056     0.122     0.489
   8      -0.982    -1.062     2.044     0.060     0.006     0.017
   9      -0.842    -0.765     1.607    -0.044     0.490     0.276
  10      -0.812    -0.734     1.546    -0.105     0.409     0.198
  11      -0.958    -0.958     1.916     0.049    -0.131     0.092
  12      -0.795    -0.631     1.426     0.117     0.370    -0.276
  13      -0.873    -0.709     1.583    -0.072    -0.374    -0.293
  14      -0.830    -0.814     1.644    -0.104    -0.488    -0.231
  15      -0.752    -0.620     1.372     0.148    -0.400     0.242
  16      -0.827    -0.748     1.575     0.066    -0.361     0.208
  17       1.466     1.471    -2.937    -0.182     0.026    -0.021
  18       1.255     1.547    -2.802     0.131    -0.038    -0.039
  19       1.220     1.597    -2.817     0.075    -0.013     0.059
  20       1.383     1.534    -2.917    -0.030    -0.089    -0.022
  21       1.393     1.534    -2.926     0.145    -0.049    -0.027
  22       1.581     1.325    -2.906    -0.094     0.007     0.005
  23       1.527     1.426    -2.953    -0.157     0.110    -0.078
  24       1.444     1.424    -2.868     0.007     0.093     0.054
  25       0.526    -1.053     0.527     0.609    -0.621     0.182
  26       0.527    -0.597     0.071     0.645     0.563     0.417
  27      -0.623     1.587    -0.965    -1.356     0.503    -0.891
  28       0.172     0.735    -0.907     1.020    -0.958     1.113
  29      -1.102     0.370     0.732    -0.679    -0.536    -0.561
  30      -3.280    -0.454     3.734     0.661    -1.320    -0.468
  31      -1.102     0.751     0.351    -0.572    -0.404    -0.185
  32       0.898     0.160    -1.058     0.034    -0.437     0.127
  33      -1.149    -0.400     1.549    -0.422     1.014     1.555
  34      -0.390     0.854    -0.464     1.687     0.835    -2.208
  35       0.219     0.885    -1.103     0.103     0.730     0.454
  36       0.188    -1.882     1.694     1.108    -0.849    -0.172
  37      -0.719     0.543     0.176    -0.254     0.575    -0.512
  38      -0.392     1.596    -1.204    -0.502    -0.845    -0.856
  39      -1.553    -0.625     2.178     0.532     0.378     0.232
  40       0.029    -0.091     0.062     0.247    -0.853     0.956
  41      -4.331     4.447    -0.116    -4.354    -0.489    -3.070
  42      -0.955     0.251     0.704     5.947     3.278     3.738
  43       6.051    -7.727     1.677    -0.374    -4.592     2.338
  44      -2.808     0.808     2.000     5.508    -1.942    -5.101
  45      -1.523     2.848    -1.325    -6.700    -1.919     3.532
  46       6.912    -4.550    -2.362    -0.984     2.472     0.543
  47      -4.133     3.263     0.870    -2.686     1.095    -5.046
  48       4.435    -4.296    -0.139    -1.217    -5.591    -0.362
  49      -0.906     1.488    -0.582     5.630     2.745     2.392
  50       4.347    -5.308     0.961    -0.527     3.918    -1.576
  51      -3.902     2.917     0.984    -3.691    -2.642     4.705
  52      -3.507     2.843     0.664     6.304    -2.396    -3.891
  53      -6.034     2.300     3.733    -2.263     2.289    -5.318
  54      -3.555     2.651     0.904     5.130     2.203     3.811
  55       3.739    -5.622     1.882    -2.074    -4.357    -0.696
  56      -2.015     0.281     1.734     4.073    -2.599    -4.552
  57      -2.425     1.880     0.545    -4.497    -1.124     4.388
  58       7.747    -6.768    -0.978    -1.387     4.076    -0.274
  59      -4.126     3.623     0.503    -4.090     1.176    -4.324
  60       4.816    -4.991     0.175    -1.022    -3.167     1.152
  61      -2.009    -1.018     3.027     6.059     2.453     6.226
  62       3.836    -6.244     2.408     0.267     4.393     0.891
  63      -4.047     3.994     0.054    -4.848    -2.842     3.466
  64      -4.946     3.917     1.029     4.116    -1.890    -3.818
  65      -2.596    -0.523     3.119    -5.605     2.718    -5.367
  66      -2.482     0.746     1.737     5.608     2.761     3.223
  67       5.402    -3.689    -1.713    -1.838    -3.088    -2.661
  68      -2.859     2.839     0.020     4.296    -2.497    -4.299
  69      -2.791     2.538     0.253    -5.282    -1.047     5.132
  70       5.402    -6.997     1.595    -0.528     5.750    -0.322
  71      -4.485     3.022     1.463    -3.972     5.402    -2.699
  72       5.056    -5.508     0.451     0.555    -3.154     1.279
  73      -1.169     2.313    -1.144     6.942     2.793     3.820
  74       5.097    -6.000     0.903     0.705     5.744     0.538
  75      -3.931     2.634     1.297    -4.147    -2.928     3.480
  76      -3.175     4.083    -0.908     4.709    -1.912    -2.284
  77      -2.781     3.392    -0.611    -5.779     2.577    -4.450
  78      -1.763     1.618     0.145     4.346     1.103     5.075
  79       6.987    -6.142    -0.845     1.133    -4.649    -0.416
  80      -3.478     2.781     0.698     4.298    -1.505    -4.355
  81      -3.753     3.322     0.430    -4.624    -1.787     3.162
  82       6.405    -6.158    -0.247    -0.426     3.818     0.793
  83      -3.081     3.283    -0.201    -6.739     2.518    -3.363
  84       3.287    -5.883     2.597    -0.470    -5.807    -1.582
  85      -4.543     4.799    -0.256     4.319     2.745     1.808
  86       4.308    -5.873     1.565    -0.484     5.369    -0.783
  87      -2.552     1.636     0.916    -5.487    -3.668     3.847
  88      -3.145     2.890     0.255     7.469    -3.757    -3.805
 ---------------------------------------------------------------------


 Total hyperfine coupling parameters after diagonalization (MHz)
 (convention: |A_zz| > |A_xx| > |A_yy|)
 ----------------------------------------------------------------------
  ion      A_xx      A_yy      A_zz     asymmetry (A_yy - A_xx)/ A_zz 
 ----------------------------------------------------------------------
   1       2.011     1.682     4.195      -0.079
   2       1.667     1.306     3.753      -0.096
   3       1.770     1.431     3.863      -0.088
   4       0.213     0.081     2.886      -0.046
   5      -0.255    -0.145     2.609       0.042
   6       1.865     1.504     4.072      -0.089
   7       2.542     2.064     4.740      -0.101
   8      -0.700    -0.556     2.438       0.059
   9       2.556     2.318     5.031      -0.047
  10       2.724     2.422     5.015      -0.060
  11       0.252     0.146     3.086      -0.034
  12       1.948     1.577     4.037      -0.092
  13       2.496     2.202     4.855      -0.061
  14       1.974     1.670     4.452      -0.068
  15       1.594     1.176     3.584      -0.117
  16       2.672     2.448     5.027      -0.045
  17      14.994    10.770    15.357      -0.275
  18      13.128     9.121    13.521      -0.296
  19      13.114     9.091    13.520      -0.298
  20      14.305    10.007    14.466      -0.297
  21      13.767     9.537    14.089      -0.300
  22      14.057     9.857    14.375      -0.292
  23      14.403    10.134    14.737      -0.290
  24      14.144     9.852    14.172      -0.303
  25      96.115    94.626    97.160      -0.015
  26      96.575    95.963    98.113      -0.006
  27      91.859    91.720    95.584      -0.001
  28      94.848    91.993    95.778      -0.030
  29      98.542    96.513    99.240      -0.020
  30     101.421    98.224   105.897      -0.030
  31      97.242    95.412    97.711      -0.019
  32      95.155    93.818    95.974      -0.014
  33      98.149    96.459   101.119      -0.017
  34      94.552    90.991    96.941      -0.037
  35     100.766    98.876   101.446      -0.019
  36      98.298    95.731   100.280      -0.026
  37      92.050    91.124    93.197      -0.010
  38      96.005    93.857    97.735      -0.022
  39      94.663    93.286    97.342      -0.014
  40      99.047    97.422   100.009      -0.016
  41       6.579     0.665    14.460      -0.409
  42       6.303     2.353    17.395      -0.227
  43       7.339    -0.192    17.220      -0.437
  44       6.088     0.797    16.791      -0.315
  45       6.951     3.264    18.937      -0.195
  46       4.352     2.122    14.616      -0.153
  47       2.878     0.595    13.587      -0.168
  48       1.128    -0.878    12.486      -0.161
  49       5.929     2.416    15.605      -0.225
  50       5.229     0.888    13.651      -0.318
  51       4.301     1.535    15.548      -0.178
  52       7.863     2.261    18.830      -0.297
  53       5.656     1.272    17.064      -0.257
  54       6.159     1.463    16.109      -0.292
  55       4.879    -0.614    13.195      -0.416
  56       3.293     0.682    13.726      -0.190
  57       5.526     1.606    14.758      -0.266
  58       4.937     0.606    16.982      -0.255
  59       5.787     1.863    15.845      -0.248
  60       4.511     0.609    12.459      -0.313
  61       7.850     1.488    20.014      -0.318
  62       5.112     0.050    14.007      -0.361
  63       5.883     1.286    16.369      -0.281
  64       4.713    -0.366    14.307      -0.355
  65       7.416     1.990    19.051      -0.285
  66       4.424    -1.118    13.484      -0.411
  67       9.024     2.712    15.802      -0.399
  68       3.234     1.058    14.405      -0.151
  69       5.121     0.465    15.876      -0.293
  70       4.332    -0.131    16.468      -0.271
  71       6.835    -1.020    15.458      -0.508
  72       8.408     3.239    15.812      -0.327
  73       4.289     0.886    17.253      -0.197
  74       5.487     2.549    17.768      -0.165
  75       5.731     1.125    14.997      -0.307
  76       6.071     2.250    15.277      -0.250
  77       2.769    -0.249    15.476      -0.195
  78       3.544    -0.242    13.289      -0.285
  79       5.559     2.324    17.807      -0.182
  80      -1.857     1.772    11.778       0.308
  81       5.662     1.047    14.567      -0.317
  82       7.931     3.387    17.872      -0.254
  83       7.140     1.786    18.539      -0.289
  84       7.344     3.109    18.422      -0.230
  85       8.599     2.395    16.682      -0.372
  86       4.248     0.868    15.353      -0.220
  87       5.675     1.626    16.986      -0.238
  88       7.691     1.651    20.584      -0.293
 ---------------------------------------------------------------------



--------------------------------------------------------------------------------------------------------


 stress matrix after NEB project (eV)
    -45.48913     -0.90717     -2.23081
     -0.90195    -46.15026      1.34929
     -2.21142      1.36308    -63.43309
  FORCES: max atom, RMS     2.476049    1.168294
  FORCE total and by dimension   10.959569    2.134666
  Stress total and by dimension   90.763683   63.433090
     LOOP+:  cpu time  614.8798: real time  615.9299
    4ORBIT:  cpu time    0.0000: real time    0.0000
 


 total charge     
 
# of ion       s       p       d       tot
------------------------------------------
    1        0.052   5.994   0.000   6.045
    2        0.050   5.993   0.000   6.043
    3        0.047   5.989   0.000   6.036
    4        0.047   5.990   0.000   6.037
    5        0.052   5.998   0.000   6.050
    6        0.055   5.998   0.000   6.054
    7        0.051   5.993   0.000   6.043
    8        0.051   5.995   0.000   6.045
    9        0.055   5.997   0.000   6.051
   10        0.055   5.996   0.000   6.051
   11        0.054   5.999   0.000   6.053
   12        0.050   5.991   0.000   6.041
   13        0.051   5.992   0.000   6.042
   14        0.047   5.989   0.000   6.036
   15        0.049   5.991   0.000   6.040
   16        0.053   5.996   0.000   6.049
   17        0.150   6.129   0.085   6.364
   18        0.146   6.122   0.079   6.347
   19        0.146   6.122   0.078   6.346
   20        0.148   6.128   0.084   6.360
   21        0.151   6.132   0.087   6.370
   22        0.149   6.128   0.084   6.361
   23        0.149   6.129   0.085   6.363
   24        0.145   6.121   0.079   6.345
   25        0.379   6.457   4.853  11.690
   26        0.370   6.445   4.816  11.631
   27        0.391   6.486   4.867  11.744
   28        0.384   6.473   4.847  11.705
   29        0.378   6.462   4.839  11.679
   30        0.363   6.425   4.801  11.589
   31        0.373   6.450   4.827  11.650
   32        0.366   6.436   4.807  11.609
   33        0.366   6.427   4.814  11.607
   34        0.390   6.485   4.868  11.742
   35        0.366   6.436   4.819  11.620
   36        0.368   6.440   4.809  11.617
   37        0.400   6.508   4.883  11.791
   38        0.362   6.426   4.803  11.591
   39        0.383   6.470   4.840  11.693
   40        0.369   6.442   4.816  11.628
   41        1.598   3.501   0.000   5.099
   42        1.600   3.522   0.000   5.123
   43        1.602   3.495   0.000   5.097
   44        1.600   3.523   0.000   5.122
   45        1.600   3.486   0.000   5.086
   46        1.596   3.458   0.000   5.053
   47        1.599   3.508   0.000   5.106
   48        1.598   3.461   0.000   5.059
   49        1.599   3.510   0.000   5.108
   50        1.597   3.526   0.000   5.123
   51        1.598   3.507   0.000   5.105
   52        1.604   3.527   0.000   5.131
   53        1.600   3.522   0.000   5.123
   54        1.601   3.521   0.000   5.122
   55        1.594   3.496   0.000   5.090
   56        1.599   3.518   0.000   5.117
   57        1.599   3.526   0.000   5.124
   58        1.603   3.459   0.000   5.062
   59        1.597   3.511   0.000   5.108
   60        1.596   3.509   0.000   5.105
   61        1.604   3.465   0.000   5.069
   62        1.598   3.501   0.000   5.100
   63        1.600   3.532   0.000   5.132
   64        1.595   3.489   0.000   5.085
   65        1.602   3.529   0.000   5.131
   66        1.598   3.509   0.000   5.107
   67        1.597   3.507   0.000   5.104
   68        1.599   3.496   0.000   5.096
   69        1.598   3.510   0.000   5.108
   70        1.602   3.503   0.000   5.105
   71        1.600   3.519   0.000   5.119
   72        1.598   3.527   0.000   5.124
   73        1.604   3.521   0.000   5.124
   74        1.600   3.482   0.000   5.083
   75        1.599   3.533   0.000   5.132
   76        1.595   3.508   0.000   5.103
   77        1.599   3.489   0.000   5.088
   78        1.596   3.494   0.000   5.090
   79        1.604   3.476   0.000   5.080
   80        1.597   3.503   0.000   5.100
   81        1.598   3.502   0.000   5.100
   82        1.598   3.493   0.000   5.090
   83        1.600   3.525   0.000   5.125
   84        1.601   3.500   0.000   5.101
   85        1.596   3.494   0.000   5.090
   86        1.598   3.495   0.000   5.093
   87        1.600   3.490   0.000   5.090
   88        1.605   3.490   0.000   5.094
--------------------------------------------------
tot         84.767 416.348  77.969 579.084
 


 magnetization (x)
 
# of ion       s       p       d       tot
------------------------------------------
    1        0.002   0.000   0.000   0.002
    2        0.002   0.000   0.000   0.002
    3        0.002   0.000   0.000   0.002
    4        0.001   0.000   0.000   0.001
    5        0.001   0.000   0.000   0.001
    6        0.002   0.000   0.000   0.002
    7        0.002   0.001   0.000   0.003
    8        0.000   0.000   0.000   0.000
    9        0.002   0.000   0.000   0.003
   10        0.002   0.000   0.000   0.003
   11        0.001   0.000   0.000   0.001
   12        0.002   0.000   0.000   0.002
   13        0.002   0.000   0.000   0.003
   14        0.002  -0.000   0.000   0.002
   15        0.002   0.000   0.000   0.002
   16        0.002   0.001   0.000   0.003
   17        0.007   0.003   0.001   0.011
   18        0.007   0.002   0.001   0.010
   19        0.007   0.002   0.001   0.010
   20        0.007   0.002   0.001   0.011
   21        0.007   0.002   0.001   0.010
   22        0.007   0.002   0.001   0.010
   23        0.008   0.002   0.001   0.011
   24        0.007   0.002   0.001   0.011
   25        0.015   0.029   2.727   2.771
   26        0.015   0.030   2.761   2.807
   27        0.014   0.030   2.717   2.761
   28        0.015   0.030   2.730   2.775
   29        0.016   0.030   2.755   2.801
   30        0.017   0.030   2.790   2.836
   31        0.016   0.030   2.754   2.799
   32        0.015   0.030   2.775   2.819
   33        0.015   0.029   2.788   2.832
   34        0.015   0.031   2.715   2.761
   35        0.016   0.030   2.777   2.823
   36        0.016   0.030   2.774   2.819
   37        0.014   0.031   2.704   2.749
   38        0.015   0.029   2.781   2.825
   39        0.015   0.030   2.747   2.792
   40        0.016   0.031   2.768   2.815
   41        0.002   0.032   0.000   0.034
   42        0.002   0.047   0.000   0.049
   43        0.002   0.032   0.000   0.035
   44        0.002   0.048   0.000   0.050
   45        0.003   0.045   0.000   0.047
   46        0.002   0.019   0.000   0.021
   47        0.002   0.015   0.000   0.016
   48        0.001  -0.001   0.000   0.000
   49        0.002   0.035   0.000   0.037
   50        0.002   0.028   0.000   0.030
   51        0.002   0.031   0.000   0.033
   52        0.002   0.057   0.000   0.059
   53        0.002   0.038   0.000   0.040
   54        0.002   0.041   0.000   0.043
   55        0.002   0.020   0.000   0.022
   56        0.002   0.020   0.000   0.022
   57        0.002   0.040   0.000   0.042
   58        0.002   0.026   0.000   0.028
   59        0.002   0.035   0.000   0.037
   60        0.002   0.019   0.000   0.021
   61        0.003   0.037   0.000   0.040
   62        0.002   0.032   0.000   0.034
   63        0.002   0.041   0.000   0.043
   64        0.002   0.026   0.000   0.028
   65        0.002   0.051   0.000   0.053
   66        0.001   0.032   0.000   0.034
   67        0.002   0.041   0.000   0.044
   68        0.002   0.015   0.000   0.017
   69        0.002   0.039   0.000   0.041
   70        0.002   0.024   0.000   0.026
   71        0.002   0.031   0.000   0.033
   72        0.002   0.049   0.000   0.051
   73        0.002   0.035   0.000   0.037
   74        0.002   0.033   0.000   0.036
   75        0.002   0.037   0.000   0.039
   76        0.002   0.031   0.000   0.033
   77        0.002   0.020   0.000   0.022
   78        0.002   0.014   0.000   0.016
   79        0.002   0.032   0.000   0.034
   80        0.001   0.008   0.000   0.009
   81        0.002   0.030   0.000   0.032
   82        0.003   0.042   0.000   0.045
   83        0.002   0.057   0.000   0.059
   84        0.002   0.044   0.000   0.047
   85        0.003   0.038   0.000   0.040
   86        0.002   0.032   0.000   0.033
   87        0.002   0.031   0.000   0.033
   88        0.003   0.050   0.000   0.053
--------------------------------------------------
tot          0.423   2.084  44.072  46.578
 

 total amount of memory used by VASP MPI-rank0    88174. kBytes
=======================================================================

   base      :      30000. kBytes
   nonlr-proj:      13665. kBytes
   fftplans  :        992. kBytes
   grid      :      21513. kBytes
   one-center:       2737. kBytes
   wavefun   :      19267. kBytes
 
  
  
 General timing and accounting informations for this job:
 ========================================================
  
                  Total CPU time used (sec):      634.513
                            User time (sec):      628.635
                          System time (sec):        5.878
                         Elapsed time (sec):      638.334
  
                   Maximum memory used (kb):      182572.
                   Average memory used (kb):           0.
  
                          Minor page faults:       281401
                          Major page faults:            0
                 Voluntary context switches:         3726
