 vasp.5.4.4.18Apr17-6-g9f103f2a35 (build Dec 02 2020 12:53:39) complex          
  
 executed on             LinuxIFC date 2021.07.31  13:34:46
 running on  112 total cores
 distrk:  each k-point on  112 cores,    1 groups
 distr:  one band on NCORES_PER_BAND=   1 cores,  112 groups


--------------------------------------------------------------------------------------------------------


 INCAR:
 POTCAR:    PAW_PBE Na_pv 19Sep2006               
 POTCAR:    PAW_PBE Mg_pv 13Apr2007               
 POTCAR:    PAW_PBE Mn_pv 02Aug2007               
 POTCAR:    PAW_PBE O 08Apr2002                   

 ----------------------------------------------------------------------------- 
|                                                                             |
|           W    W    AA    RRRRR   N    N  II  N    N   GGGG   !!!           |
|           W    W   A  A   R    R  NN   N  II  NN   N  G    G  !!!           |
|           W    W  A    A  R    R  N N  N  II  N N  N  G       !!!           |
|           W WW W  AAAAAA  RRRRR   N  N N  II  N  N N  G  GGG   !            |
|           WW  WW  A    A  R   R   N   NN  II  N   NN  G    G                |
|           W    W  A    A  R    R  N    N  II  N    N   GGGG   !!!           |
|                                                                             |
|      For optimal performance we recommend to set                            |
|        NCORE= 4 - approx SQRT( number of cores)                             |
|      NCORE specifies how many cores store one orbital (NPAR=cpu/NCORE).     |
|      This setting can  greatly improve the performance of VASP for DFT.     |
|      The default,   NCORE=1            might be grossly inefficient         |
|      on modern multi-core architectures or massively parallel machines.     |
|      Do your own testing !!!!                                               |
|      Unfortunately you need to use the default for GW and RPA calculations. |
|      (for HF NCORE is supported but not extensively tested yet)             |
|                                                                             |
 ----------------------------------------------------------------------------- 

 POTCAR:    PAW_PBE Na_pv 19Sep2006               
   VRHFIN =Na: p6s1                                                             
   LEXCH  = PE                                                                  
   EATOM  =   766.0439 eV,   56.3026 Ry                                         
                                                                                
   TITEL  = PAW_PBE Na_pv 19Sep2006                                             
   LULTRA =        F    use ultrasoft PP ?                                      
   IUNSCR =        1    unscreen: 0-lin 1-nonlin 2-no                           
   RPACOR =    1.800    partial core radius                                     
   POMASS =   22.990; ZVAL   =    7.000    mass and valenz                      
   RCORE  =    2.200    outmost cutoff radius                                   
   RWIGS  =    2.200; RWIGS  =    1.164    wigner-seitz radius (au A)           
   ENMAX  =  259.561; ENMIN  =  194.671 eV                                      
   ICORE  =        2    local potential                                         
   LCOR   =        T    correct aug charges                                     
   LPAW   =        T    paw PP                                                  
   EAUG   =  368.056                                                            
   DEXC   =    0.000                                                            
   RMAX   =    2.245    core radius for proj-oper                               
   RAUG   =    1.300    factor for augmentation sphere                          
   RDEP   =    2.259    radius for radial grids                                 
   RDEPT  =    1.738    core radius for aug-charge                              
                                                                                
   Atomic configuration                                                         
    5 entries                                                                   
     n  l   j            E        occ.                                          
     1  0  0.50     -1033.6933   2.0000                                         
     2  0  0.50       -56.7526   2.0000                                         
     2  1  1.50       -28.6721   6.0000                                         
     3  0  0.50        -2.7440   1.0000                                         
     3  2  1.50        -1.3606   0.0000                                         
   Description                                                                  
     l       E           TYP  RCUT    TYP  RCUT                                 
     1    -28.6720912     23  2.000                                             
     1      6.8029130     23  2.000                                             
     0     -2.7439560     23  2.200                                             
     0     34.0145650     23  2.200                                             
     2     -1.3605826     23  2.200                                             
  local pseudopotential read in
  partial core-charges read in
  partial kinetic energy density read in
  atomic valenz-charges read in
  non local Contribution for L=           1  read in
    real space projection operators read in
  non local Contribution for L=           1  read in
    real space projection operators read in
  non local Contribution for L=           0  read in
    real space projection operators read in
  non local Contribution for L=           0  read in
    real space projection operators read in
    PAW grid and wavefunctions read in
 
   number of l-projection  operators is LMAX  =           4
   number of lm-projection operators is LMMAX =           8
 
 POTCAR:    PAW_PBE Mg_pv 13Apr2007               
   VRHFIN =Mg: p6s2                                                             
   LEXCH  = PE                                                                  
   EATOM  =  1056.7344 eV,   77.6678 Ry                                         
                                                                                
   TITEL  = PAW_PBE Mg_pv 13Apr2007                                             
   LULTRA =        F    use ultrasoft PP ?                                      
   IUNSCR =        1    unscreen: 0-lin 1-nonlin 2-no                           
   RPACOR =    1.500    partial core radius                                     
   POMASS =   24.305; ZVAL   =    8.000    mass and valenz                      
   RCORE  =    2.000    outmost cutoff radius                                   
   RWIGS  =    2.000; RWIGS  =    1.058    wigner-seitz radius (au A)           
   ENMAX  =  403.929; ENMIN  =  302.947 eV                                      
   RCLOC  =    1.506    cutoff for local pot                                    
   LCOR   =        T    correct aug charges                                     
   LPAW   =        T    paw PP                                                  
   EAUG   =  758.780                                                            
   DEXC   =    0.000                                                            
   RMAX   =    2.045    core radius for proj-oper                               
   RAUG   =    1.300    factor for augmentation sphere                          
   RDEP   =    2.025    radius for radial grids                                 
   RDEPT  =    1.557    core radius for aug-charge                              
                                                                                
   Atomic configuration                                                         
    5 entries                                                                   
     n  l   j            E        occ.                                          
     1  0  0.50     -1259.6230   2.0000                                         
     2  0  0.50       -79.8442   2.0000                                         
     2  1  1.50       -46.6121   6.0000                                         
     3  0  0.50        -4.7055   2.0000                                         
     3  2  1.50        -1.3606   0.0000                                         
   Description                                                                  
     l       E           TYP  RCUT    TYP  RCUT                                 
     1    -46.6121073     23  1.600                                             
     1      2.7211652     23  1.600                                             
     0     -4.7054661     23  2.000                                             
     0     61.2262170     23  2.000                                             
     2     -1.3605826     23  2.000                                             
  local pseudopotential read in
  partial core-charges read in
  partial kinetic energy density read in
  atomic valenz-charges read in
  non local Contribution for L=           1  read in
    real space projection operators read in
  non local Contribution for L=           1  read in
    real space projection operators read in
  non local Contribution for L=           0  read in
    real space projection operators read in
  non local Contribution for L=           0  read in
    real space projection operators read in
  non local Contribution for L=           2  read in
    real space projection operators read in
    PAW grid and wavefunctions read in
 
   number of l-projection  operators is LMAX  =           5
   number of lm-projection operators is LMMAX =          13
 
 POTCAR:    PAW_PBE Mn_pv 02Aug2007               
   VRHFIN =Mn: 3p4s3d                                                           
   LEXCH  = PE                                                                  
   EATOM  =  2025.2664 eV,  148.8529 Ry                                         
                                                                                
   TITEL  = PAW_PBE Mn_pv 02Aug2007                                             
   LULTRA =        F    use ultrasoft PP ?                                      
   IUNSCR =        1    unscreen: 0-lin 1-nonlin 2-no                           
   RPACOR =    2.080    partial core radius                                     
   POMASS =   54.938; ZVAL   =   13.000    mass and valenz                      
   RCORE  =    2.300    outmost cutoff radius                                   
   RWIGS  =    2.500; RWIGS  =    1.323    wigner-seitz radius (au A)           
   ENMAX  =  269.864; ENMIN  =  202.398 eV                                      
   ICORE  =        3    local potential                                         
   LCOR   =        T    correct aug charges                                     
   LPAW   =        T    paw PP                                                  
   EAUG   =  569.085                                                            
   DEXC   =    0.000                                                            
   RMAX   =    2.343    core radius for proj-oper                               
   RAUG   =    1.300    factor for augmentation sphere                          
   RDEP   =    2.338    radius for radial grids                                 
   RDEPT  =    1.798    core radius for aug-charge                              
                                                                                
   Atomic configuration                                                         
    8 entries                                                                   
     n  l   j            E        occ.                                          
     1  0  0.50     -6424.8287   2.0000                                         
     2  0  0.50      -739.1154   2.0000                                         
     2  1  1.50      -625.3949   6.0000                                         
     3  0  0.50       -81.6100   2.0000                                         
     3  1  1.50       -50.4667   6.0000                                         
     3  2  2.50        -3.3745   6.0000                                         
     4  0  0.50        -4.1331   1.0000                                         
     4  3  2.50        -1.3606   0.0000                                         
   Description                                                                  
     l       E           TYP  RCUT    TYP  RCUT                                 
     1    -50.4666628     23  2.000                                             
     1     -1.3605826     23  2.000                                             
     2     -3.3744729     23  2.300                                             
     2     -4.7350555     23  2.300                                             
     0     -4.1331431     23  2.300                                             
     0      7.6656591     23  2.300                                             
     3      9.5240782     23  2.300                                             
  local pseudopotential read in
  partial core-charges read in
  partial kinetic energy density read in
  atomic valenz-charges read in
  non local Contribution for L=           1  read in
    real space projection operators read in
  non local Contribution for L=           1  read in
    real space projection operators read in
  non local Contribution for L=           2  read in
    real space projection operators read in
  non local Contribution for L=           2  read in
    real space projection operators read in
  non local Contribution for L=           0  read in
    real space projection operators read in
  non local Contribution for L=           0  read in
    real space projection operators read in
    PAW grid and wavefunctions read in
 
   number of l-projection  operators is LMAX  =           6
   number of lm-projection operators is LMMAX =          18
 
 POTCAR:    PAW_PBE O 08Apr2002                   
   VRHFIN =O: s2p4                                                              
   LEXCH  = PE                                                                  
   EATOM  =   432.3788 eV,   31.7789 Ry                                         
                                                                                
   TITEL  = PAW_PBE O 08Apr2002                                                 
   LULTRA =        F    use ultrasoft PP ?                                      
   IUNSCR =        1    unscreen: 0-lin 1-nonlin 2-no                           
   RPACOR =    1.200    partial core radius                                     
   POMASS =   16.000; ZVAL   =    6.000    mass and valenz                      
   RCORE  =    1.520    outmost cutoff radius                                   
   RWIGS  =    1.550; RWIGS  =    0.820    wigner-seitz radius (au A)           
   ENMAX  =  400.000; ENMIN  =  300.000 eV                                      
   ICORE  =        2    local potential                                         
   LCOR   =        T    correct aug charges                                     
   LPAW   =        T    paw PP                                                  
   EAUG   =  605.392                                                            
   DEXC   =    0.000                                                            
   RMAX   =    1.553    core radius for proj-oper                               
   RAUG   =    1.300    factor for augmentation sphere                          
   RDEP   =    1.550    radius for radial grids                                 
   RDEPT  =    1.329    core radius for aug-charge                              
                                                                                
   Atomic configuration                                                         
    4 entries                                                                   
     n  l   j            E        occ.                                          
     1  0  0.50      -514.6923   2.0000                                         
     2  0  0.50       -23.9615   2.0000                                         
     2  1  0.50        -9.0305   4.0000                                         
     3  2  1.50        -9.5241   0.0000                                         
   Description                                                                  
     l       E           TYP  RCUT    TYP  RCUT                                 
     0    -23.9615318     23  1.200                                             
     0     -9.5240782     23  1.200                                             
     1     -9.0304911     23  1.520                                             
     1      8.1634956     23  1.520                                             
     2     -9.5240782      7  1.500                                             
  local pseudopotential read in
  partial core-charges read in
  partial kinetic energy density read in
  kinetic energy density of atom read in
  atomic valenz-charges read in
  non local Contribution for L=           0  read in
    real space projection operators read in
  non local Contribution for L=           0  read in
    real space projection operators read in
  non local Contribution for L=           1  read in
    real space projection operators read in
  non local Contribution for L=           1  read in
    real space projection operators read in
    PAW grid and wavefunctions read in
 
   number of l-projection  operators is LMAX  =           4
   number of lm-projection operators is LMMAX =           8
 
 Optimization of the real space projectors (new method)

 maximal supplied QI-value         = 17.01
 optimisation between [QCUT,QGAM] = [ 10.20, 20.41] = [ 29.16,116.64] Ry 
 Optimized for a Real-space Cutoff    1.30 Angstroem

   l    n(q)    QCUT    max X(q) W(low)/X(q) W(high)/X(q)  e(spline) 
   1      7    10.205     4.940    0.23E-03    0.84E-03    0.11E-06
   1      7    10.205     6.253    0.40E-03    0.13E-02    0.18E-06
   0      8    10.205    37.438    0.23E-03    0.37E-03    0.42E-07
   0      8    10.205     9.606    0.16E-03    0.26E-03    0.31E-07
 Optimization of the real space projectors (new method)

 maximal supplied QI-value         = 18.90
 optimisation between [QCUT,QGAM] = [ 10.20, 20.41] = [ 29.16,116.64] Ry 
 Optimized for a Real-space Cutoff    1.26 Angstroem

   l    n(q)    QCUT    max X(q) W(low)/X(q) W(high)/X(q)  e(spline) 
   1      7    10.205     2.974    0.63E-04    0.14E-03    0.13E-06
   1      7    10.205     4.279    0.11E-03    0.45E-03    0.24E-06
   0      8    10.205    16.381    0.44E-03    0.15E-03    0.55E-07
   0      8    10.205     5.611    0.31E-03    0.11E-03    0.40E-07
   2      7    10.205     4.652    0.50E-03    0.47E-03    0.57E-07
 Optimization of the real space projectors (new method)

 maximal supplied QI-value         = 16.25
 optimisation between [QCUT,QGAM] = [ 10.24, 20.48] = [ 29.35,117.42] Ry 
 Optimized for a Real-space Cutoff    1.34 Angstroem

   l    n(q)    QCUT    max X(q) W(low)/X(q) W(high)/X(q)  e(spline) 
   1      8    10.239     3.658    0.23E-03    0.30E-03    0.98E-07
   1      8    10.239     5.612    0.32E-03    0.65E-03    0.21E-06
   2      7    10.239    55.373    0.42E-03    0.45E-03    0.65E-07
   2      7    10.239    50.863    0.43E-03    0.48E-03    0.67E-07
   0      8    10.239    79.536    0.11E-03    0.21E-03    0.56E-07
   0      8    10.239    38.668    0.96E-04    0.19E-03    0.52E-07
 Optimization of the real space projectors (new method)

 maximal supplied QI-value         = 24.76
 optimisation between [QCUT,QGAM] = [ 10.15, 20.30] = [ 28.85,115.39] Ry 
 Optimized for a Real-space Cutoff    1.38 Angstroem

   l    n(q)    QCUT    max X(q) W(low)/X(q) W(high)/X(q)  e(spline) 
   0      8    10.150    20.381    0.22E-03    0.32E-03    0.29E-06
   0      8    10.150    15.268    0.23E-03    0.35E-03    0.30E-06
   1      8    10.150     5.964    0.46E-03    0.53E-03    0.21E-06
   1      8    10.150     5.382    0.38E-03    0.45E-03    0.19E-06
  PAW_PBE Na_pv 19Sep2006               :
 energy of atom  1       EATOM= -766.0439
 kinetic energy error for atom=    0.0103 (will be added to EATOM!!)
  PAW_PBE Mg_pv 13Apr2007               :
 energy of atom  2       EATOM=-1056.7344
 kinetic energy error for atom=    0.0820 (will be added to EATOM!!)
  PAW_PBE Mn_pv 02Aug2007               :
 energy of atom  3       EATOM=-2025.2664
 kinetic energy error for atom=    0.0284 (will be added to EATOM!!)
  PAW_PBE O 08Apr2002                   :
 energy of atom  4       EATOM= -432.3788
 kinetic energy error for atom=    0.1156 (will be added to EATOM!!)
 
 
 POSCAR: Na Mg Mn  O                             
  positions in cartesian coordinates
  No initial velocities read in

 METAGGA = SCAN     LMAXTAU =  6    LMIXTAU =  F

 exchange correlation table for  LEXCH =        8
   RHO(1)=    0.500       N(1)  =     2000
   RHO(2)=  100.500       N(2)  =     4000

 VTST: version 3.2, (02/03/18)

 CHAIN: initializing optimizer
 
 OPT: Using VASP Dynamics algorithm
 CHAIN: Read ICHAIN            0
 
 POSCAR: Na Mg Mn  O                             
  positions in cartesian coordinates
  No initial velocities read in
 


--------------------------------------------------------------------------------------------------------


 ion  position               nearest neighbor table
   1  0.604  0.516  0.247-  87 2.19  43 2.24  52 2.35  33 2.83  35 2.96
   2  0.150  0.083  0.759-  61 2.22  58 2.31  47 2.32  25 2.76  27 2.97
   3  0.434  0.535  0.744-  80 2.24  45 2.32
   4  0.639  0.400  0.739-  45 2.30  68 2.30
   5  0.110  0.217  0.255-  63 2.24  64 2.33
   6  0.861  0.872  0.251-  74 2.23  65 2.30  63 2.34  40 2.84
   7  0.420  0.012  0.750-  47 2.36  44 2.36
   8  0.851  0.233  0.739-  59 2.28  57 2.31  56 2.32  60 2.32
   9  0.829  0.377  0.251-  62 2.24  66 2.32  75 2.32  53 2.37  28 2.87
  10  0.138  0.713  0.253-  86 2.33  77 2.36
  11  0.627  0.029  0.248-  79 2.28  88 2.34  31 2.83  29 2.86
  12  0.148  0.587  0.747-  70 2.21  73 2.28  83 2.35  39 2.79  37 2.94
  13  0.849  0.743  0.748-  72 2.26  69 2.30
  14  0.647  0.890  0.754-  59 2.29  85 2.35
  15  0.327  0.079  0.264-  50 2.28  41 2.32  76 2.35  51 2.36
  16  0.320  0.559  0.248-  77 2.30
  17  0.798  0.381  0.995-  60 1.98  53 2.02  71 2.05  66 2.08  43 2.09  49 2.16  34 2.85  37 2.86

  18  0.484  0.228  0.496-  52 1.99  51 2.04  45 2.10  50 2.10  46 2.12  44 2.12  28 2.84
  19  0.284  0.374  0.999-  61 2.00  48 2.03  78 2.07  41 2.11  55 2.11  83 2.12  37 2.84  30 2.84

  20  0.980  0.221  0.508-  56 1.91  63 2.03  57 2.04  58 2.08  64 2.08  62 2.16  31 2.80
  21  0.286  0.872  0.000-  73 1.97  77 2.07  84 2.08  67 2.09  47 2.14  42 2.14  34 2.80  38 2.84
                            37 2.84
  22  0.985  0.728  0.495-  74 1.97  76 1.99  68 2.07  69 2.07  75 2.09  70 2.09  35 2.85
  23  0.793  0.874  0.994-  65 2.01  72 2.03  54 2.07  79 2.07  85 2.08  59 2.25  33 2.82
  24  0.492  0.725  0.487-  88 2.01  86 2.06  80 2.06  82 2.07  87 2.08  81 2.10  40 2.84
  25  0.127  0.042  0.003-  67 1.87  72 1.88  61 1.90  47 1.94  54 1.97  41 2.01   2 2.76  26 2.87
                            34 2.89  30 2.93
  26  0.458  0.211  0.005-  47 1.87  49 1.90  41 1.90  48 1.92  42 1.95  43 1.96  29 2.87  25 2.87
                            33 2.93
  27  0.150  0.060  0.495-  44 1.80  50 1.81  69 1.97  58 1.98  76 2.00  63 2.01  32 2.84  40 2.88
                             2 2.97  36 2.99
  28  0.811  0.393  0.505-  68 1.89  46 1.92  52 1.92  62 1.92  75 1.94  57 1.94  35 2.79  18 2.84
                             9 2.87  31 2.91  39 2.93
  29  0.625  0.048  0.993-  49 1.83  59 1.91  42 1.94  53 1.95  84 1.95  79 2.01  11 2.86  26 2.87
                            30 2.88  38 2.88
  30  0.957  0.210  0.006-  54 1.84  61 1.91  55 1.93  53 1.93  59 1.97  60 2.01  19 2.84  29 2.88
                            37 2.91  25 2.93
  31  0.657  0.058  0.499-  62 1.87  88 1.87  56 1.88  81 1.89  51 1.99  46 2.01  20 2.80  11 2.83
                            40 2.84  28 2.91  36 2.95
  32  0.310  0.387  0.499-  58 1.85  50 1.90  64 1.92  45 1.94  87 1.96  80 1.97  27 2.84  39 2.90
                            35 3.01
  33  0.634  0.549  0.996-  71 1.86  65 1.91  78 1.92  48 1.97  43 2.00  85 2.02  23 2.82   1 2.83
                            34 2.86  26 2.93  38 2.98
  34  0.963  0.709  0.009-  66 1.86  71 1.92  65 1.93  73 1.93  72 1.97  67 1.97  21 2.80  37 2.85
                            17 2.85  33 2.86  25 2.89
  35  0.657  0.560  0.507-  52 1.86  68 1.92  74 1.93  45 1.94  82 2.00  87 2.03  28 2.79  22 2.85
                            40 2.88   1 2.96  32 3.01
  36  0.317  0.883  0.494-  70 1.89  86 1.89  51 1.90  81 1.93  76 1.95  44 2.16  39 2.81  31 2.95
                            27 2.99
  37  0.127  0.544  0.006-  55 1.88  77 1.90  83 1.90  73 1.91  60 1.96  66 2.00  19 2.84  21 2.84
                            34 2.85  17 2.86  38 2.87  30 2.91  12 2.94
  38  0.458  0.716  0.997-  84 1.87  78 1.91  85 1.94  79 1.95  83 1.96  77 1.96  21 2.84  37 2.87
                            29 2.88  33 2.98
  39  0.148  0.559  0.499-  70 1.82  57 1.87  80 1.90  75 1.96  64 1.98  86 2.01  12 2.79  36 2.81
                            32 2.90  28 2.93
  40  0.818  0.892  0.499-  74 1.85  69 1.86  88 1.87  63 1.93  82 1.94  56 1.96  24 2.84  31 2.84
                             6 2.84  27 2.88  35 2.88
  41  0.299  0.206  0.102-  26 1.90  25 2.01  19 2.11  15 2.32
  42  0.473  0.054  0.097-  29 1.94  26 1.95  21 2.14
  43  0.623  0.379  0.096-  26 1.96  33 2.00  17 2.09   1 2.24
  44  0.292  0.055  0.591-  27 1.80  18 2.12  36 2.16   7 2.36
  45  0.480  0.404  0.593-  32 1.94  35 1.94  18 2.10   4 2.30   3 2.32
  46  0.660  0.225  0.599-  28 1.92  31 2.01  18 2.12
  47  0.299  0.065  0.909-  26 1.87  25 1.94  21 2.14   2 2.32   7 2.36
  48  0.462  0.374  0.912-  26 1.92  33 1.97  19 2.03
  49  0.603  0.192  0.908-  29 1.83  26 1.90  17 2.16
  50  0.294  0.219  0.409-  27 1.81  32 1.90  18 2.10  15 2.28
  51  0.481  0.048  0.409-  36 1.90  31 1.99  18 2.04  15 2.36
  52  0.656  0.407  0.413-  35 1.86  28 1.92  18 1.99   1 2.35
  53  0.788  0.206  0.091-  30 1.93  29 1.95  17 2.02   9 2.37
  54  0.963  0.055  0.090-  30 1.84  25 1.97  23 2.07
  55  0.109  0.380  0.099-  37 1.88  30 1.93  19 2.11
  56  0.812  0.055  0.591-  31 1.88  20 1.91  40 1.96   8 2.32
  57  0.987  0.407  0.590-  39 1.87  28 1.94  20 2.04   8 2.31
  58  0.167  0.230  0.595-  32 1.85  27 1.98  20 2.08   2 2.31
  59  0.792  0.069  0.896-  29 1.91  30 1.97  23 2.25   8 2.28  14 2.29
  60  0.970  0.382  0.906-  37 1.96  17 1.98  30 2.01   8 2.32
  61  0.111  0.196  0.915-  25 1.90  30 1.91  19 2.00   2 2.22
  62  0.798  0.227  0.409-  31 1.87  28 1.92  20 2.16   9 2.24
  63  0.975  0.054  0.403-  40 1.93  27 2.01  20 2.03   5 2.24   6 2.34
  64  0.153  0.394  0.406-  32 1.92  39 1.98  20 2.08   5 2.33
  65  0.792  0.705  0.091-  33 1.91  34 1.93  23 2.01   6 2.30
  66  0.963  0.554  0.101-  34 1.86  37 2.00  17 2.08   9 2.32
  67  0.119  0.887  0.101-  25 1.87  34 1.97  21 2.09
  68  0.816  0.553  0.596-  28 1.89  35 1.92  22 2.07   4 2.30
  69  0.978  0.901  0.590-  40 1.86  27 1.97  22 2.07  13 2.30
  70  0.164  0.720  0.585-  39 1.82  36 1.89  22 2.09  12 2.21
  71  0.800  0.563  0.910-  33 1.86  34 1.92  17 2.05
  72  0.976  0.878  0.912-  25 1.88  34 1.97  23 2.03  13 2.26
  73  0.118  0.699  0.913-  37 1.91  34 1.93  21 1.97  12 2.28
  74  0.811  0.730  0.415-  40 1.85  35 1.93  22 1.97   6 2.23
  75  0.976  0.541  0.404-  28 1.94  39 1.96  22 2.09   9 2.32
  76  0.157  0.894  0.401-  36 1.95  22 1.99  27 2.00  15 2.35
  77  0.290  0.698  0.098-  37 1.90  38 1.96  21 2.07  16 2.30  10 2.36
  78  0.471  0.557  0.080-  38 1.91  33 1.92  19 2.07
  79  0.620  0.879  0.093-  38 1.95  29 2.01  23 2.07  11 2.28
  80  0.311  0.559  0.586-  39 1.90  32 1.97  24 2.06   3 2.24
  81  0.489  0.903  0.586-  31 1.89  36 1.93  24 2.10
  82  0.660  0.733  0.599-  40 1.94  35 2.00  24 2.07
  83  0.285  0.558  0.904-  37 1.90  38 1.96  19 2.12  12 2.35
  84  0.465  0.875  0.904-  38 1.87  29 1.95  21 2.08
  85  0.609  0.703  0.897-  38 1.94  33 2.02  23 2.08  14 2.35
  86  0.312  0.726  0.398-  36 1.89  39 2.01  24 2.06  10 2.33
  87  0.482  0.537  0.401-  32 1.96  35 2.03  24 2.08   1 2.19
  88  0.670  0.908  0.409-  40 1.87  31 1.87  24 2.01  11 2.34
 
  LATTYP: Found a hexagonal cell.
 ALAT       =    10.0190000534
 C/A-ratio  =     1.1196726572
  
  Lattice vectors:
  
 A1 = (  10.0190000534,   0.0000000000,   0.0000000000)
 A2 = (  -5.0095000267,   8.6767085668,   0.0000000000)
 A3 = (   0.0000000000,   0.0000000000,  11.2180004120)


Analysis of symmetry for initial positions (statically):
=====================================================================
 Subroutine PRICEL returns:
 Original cell was already a primitive cell.
 

 Routine SETGRP: Setting up the symmetry group for a 
 hexagonal supercell.


 Subroutine GETGRP returns: Found  1 space group operations
 (whereof  1 operations were pure point group operations)
 out of a pool of 24 trial point group operations.


The static configuration has the point symmetry C_1 .


Analysis of symmetry for dynamics (positions and initial velocities):
=====================================================================
 Subroutine PRICEL returns:
 Original cell was already a primitive cell.
 

 Routine SETGRP: Setting up the symmetry group for a 
 hexagonal supercell.


 Subroutine GETGRP returns: Found  1 space group operations
 (whereof  1 operations were pure point group operations)
 out of a pool of 24 trial point group operations.


The dynamic configuration has the point symmetry C_1 .


Analysis of structural, dynamic, and magnetic symmetry:
=====================================================================
 Subroutine PRICEL returns:
 Original cell was already a primitive cell.
 

 Routine SETGRP: Setting up the symmetry group for a 
 hexagonal supercell.


 Subroutine GETGRP returns: Found  1 space group operations
 (whereof  1 operations were pure point group operations)
 out of a pool of 24 trial point group operations.


The magnetic configuration has the point symmetry C_1 .


 Subroutine INISYM returns: Found  1 space group operations
 (whereof  1 operations are pure point group operations),
 and found     1 'primitive' translations

 
 

Automatic generation of k-mesh.
 generate k-points for:    2    2    2
Space group operators:
 irot       det(A)        alpha          n_x          n_y          n_z        tau_x        tau_y        tau_z
    1     1.000000     0.000000     1.000000     0.000000     0.000000     0.000000     0.000000     0.000000
 
 Subroutine IBZKPT returns following result:
 ===========================================
 
 Found      8 irreducible k-points:
 
 Following reciprocal coordinates:
            Coordinates               Weight
  0.000000  0.000000  0.000000      1.000000
  0.500000 -0.000000 -0.000000      1.000000
  0.000000  0.500000  0.000000      1.000000
  0.500000  0.500000 -0.000000      1.000000
  0.000000  0.000000  0.500000      1.000000
  0.500000 -0.000000  0.500000      1.000000
  0.000000  0.500000  0.500000      1.000000
  0.500000  0.500000  0.500000      1.000000
 
 Following cartesian coordinates:
            Coordinates               Weight
  0.000000  0.000000  0.000000      1.000000
  0.049905  0.028813 -0.000000      1.000000
  0.000000  0.057626  0.000000      1.000000
  0.049905  0.086438 -0.000000      1.000000
  0.000000  0.000000  0.044571      1.000000
  0.049905  0.028813  0.044571      1.000000
  0.000000  0.057626  0.044571      1.000000
  0.049905  0.086438  0.044571      1.000000
 


--------------------------------------------------------------------------------------------------------




 Dimension of arrays:
   k-points           NKPTS =      8   k-points in BZ     NKDIM =      8   number of bands    NBANDS=    448
   number of dos      NEDOS =    301   number of ions     NIONS =     88
   non local maximal  LDIM  =      6   non local SUM 2l+1 LMDIM =     18
   total plane-waves  NPLWV = 140000
   max r-space proj   IRMAX =   1632   max aug-charges    IRDMAX=   4555
   dimension x,y,z NGX =    50 NGY =   50 NGZ =   56
   dimension x,y,z NGXF=   100 NGYF=  100 NGZF=  112
   support grid    NGXF=   100 NGYF=  100 NGZF=  112
   ions per type =              16   8  16  48
   NGX,Y,Z   is equivalent  to a cutoff of   8.30,  8.30,  8.30 a.u.
   NGXF,Y,Z  is equivalent  to a cutoff of  16.59, 16.59, 16.60 a.u.

 SYSTEM =  unknown system                          
 POSCAR =  Na Mg Mn  O                             

 Startparameter for this run:
   NWRITE =      2    write-flag & timer
   PREC   = normal    normal or accurate (medium, high low for compatibility)
   ISTART =      0    job   : 0-new  1-cont  2-samecut
   ICHARG =      1    charge: 1-file 2-atom 10-const
   ISPIN  =      2    spin polarized calculation?
   LNONCOLLINEAR =      F non collinear calculations
   LSORBIT =      F    spin-orbit coupling
   INIWAV =      1    electr: 0-lowe 1-rand  2-diag
   LASPH  =      T    aspherical Exc in radial PAW
   METAGGA=      F    non-selfconsistent MetaGGA calc.

 Electronic Relaxation 1
   ENCUT  =  400.0 eV  29.40 Ry    5.42 a.u.  16.34 16.34 18.29*2*pi/ulx,y,z
   ENINI  =  400.0     initial cutoff
   ENAUG  =  758.8 eV  augmentation charge cutoff
   NELM   =    200;   NELMIN=  6; NELMDL=-12     # of ELM steps 
   EDIFF  = 0.1E-04   stopping-criterion for ELM
   LREAL  =      T    real-space projection
   NLSPLINE    = F    spline interpolate recip. space projectors
   LCOMPAT=      F    compatible to vasp.4.4
   GGA_COMPAT  = T    GGA compatible to vasp.4.4-vasp.4.6
   LMAXPAW     = -100 max onsite density
   LMAXMIX     =    4 max onsite mixed and CHGCAR
   VOSKOWN=      0    Vosko Wilk Nusair interpolation
   ROPT   =   -0.00050  -0.00050  -0.00050  -0.00050
 Ionic relaxation
   EDIFFG = 0.1E-03   stopping-criterion for IOM
   NSW    =      1    number of steps for IOM
   NBLOCK =      1;   KBLOCK =      1    inner block; outer block 
   IBRION =     -1    ionic relax: 0-MD 1-quasi-New 2-CG
   NFREE  =      0    steps in history (QN), initial steepest desc. (CG)
   ISIF   =      2    stress and relaxation
   IWAVPR =     10    prediction:  0-non 1-charg 2-wave 3-comb
   ISYM   =      2    0-nonsym 1-usesym 2-fastsym
   LCORR  =      T    Harris-Foulkes like correction to forces

   POTIM  = 0.5000    time-step for ionic-motion
   TEIN   =    0.0    initial temperature
   TEBEG  =    0.0;   TEEND  =   0.0 temperature during run
   SMASS  =  -3.00    Nose mass-parameter (am)
   estimated Nose-frequenzy (Omega)   =  0.10E-29 period in steps =****** mass=  -0.229E-26a.u.
   SCALEE = 1.0000    scale energy and forces
   NPACO  =    256;   APACO  = 16.0  distance and # of slots for P.C.
   PSTRESS=    0.0 pullay stress

  Mass of Ions in am
   POMASS =  22.99 24.30 54.94 16.00
  Ionic Valenz
   ZVAL   =   7.00  8.00 13.00  6.00
  Atomic Wigner-Seitz radii
   RWIGS  =  -1.00 -1.00 -1.00 -1.00
  virtual crystal weights 
   VCA    =   1.00  1.00  1.00  1.00
   NELECT =     672.0000    total number of electrons
   NUPDOWN=      48.0000    fix difference up-down

 DOS related values:
   EMIN   =  10.00;   EMAX   =-10.00  energy-range for DOS
   EFERMI =   0.00
   ISMEAR =     0;   SIGMA  =   0.05  broadening in eV -4-tet -1-fermi 0-gaus

 Electronic relaxation 2 (details)
   IALGO  =     48    algorithm
   LDIAG  =      T    sub-space diagonalisation (order eigenvalues)
   LSUBROT=      F    optimize rotation matrix (better conditioning)
   TURBO    =      0    0=normal 1=particle mesh
   IRESTART =      0    0=no restart 2=restart with 2 vectors
   NREBOOT  =      0    no. of reboots
   NMIN     =      0    reboot dimension
   EREF     =   0.00    reference energy to select bands
   IMIX   =      4    mixing-type and parameters
     AMIX     =   0.40;   BMIX     =  1.00
     AMIX_MAG =   1.60;   BMIX_MAG =  1.00
     AMIN     =   0.10
     WC   =   100.;   INIMIX=   1;  MIXPRE=   1;  MAXMIX= -45

 Intra band minimization:
   WEIMIN = 0.0000     energy-eigenvalue tresh-hold
   EBREAK =  0.56E-08  absolut break condition
   DEPER  =   0.30     relativ break condition  

   TIME   =   0.40     timestep for ELM

  volume/ion in A,a.u.               =      11.08        74.78
  Fermi-wavevector in a.u.,A,eV,Ry     =   1.445993  2.732531 28.448379  2.090897
  Thomas-Fermi vector in A             =   2.564112
 
 Write flags
   LWAVE        =      F    write WAVECAR
   LDOWNSAMPLE  =      F    k-point downsampling of WAVECAR
   LCHARG       =      F    write CHGCAR
   LVTOT        =      F    write LOCPOT, total local potential
   LVHAR        =      F    write LOCPOT, Hartree potential only
   LELF         =      F    write electronic localiz. function (ELF)
   LORBIT       =     11    0 simple, 1 ext, 2 COOP (PROOUT), +10 PAW based schemes


 Dipole corrections
   LMONO  =      F    monopole corrections only (constant potential shift)
   LDIPOL =      F    correct potential (dipole corrections)
   IDIPOL =      0    1-x, 2-y, 3-z, 4-all directions 
   EPSILON=  1.0000000 bulk dielectric constant

 Exchange correlation treatment:
   GGA     =    --    GGA type
   LEXCH   =     8    internal setting for exchange type
   VOSKOWN=      0    Vosko Wilk Nusair interpolation
   LHFCALC =     F    Hartree Fock is set to
   LHFONE  =     F    Hartree Fock one center treatment
   AEXX    =    0.0000 exact exchange contribution

 Linear response parameters
   LEPSILON=     F    determine dielectric tensor
   LRPA    =     F    only Hartree local field effects (RPA)
   LNABLA  =     F    use nabla operator in PAW spheres
   LVEL    =     F    velocity operator in full k-point grid
   LINTERFAST=   F  fast interpolation
   KINTER  =     0    interpolate to denser k-point grid
   CSHIFT  =0.1000    complex shift for real part using Kramers Kronig
   OMEGAMAX=  -1.0    maximum frequency
   DEG_THRESHOLD= 0.2000000E-02 threshold for treating states as degnerate
   RTIME   =   -0.100 relaxation time in fs
  (WPLASMAI=    0.000 imaginary part of plasma frequency in eV, 0.658/RTIME)
   DFIELD  = 0.0000000 0.0000000 0.0000000 field for delta impulse in time
 
 Orbital magnetization related:
   ORBITALMAG=     F  switch on orbital magnetization
   LCHIMAG   =     F  perturbation theory with respect to B field
   DQ        =  0.001000  dq finite difference perturbation B field
   LLRAUG    =     F  two centre corrections for induced B field



--------------------------------------------------------------------------------------------------------


 Static calculation
 charge density and potential will be updated during run
 spin polarized calculation
 RMM-DIIS sequential band-by-band
 perform sub-space diagonalisation
    before iterative eigenvector-optimisation
 modified Broyden-mixing scheme, WC =      100.0
 initial mixing is a Kerker type mixing with AMIX =  0.4000 and BMIX =      1.0000
 Hartree-type preconditioning will be used
 using additional bands          112
 real space projection scheme for non local part
 use partial core corrections
 calculate Harris-corrections to forces 
   (improved forces if not selfconsistent)
 use gradient corrections 
 use of overlap-Matrix (Vanderbilt PP)
 Gauss-broadening in eV      SIGMA  =   0.05


--------------------------------------------------------------------------------------------------------


  energy-cutoff  :      400.00
  volume of cell :      975.20
      direct lattice vectors                 reciprocal lattice vectors
    10.019000053  0.000000000  0.000000000     0.099810360  0.057625538 -0.000000000
    -5.009500027  8.676708567  0.000000000     0.000000000  0.115251076  0.000000000
     0.000000000  0.000000000 11.218000412     0.000000000  0.000000000  0.089142446

  length of vectors
    10.019000053 10.019000053 11.218000412     0.115251076  0.115251076  0.089142446


 
 k-points in units of 2pi/SCALE and weight: read from INCAR                         
   0.00000000  0.00000000  0.00000000       0.125
   0.04990518  0.02881277 -0.00000000       0.125
   0.00000000  0.05762554  0.00000000       0.125
   0.04990518  0.08643831 -0.00000000       0.125
   0.00000000  0.00000000  0.04457122       0.125
   0.04990518  0.02881277  0.04457122       0.125
   0.00000000  0.05762554  0.04457122       0.125
   0.04990518  0.08643831  0.04457122       0.125
 
 k-points in reciprocal lattice and weights: read from INCAR                         
   0.00000000  0.00000000  0.00000000       0.125
   0.50000000 -0.00000000 -0.00000000       0.125
   0.00000000  0.50000000  0.00000000       0.125
   0.50000000  0.50000000 -0.00000000       0.125
   0.00000000  0.00000000  0.50000000       0.125
   0.50000000 -0.00000000  0.50000000       0.125
   0.00000000  0.50000000  0.50000000       0.125
   0.50000000  0.50000000  0.50000000       0.125
 
 position of ions in fractional coordinates (direct lattice) 
   0.60438875  0.51581014  0.24656801
   0.15024827  0.08342894  0.75909250
   0.43379204  0.53504390  0.74403099
   0.63946970  0.40042258  0.73892313
   0.10995866  0.21710800  0.25474950
   0.86066676  0.87154411  0.25068015
   0.42019342  0.01166143  0.74995005
   0.85145807  0.23264566  0.73867175
   0.82935083  0.37740414  0.25079692
   0.13820596  0.71278082  0.25335888
   0.62734262  0.02932942  0.24752985
   0.14764495  0.58707548  0.74651094
   0.84897872  0.74315162  0.74838739
   0.64654424  0.89009415  0.75429218
   0.32743761  0.07894946  0.26444107
   0.32039203  0.55854030  0.24759493
   0.79832158  0.38073539  0.99455740
   0.48406261  0.22771999  0.49578978
   0.28436962  0.37435278  0.99868957
   0.97950321  0.22123020  0.50800676
   0.28639273  0.87181331  0.00018950
   0.98533268  0.72783475  0.49461845
   0.79255199  0.87358587  0.99432997
   0.49155022  0.72545597  0.48707968
   0.12688356  0.04239873  0.00342650
   0.45785959  0.21113190  0.00499308
   0.14973758  0.05973867  0.49514974
   0.81117806  0.39253479  0.50496165
   0.62503476  0.04839870  0.99314357
   0.95680357  0.20951493  0.00599034
   0.65707419  0.05795516  0.49856746
   0.30989948  0.38699928  0.49925386
   0.63395818  0.54853519  0.99570929
   0.96334148  0.70898659  0.00943760
   0.65684016  0.55994044  0.50676589
   0.31688529  0.88280941  0.49351754
   0.12722676  0.54432277  0.00644387
   0.45786504  0.71619900  0.99658786
   0.14828118  0.55905762  0.49924851
   0.81842984  0.89199492  0.49913976
   0.29906154  0.20583842  0.10161437
   0.47251322  0.05373789  0.09722232
   0.62280205  0.37861938  0.09635764
   0.29213068  0.05517662  0.59093954
   0.47974554  0.40380289  0.59338115
   0.65980819  0.22523172  0.59872078
   0.29945234  0.06499112  0.90882507
   0.46230144  0.37367165  0.91202528
   0.60307988  0.19218232  0.90787124
   0.29397918  0.21906925  0.40885094
   0.48077153  0.04776943  0.40866285
   0.65644413  0.40653434  0.41306025
   0.78776237  0.20588106  0.09139329
   0.96285240  0.05508898  0.09038331
   0.10858048  0.37961630  0.09927705
   0.81244557  0.05493805  0.59106434
   0.98711253  0.40741601  0.58956585
   0.16665029  0.23019328  0.59502226
   0.79178181  0.06890747  0.89642535
   0.96968322  0.38197549  0.90557137
   0.11090833  0.19566636  0.91501155
   0.79805797  0.22737654  0.40868335
   0.97532751  0.05440789  0.40288731
   0.15255049  0.39385096  0.40577552
   0.79198082  0.70490785  0.09128632
   0.96293228  0.55412487  0.10136120
   0.11853003  0.88670375  0.10124799
   0.81583587  0.55275569  0.59635583
   0.97800888  0.90085658  0.59019877
   0.16421872  0.72045061  0.58529326
   0.79977472  0.56299690  0.91019786
   0.97594227  0.87834228  0.91226597
   0.11786891  0.69889981  0.91348722
   0.81125030  0.72953124  0.41491263
   0.97624905  0.54073846  0.40429665
   0.15747322  0.89424578  0.40124263
   0.29042442  0.69847915  0.09849438
   0.47135272  0.55718594  0.08032198
   0.61997353  0.87851977  0.09268764
   0.31130733  0.55871647  0.58575502
   0.48896027  0.90293801  0.58555890
   0.65979226  0.73284932  0.59864145
   0.28522314  0.55788321  0.90426989
   0.46469448  0.87455974  0.90385092
   0.60903045  0.70341074  0.89728112
   0.31206078  0.72554125  0.39770724
   0.48182159  0.53681416  0.40065875
   0.67044734  0.90762989  0.40866285
 
 position of ions in cartesian coordinates  (Angst):
   3.47142000  4.47553427  2.76600000
   1.08740019  0.72388857  8.51550000
   1.66586005  4.64242000  8.34654000
   4.40093005  3.47435000  8.28924000
   0.01407330  1.88378287  2.85778000
   4.25702005  7.56213427  2.81213000
   4.15149995  0.10118287  8.41294000
   7.36532003  2.01859857  8.28642000
   6.41866003  3.27462570  2.81344000
  -2.18598997  6.18459143  2.84218000
   6.13842000  0.25448287  2.77679000
  -1.46169989  5.09388287  8.37436000
   4.78309984  6.44811000  8.39541000
   2.01880013  7.72308757  8.46165000
   2.88510008  0.68502143  2.96650000
   0.41200008  4.84629143  2.77752000
   6.09109000  3.30353000 11.15694531
   3.70906000  1.97586000  5.56177000
   0.97377900  3.24815000 11.20330000
   8.70539000  1.91955000  5.69882000
  -1.49798000  7.56447000  0.00212580
   6.22596000  6.31521000  5.54863000
   3.56435000  7.57985000 11.15439401
   1.29067000  6.29457000  5.46406000
   1.05884997  0.36788143  0.03843850
   3.52963000  1.83193000  0.05601240
   1.20096000  0.51833500  5.55459000
   6.16079000  3.40591000  5.66466000
   6.01977003  0.41994143 11.14108501
   8.53665000  1.81790000  0.06719959
   6.29290000  0.50286000  5.59293000
   1.16621000  3.35788000  5.60063000
   3.60374000  4.75948000 11.16986721
   6.10005000  6.15167000  0.10587100
   3.77586000  4.85844000  5.68490000
  -1.24756000  7.65988000  5.53628000
  -1.45210000  4.72293000  0.07228730
   0.99955100  6.21425000 11.17972301
  -1.31497000  4.85078000  5.60057000
   3.73140000  7.73958000  5.59935000
   1.96515000  1.78600000  1.13991000
   4.46491000  0.46626800  1.09064000
   4.34316000  3.28517000  1.08094000
   2.65045003  0.47875143  6.62916000
   2.78372000  3.50368000  6.65655000
   5.48232000  1.95427000  6.71645000
   2.67464000  0.56390900 10.19520000
   2.75989000  3.24224000 10.23110000
   5.07952000  1.66751000 10.18450000
   1.84795000  1.90080000  4.58649000
   4.57754903  0.41448143  4.58438000
   4.54038000  3.52738000  4.63371000
   6.86123000  1.78637000  1.02525000
   9.37085000  0.47799100  1.01392000
  -0.81382005  3.29382000  1.11369000
   7.86468003  0.47668143  6.63056000
   7.84893000  3.53503000  6.61375000
   0.51651600  1.99732000  6.67496000
   7.58767000  0.59789000 10.05610000
   7.80175000  3.31429000 10.15870000
   0.13099995  1.69774000 10.26460000
   6.85670000  1.97288000  4.58461000
   9.49925003  0.47208143  4.51959000
  -0.44459300  3.41733000  4.55199000
   4.40362000  6.11628000  1.02405000
   6.87173000  4.80798000  1.13707000
  -3.25439005  7.69367000  1.13580000
   5.40483000  4.79610000  6.68992000
   5.28583000  7.81647000  6.62085000
  -1.96379000  6.25114000  6.56582000
   5.19261000  4.88496000 10.21060000
   5.37791000  7.62112000 10.23380000
  -2.32021005  6.06415000 10.24750000
   4.47333000  6.32993000  4.65449000
   7.07221000  4.69183000  4.53540000
  -2.90200000  7.75911000  4.50114000
  -0.58926900  6.06050000  1.10491000
   1.93126000  4.83454000  0.90105200
   1.81057000  7.62266000  1.03977000
   0.32009800  4.84782000  6.57100000
   0.37562500  7.83453000  6.56880000
   2.93925000  6.35872000  6.71556000
   0.06293470  4.84059000 10.14410000
   0.27466700  7.58830000 10.13940000
   2.57814000  6.10329000 10.06570000
  -0.50806200  6.29531000  4.46148000
   2.13820000  4.65778000  4.49459000
   2.17044000  7.87524000  4.58438000
 


--------------------------------------------------------------------------------------------------------


 k-point  1 :   0.0000 0.0000 0.0000  plane waves:   17725
 k-point  2 :   0.5000-0.0000-0.0000  plane waves:   17736
 k-point  3 :   0.0000 0.5000 0.0000  plane waves:   17736
 k-point  4 :   0.5000 0.5000-0.0000  plane waves:   17736
 k-point  5 :   0.0000 0.0000 0.5000  plane waves:   17676
 k-point  6 :   0.5000-0.0000 0.5000  plane waves:   17700
 k-point  7 :   0.0000 0.5000 0.5000  plane waves:   17700
 k-point  8 :   0.5000 0.5000 0.5000  plane waves:   17700

 maximum and minimum number of plane-waves per node :     17736    17676

 maximum number of plane-waves:     17736
 maximum index in each direction: 
   IXMAX=   16   IYMAX=   16   IZMAX=   18
   IXMIN=  -16   IYMIN=  -16   IZMIN=  -18


 serial   3D FFT for wavefunctions
 parallel 3D FFT for charge:
    minimum data exchange during FFTs selected (reduces bandwidth)


 total amount of memory used by VASP MPI-rank0    88171. kBytes
=======================================================================

   base      :      30000. kBytes
   nonlr-proj:      13662. kBytes
   fftplans  :        992. kBytes
   grid      :      21513. kBytes
   one-center:       2737. kBytes
   wavefun   :      19267. kBytes
 
     INWAV:  cpu time    0.0000: real time    0.0001
 Broyden mixing: mesh for mixing (old mesh)
   NGX = 33   NGY = 33   NGZ = 37
  (NGX  =100   NGY  =100   NGZ  =112)
  gives a total of  40293 points

 initial charge density was supplied:
 charge density of overlapping atoms calculated
 number of electron     672.0000000 magnetization      48.0000000
 keeping initial charge density in first step


--------------------------------------------------------------------------------------------------------


 Maximum index for non-local projection operator         1549
 Maximum index for augmentation-charges          255 (set IRDMAX)


--------------------------------------------------------------------------------------------------------


 First call to EWALD:  gamma=   0.179
 Maximum number of real-space cells 3x 3x 2
 Maximum number of reciprocal cells 3x 3x 3

    FEWALD:  cpu time    0.0031: real time    0.0034


--------------------------------------- Iteration      1(   1)  ---------------------------------------


    POTLOK:  cpu time    0.2113: real time    0.2134
    SETDIJ:  cpu time    3.0817: real time    3.0840
    EDDIAG:  cpu time    3.7990: real time    3.8075
  RMM-DIIS:  cpu time    6.5932: real time    6.6052
    ORTHCH:  cpu time    1.1422: real time    1.1468
       DOS:  cpu time    0.0018: real time    0.0019
    --------------------------------------------
      LOOP:  cpu time   14.8291: real time   14.8588

 eigenvalue-minimisations  :  7168
 total energy-change (2. order) : 0.1866188E+04  (-0.3594990E+05)
 number of electron     672.0000000 magnetization      48.0000000
 augmentation part      672.0000000 magnetization      48.0000000

 Free energy of the ion-electron system (eV)
  ---------------------------------------------------
  alpha Z        PSCENC =      2652.81237852
  Ewald energy   TEWEN  =    -41935.97440223
  -Hartree energ DENC   =    -25682.70452729
  -exchange      EXHF   =         0.00000000
  -V(xc)+E(xc)   XCENC  =      3605.71421762
  PAW double counting   =     55594.23204139   -59034.67079123
  entropy T*S    EENTRO =        -0.05655848
  eigenvalues    EBANDS =     -7195.36265003
  atomic energy  EATOM  =     73862.19814772
  Solvation  Ediel_sol  =         0.00000000
  ---------------------------------------------------
  free energy    TOTEN  =      1866.18785599 eV

  energy without entropy =     1866.24441446  energy(sigma->0) =     1866.21613523


--------------------------------------------------------------------------------------------------------




--------------------------------------- Iteration      1(   2)  ---------------------------------------


    EDDIAG:  cpu time    3.7067: real time    3.7274
  RMM-DIIS:  cpu time    6.6073: real time    6.6195
    ORTHCH:  cpu time    1.1334: real time    1.1369
       DOS:  cpu time    0.0016: real time    0.0016
    --------------------------------------------
      LOOP:  cpu time   11.4491: real time   11.4854

 eigenvalue-minimisations  :  7168
 total energy-change (2. order) :-0.2714499E+04  (-0.8695440E+04)
 number of electron     672.0000000 magnetization      48.0000000
 augmentation part      672.0000000 magnetization      48.0000000

 Free energy of the ion-electron system (eV)
  ---------------------------------------------------
  alpha Z        PSCENC =      2652.81237852
  Ewald energy   TEWEN  =    -41935.97440223
  -Hartree energ DENC   =    -25682.70452729
  -exchange      EXHF   =         0.00000000
  -V(xc)+E(xc)   XCENC  =      3605.71421762
  PAW double counting   =     55594.23204139   -59034.67079123
  entropy T*S    EENTRO =        -0.05151596
  eigenvalues    EBANDS =     -9909.86683420
  atomic energy  EATOM  =     73862.19814772
  Solvation  Ediel_sol  =         0.00000000
  ---------------------------------------------------
  free energy    TOTEN  =      -848.31128567 eV

  energy without entropy =     -848.25976970  energy(sigma->0) =     -848.28552768


--------------------------------------------------------------------------------------------------------




--------------------------------------- Iteration      1(   3)  ---------------------------------------


    EDDIAG:  cpu time    3.7376: real time    3.7462
  RMM-DIIS:  cpu time    6.5876: real time    6.6000
    ORTHCH:  cpu time    1.1416: real time    1.1450
       DOS:  cpu time    0.0014: real time    0.0014
    --------------------------------------------
      LOOP:  cpu time   11.4682: real time   11.4927

 eigenvalue-minimisations  :  7168
 total energy-change (2. order) : 0.3144124E+03  (-0.1562350E+04)
 number of electron     672.0000000 magnetization      48.0000000
 augmentation part      672.0000000 magnetization      48.0000000

 Free energy of the ion-electron system (eV)
  ---------------------------------------------------
  alpha Z        PSCENC =      2652.81237852
  Ewald energy   TEWEN  =    -41935.97440223
  -Hartree energ DENC   =    -25682.70452729
  -exchange      EXHF   =         0.00000000
  -V(xc)+E(xc)   XCENC  =      3605.71421762
  PAW double counting   =     55594.23204139   -59034.67079123
  entropy T*S    EENTRO =        -0.04200230
  eigenvalues    EBANDS =     -9595.46392874
  atomic energy  EATOM  =     73862.19814772
  Solvation  Ediel_sol  =         0.00000000
  ---------------------------------------------------
  free energy    TOTEN  =      -533.89886654 eV

  energy without entropy =     -533.85686424  energy(sigma->0) =     -533.87786539


--------------------------------------------------------------------------------------------------------




--------------------------------------- Iteration      1(   4)  ---------------------------------------


    EDDIAG:  cpu time    3.7629: real time    3.7705
  RMM-DIIS:  cpu time    6.5587: real time    6.5950
    ORTHCH:  cpu time    1.1791: real time    1.1823
       DOS:  cpu time    0.0013: real time    0.0013
    --------------------------------------------
      LOOP:  cpu time   11.5020: real time   11.5491

 eigenvalue-minimisations  :  7168
 total energy-change (2. order) :-0.5230029E+03  (-0.5046233E+03)
 number of electron     672.0000000 magnetization      48.0000000
 augmentation part      672.0000000 magnetization      48.0000000

 Free energy of the ion-electron system (eV)
  ---------------------------------------------------
  alpha Z        PSCENC =      2652.81237852
  Ewald energy   TEWEN  =    -41935.97440223
  -Hartree energ DENC   =    -25682.70452729
  -exchange      EXHF   =         0.00000000
  -V(xc)+E(xc)   XCENC  =      3605.71421762
  PAW double counting   =     55594.23204139   -59034.67079123
  entropy T*S    EENTRO =        -0.00337271
  eigenvalues    EBANDS =    -10118.50543109
  atomic energy  EATOM  =     73862.19814772
  Solvation  Ediel_sol  =         0.00000000
  ---------------------------------------------------
  free energy    TOTEN  =     -1056.90173931 eV

  energy without entropy =    -1056.89836660  energy(sigma->0) =    -1056.90005295


--------------------------------------------------------------------------------------------------------




--------------------------------------- Iteration      1(   5)  ---------------------------------------


    EDDIAG:  cpu time    3.7160: real time    3.7256
  RMM-DIIS:  cpu time    6.5130: real time    6.6254
    ORTHCH:  cpu time    1.1353: real time    1.1377
       DOS:  cpu time    0.0010: real time    0.0010
    --------------------------------------------
      LOOP:  cpu time   11.3652: real time   11.4897

 eigenvalue-minimisations  :  7168
 total energy-change (2. order) :-0.1485170E+03  (-0.2130276E+03)
 number of electron     672.0000000 magnetization      48.0000000
 augmentation part      672.0000000 magnetization      48.0000000

 Free energy of the ion-electron system (eV)
  ---------------------------------------------------
  alpha Z        PSCENC =      2652.81237852
  Ewald energy   TEWEN  =    -41935.97440223
  -Hartree energ DENC   =    -25682.70452729
  -exchange      EXHF   =         0.00000000
  -V(xc)+E(xc)   XCENC  =      3605.71421762
  PAW double counting   =     55594.23204139   -59034.67079123
  entropy T*S    EENTRO =        -0.00000000
  eigenvalues    EBANDS =    -10267.02584057
  atomic energy  EATOM  =     73862.19814772
  Solvation  Ediel_sol  =         0.00000000
  ---------------------------------------------------
  free energy    TOTEN  =     -1205.41877607 eV

  energy without entropy =    -1205.41877607  energy(sigma->0) =    -1205.41877607


--------------------------------------------------------------------------------------------------------




--------------------------------------- Iteration      1(   6)  ---------------------------------------


    EDDIAG:  cpu time    3.7313: real time    3.7337
  RMM-DIIS:  cpu time    6.5966: real time    6.5985
    ORTHCH:  cpu time    1.1556: real time    1.1580
       DOS:  cpu time    0.0012: real time    0.0012
    --------------------------------------------
      LOOP:  cpu time   11.4847: real time   11.4915

 eigenvalue-minimisations  :  7168
 total energy-change (2. order) :-0.2183094E+02  (-0.1155410E+03)
 number of electron     672.0000000 magnetization      48.0000000
 augmentation part      672.0000000 magnetization      48.0000000

 Free energy of the ion-electron system (eV)
  ---------------------------------------------------
  alpha Z        PSCENC =      2652.81237852
  Ewald energy   TEWEN  =    -41935.97440223
  -Hartree energ DENC   =    -25682.70452729
  -exchange      EXHF   =         0.00000000
  -V(xc)+E(xc)   XCENC  =      3605.71421762
  PAW double counting   =     55594.23204139   -59034.67079123
  entropy T*S    EENTRO =        -0.00000000
  eigenvalues    EBANDS =    -10288.85678238
  atomic energy  EATOM  =     73862.19814772
  Solvation  Ediel_sol  =         0.00000000
  ---------------------------------------------------
  free energy    TOTEN  =     -1227.24971788 eV

  energy without entropy =    -1227.24971788  energy(sigma->0) =    -1227.24971788


--------------------------------------------------------------------------------------------------------




--------------------------------------- Iteration      1(   7)  ---------------------------------------


    EDDIAG:  cpu time    3.7927: real time    3.7966
  RMM-DIIS:  cpu time    6.5188: real time    6.6221
    ORTHCH:  cpu time    1.1401: real time    1.1424
       DOS:  cpu time    0.0010: real time    0.0010
    --------------------------------------------
      LOOP:  cpu time   11.4527: real time   11.5622

 eigenvalue-minimisations  :  7168
 total energy-change (2. order) :-0.6616199E+01  (-0.7618748E+02)
 number of electron     672.0000000 magnetization      48.0000000
 augmentation part      672.0000000 magnetization      48.0000000

 Free energy of the ion-electron system (eV)
  ---------------------------------------------------
  alpha Z        PSCENC =      2652.81237852
  Ewald energy   TEWEN  =    -41935.97440223
  -Hartree energ DENC   =    -25682.70452729
  -exchange      EXHF   =         0.00000000
  -V(xc)+E(xc)   XCENC  =      3605.71421762
  PAW double counting   =     55594.23204139   -59034.67079123
  entropy T*S    EENTRO =        -0.00000000
  eigenvalues    EBANDS =    -10295.47298181
  atomic energy  EATOM  =     73862.19814772
  Solvation  Ediel_sol  =         0.00000000
  ---------------------------------------------------
  free energy    TOTEN  =     -1233.86591732 eV

  energy without entropy =    -1233.86591732  energy(sigma->0) =    -1233.86591732


--------------------------------------------------------------------------------------------------------




--------------------------------------- Iteration      1(   8)  ---------------------------------------


    EDDIAG:  cpu time    3.7369: real time    3.7392
  RMM-DIIS:  cpu time    6.5756: real time    6.5802
    ORTHCH:  cpu time    1.1456: real time    1.1477
       DOS:  cpu time    0.0010: real time    0.0010
    --------------------------------------------
      LOOP:  cpu time   11.4591: real time   11.4680

 eigenvalue-minimisations  :  7168
 total energy-change (2. order) : 0.4642134E+01  (-0.5271812E+02)
 number of electron     672.0000000 magnetization      48.0000000
 augmentation part      672.0000000 magnetization      48.0000000

 Free energy of the ion-electron system (eV)
  ---------------------------------------------------
  alpha Z        PSCENC =      2652.81237852
  Ewald energy   TEWEN  =    -41935.97440223
  -Hartree energ DENC   =    -25682.70452729
  -exchange      EXHF   =         0.00000000
  -V(xc)+E(xc)   XCENC  =      3605.71421762
  PAW double counting   =     55594.23204139   -59034.67079123
  entropy T*S    EENTRO =        -0.00000000
  eigenvalues    EBANDS =    -10290.83084824
  atomic energy  EATOM  =     73862.19814772
  Solvation  Ediel_sol  =         0.00000000
  ---------------------------------------------------
  free energy    TOTEN  =     -1229.22378374 eV

  energy without entropy =    -1229.22378374  energy(sigma->0) =    -1229.22378374


--------------------------------------------------------------------------------------------------------




--------------------------------------- Iteration      1(   9)  ---------------------------------------


    EDDIAG:  cpu time    3.7133: real time    3.7161
  RMM-DIIS:  cpu time   13.8824: real time   13.9021
    ORTHCH:  cpu time    1.1417: real time    1.1439
       DOS:  cpu time    0.0011: real time    0.0011
    --------------------------------------------
      LOOP:  cpu time   18.7385: real time   18.7632

 eigenvalue-minimisations  : 20231
 total energy-change (2. order) : 0.1801217E+02  (-0.2362166E+02)
 number of electron     672.0000000 magnetization      48.0000000
 augmentation part      672.0000000 magnetization      48.0000000

 Free energy of the ion-electron system (eV)
  ---------------------------------------------------
  alpha Z        PSCENC =      2652.81237852
  Ewald energy   TEWEN  =    -41935.97440223
  -Hartree energ DENC   =    -25682.70452729
  -exchange      EXHF   =         0.00000000
  -V(xc)+E(xc)   XCENC  =      3605.71421762
  PAW double counting   =     55594.23204139   -59034.67079123
  entropy T*S    EENTRO =        -0.00000000
  eigenvalues    EBANDS =    -10272.81867490
  atomic energy  EATOM  =     73862.19814772
  Solvation  Ediel_sol  =         0.00000000
  ---------------------------------------------------
  free energy    TOTEN  =     -1211.21161040 eV

  energy without entropy =    -1211.21161040  energy(sigma->0) =    -1211.21161040


--------------------------------------------------------------------------------------------------------




--------------------------------------- Iteration      1(  10)  ---------------------------------------


    EDDIAG:  cpu time    3.7143: real time    3.7165
  RMM-DIIS:  cpu time   15.7669: real time   15.7733
    ORTHCH:  cpu time    1.1456: real time    1.1489
       DOS:  cpu time    0.0012: real time    0.0012
    --------------------------------------------
      LOOP:  cpu time   20.6280: real time   20.6399

 eigenvalue-minimisations  : 20258
 total energy-change (2. order) :-0.3089840E+01  (-0.1021058E+01)
 number of electron     672.0000000 magnetization      48.0000000
 augmentation part      672.0000000 magnetization      48.0000000

 Free energy of the ion-electron system (eV)
  ---------------------------------------------------
  alpha Z        PSCENC =      2652.81237852
  Ewald energy   TEWEN  =    -41935.97440223
  -Hartree energ DENC   =    -25682.70452729
  -exchange      EXHF   =         0.00000000
  -V(xc)+E(xc)   XCENC  =      3605.71421762
  PAW double counting   =     55594.23204139   -59034.67079123
  entropy T*S    EENTRO =        -0.00000001
  eigenvalues    EBANDS =    -10275.90851482
  atomic energy  EATOM  =     73862.19814772
  Solvation  Ediel_sol  =         0.00000000
  ---------------------------------------------------
  free energy    TOTEN  =     -1214.30145034 eV

  energy without entropy =    -1214.30145032  energy(sigma->0) =    -1214.30145033


--------------------------------------------------------------------------------------------------------




--------------------------------------- Iteration      1(  11)  ---------------------------------------


    EDDIAG:  cpu time    3.7347: real time    3.7486
  RMM-DIIS:  cpu time   15.2187: real time   15.2255
    ORTHCH:  cpu time    1.1474: real time    1.1496
       DOS:  cpu time    0.0011: real time    0.0011
    --------------------------------------------
      LOOP:  cpu time   20.1020: real time   20.1248

 eigenvalue-minimisations  : 21671
 total energy-change (2. order) : 0.1034821E+00  (-0.9838801E-01)
 number of electron     672.0000000 magnetization      48.0000000
 augmentation part      672.0000000 magnetization      48.0000000

 Free energy of the ion-electron system (eV)
  ---------------------------------------------------
  alpha Z        PSCENC =      2652.81237852
  Ewald energy   TEWEN  =    -41935.97440223
  -Hartree energ DENC   =    -25682.70452729
  -exchange      EXHF   =         0.00000000
  -V(xc)+E(xc)   XCENC  =      3605.71421762
  PAW double counting   =     55594.23204139   -59034.67079123
  entropy T*S    EENTRO =        -0.00000002
  eigenvalues    EBANDS =    -10275.80503275
  atomic energy  EATOM  =     73862.19814772
  Solvation  Ediel_sol  =         0.00000000
  ---------------------------------------------------
  free energy    TOTEN  =     -1214.19796827 eV

  energy without entropy =    -1214.19796825  energy(sigma->0) =    -1214.19796826


--------------------------------------------------------------------------------------------------------




--------------------------------------- Iteration      1(  12)  ---------------------------------------


    EDDIAG:  cpu time    3.7078: real time    3.7103
  RMM-DIIS:  cpu time   16.0413: real time   16.0673
    ORTHCH:  cpu time    1.1338: real time    1.1361
       DOS:  cpu time    0.0012: real time    0.0012
    CHARGE:  cpu time    1.3414: real time    1.3420
    MIXING:  cpu time    0.0014: real time    0.0015
    --------------------------------------------
      LOOP:  cpu time   22.2269: real time   22.2585

 eigenvalue-minimisations  : 22804
 total energy-change (2. order) : 0.6804898E-02  (-0.6891177E-02)
 number of electron     671.9999582 magnetization      48.0000018
 augmentation part      239.0342439 magnetization      29.0400988

 Broyden mixing:
  rms(total) = 0.12529E+02    rms(broyden)= 0.12520E+02
  rms(prec ) = 0.14385E+02
  weight for this iteration     100.00

 Free energy of the ion-electron system (eV)
  ---------------------------------------------------
  alpha Z        PSCENC =      2652.81237852
  Ewald energy   TEWEN  =    -41935.97440223
  -Hartree energ DENC   =    -25682.70452729
  -exchange      EXHF   =         0.00000000
  -V(xc)+E(xc)   XCENC  =      3605.71421762
  PAW double counting   =     55594.23204139   -59034.67079123
  entropy T*S    EENTRO =        -0.00000002
  eigenvalues    EBANDS =    -10275.79822786
  atomic energy  EATOM  =     73862.19814772
  Solvation  Ediel_sol  =         0.00000000
  ---------------------------------------------------
  free energy    TOTEN  =     -1214.19116338 eV

  energy without entropy =    -1214.19116336  energy(sigma->0) =    -1214.19116337


--------------------------------------------------------------------------------------------------------




--------------------------------------- Iteration      1(  13)  ---------------------------------------


    POTLOK:  cpu time    0.1966: real time    0.1975
    SETDIJ:  cpu time    3.2447: real time    3.2581
    EDDIAG:  cpu time    3.7370: real time    3.7390
  RMM-DIIS:  cpu time   12.9982: real time   13.0092
    ORTHCH:  cpu time    1.1608: real time    1.1671
       DOS:  cpu time    0.0012: real time    0.0012
    CHARGE:  cpu time    1.3452: real time    1.3457
    MIXING:  cpu time    0.0008: real time    0.0008
    --------------------------------------------
      LOOP:  cpu time   22.6845: real time   22.7186

 eigenvalue-minimisations  : 17314
 total energy-change (2. order) : 0.2242154E+03  (-0.1382233E+03)
 number of electron     671.9999587 magnetization      48.0000020
 augmentation part      268.9601318 magnetization      26.5835867

 Broyden mixing:
  rms(total) = 0.13929E+02    rms(broyden)= 0.13926E+02
  rms(prec ) = 0.15658E+02
  weight for this iteration     100.00

 eigenvalues of (default mixing * dielectric matrix)
  average eigenvalue GAMMA=   0.3170
  0.3170

 Free energy of the ion-electron system (eV)
  ---------------------------------------------------
  alpha Z        PSCENC =      2652.81237852
  Ewald energy   TEWEN  =    -41935.97440223
  -Hartree energ DENC   =    -25007.43829301
  -exchange      EXHF   =         0.00000000
  -V(xc)+E(xc)   XCENC  =      3695.87653076
  PAW double counting   =     59867.97586483   -63292.86620280
  entropy T*S    EENTRO =        -0.06987754
  eigenvalues    EBANDS =    -10832.48995014
  atomic energy  EATOM  =     73862.19814772
  Solvation  Ediel_sol  =         0.00000000
  ---------------------------------------------------
  free energy    TOTEN  =      -989.97580389 eV

  energy without entropy =     -989.90592635  energy(sigma->0) =     -989.94086512


--------------------------------------------------------------------------------------------------------




--------------------------------------- Iteration      1(  14)  ---------------------------------------


    POTLOK:  cpu time    0.2104: real time    0.2110
    SETDIJ:  cpu time    3.2553: real time    3.2558
    EDDIAG:  cpu time    3.7279: real time    3.7301
  RMM-DIIS:  cpu time   13.5268: real time   13.5328
    ORTHCH:  cpu time    1.1800: real time    1.1824
       DOS:  cpu time    0.0010: real time    0.0010
    CHARGE:  cpu time    1.3403: real time    1.3406
    MIXING:  cpu time    0.0007: real time    0.0007
    --------------------------------------------
      LOOP:  cpu time   23.2424: real time   23.2545

 eigenvalue-minimisations  : 17759
 total energy-change (2. order) : 0.7485487E+02  (-0.1866446E+02)
 number of electron     671.9999579 magnetization      48.0000032
 augmentation part      246.6466127 magnetization      32.2154206

 Broyden mixing:
  rms(total) = 0.52263E+01    rms(broyden)= 0.52221E+01
  rms(prec ) = 0.56356E+01
  weight for this iteration     100.00

 eigenvalues of (default mixing * dielectric matrix)
  average eigenvalue GAMMA=   0.7291
  1.0987  0.3594

 Free energy of the ion-electron system (eV)
  ---------------------------------------------------
  alpha Z        PSCENC =      2652.81237852
  Ewald energy   TEWEN  =    -41935.97440223
  -Hartree energ DENC   =    -25617.28204313
  -exchange      EXHF   =         0.00000000
  -V(xc)+E(xc)   XCENC  =      3673.54912385
  PAW double counting   =     63274.90846402   -66756.75095044
  entropy T*S    EENTRO =        -0.00000000
  eigenvalues    EBANDS =    -10068.58165266
  atomic energy  EATOM  =     73862.19814772
  Solvation  Ediel_sol  =         0.00000000
  ---------------------------------------------------
  free energy    TOTEN  =      -915.12093435 eV

  energy without entropy =     -915.12093435  energy(sigma->0) =     -915.12093435


--------------------------------------------------------------------------------------------------------




--------------------------------------- Iteration      1(  15)  ---------------------------------------


    POTLOK:  cpu time    0.2089: real time    0.2098
    SETDIJ:  cpu time    3.2557: real time    3.2575
    EDDIAG:  cpu time    3.7922: real time    3.8069
  RMM-DIIS:  cpu time   13.6299: real time   13.6378
    ORTHCH:  cpu time    1.1536: real time    1.1560
       DOS:  cpu time    0.0010: real time    0.0010
    CHARGE:  cpu time    1.3418: real time    1.3423
    MIXING:  cpu time    0.0007: real time    0.0007
    --------------------------------------------
      LOOP:  cpu time   23.3838: real time   23.4120

 eigenvalue-minimisations  : 18420
 total energy-change (2. order) : 0.1341369E+02  (-0.2022246E+01)
 number of electron     671.9999578 magnetization      48.0000041
 augmentation part      249.6903754 magnetization      33.8240830

 Broyden mixing:
  rms(total) = 0.21225E+01    rms(broyden)= 0.21222E+01
  rms(prec ) = 0.22017E+01
  weight for this iteration     100.00

 eigenvalues of (default mixing * dielectric matrix)
  average eigenvalue GAMMA=   0.9572
  0.3844  0.7616  1.7257

 Free energy of the ion-electron system (eV)
  ---------------------------------------------------
  alpha Z        PSCENC =      2652.81237852
  Ewald energy   TEWEN  =    -41935.97440223
  -Hartree energ DENC   =    -25535.87866191
  -exchange      EXHF   =         0.00000000
  -V(xc)+E(xc)   XCENC  =      3706.01679584
  PAW double counting   =     67352.95259025   -70875.09591868
  entropy T*S    EENTRO =        -0.00000000
  eigenvalues    EBANDS =    -10128.73817101
  atomic energy  EATOM  =     73862.19814772
  Solvation  Ediel_sol  =         0.00000000
  ---------------------------------------------------
  free energy    TOTEN  =      -901.70724149 eV

  energy without entropy =     -901.70724149  energy(sigma->0) =     -901.70724149


--------------------------------------------------------------------------------------------------------




--------------------------------------- Iteration      1(  16)  ---------------------------------------


    POTLOK:  cpu time    0.2058: real time    0.2066
    SETDIJ:  cpu time    3.2932: real time    3.2939
    EDDIAG:  cpu time    3.7702: real time    3.7726
  RMM-DIIS:  cpu time   13.0449: real time   13.1099
    ORTHCH:  cpu time    1.1523: real time    1.1544
       DOS:  cpu time    0.0010: real time    0.0010
    CHARGE:  cpu time    1.3378: real time    1.3401
    MIXING:  cpu time    0.0008: real time    0.0008
    --------------------------------------------
      LOOP:  cpu time   22.8062: real time   22.8793

 eigenvalue-minimisations  : 17347
 total energy-change (2. order) :-0.1553729E+01  (-0.6920759E+00)
 number of electron     671.9999578 magnetization      48.0000044
 augmentation part      251.1903927 magnetization      33.9115246

 Broyden mixing:
  rms(total) = 0.13943E+01    rms(broyden)= 0.13938E+01
  rms(prec ) = 0.14868E+01
  weight for this iteration     100.00

 eigenvalues of (default mixing * dielectric matrix)
  average eigenvalue GAMMA=   0.9740
  2.0693  0.9039  0.3914  0.5314

 Free energy of the ion-electron system (eV)
  ---------------------------------------------------
  alpha Z        PSCENC =      2652.81237852
  Ewald energy   TEWEN  =    -41935.97440223
  -Hartree energ DENC   =    -25484.86733746
  -exchange      EXHF   =         0.00000000
  -V(xc)+E(xc)   XCENC  =      3707.28299891
  PAW double counting   =     70317.42430180   -73869.70773392
  entropy T*S    EENTRO =        -0.00000000
  eigenvalues    EBANDS =    -10152.42932362
  atomic energy  EATOM  =     73862.19814772
  Solvation  Ediel_sol  =         0.00000000
  ---------------------------------------------------
  free energy    TOTEN  =      -903.26097028 eV

  energy without entropy =     -903.26097028  energy(sigma->0) =     -903.26097028


--------------------------------------------------------------------------------------------------------




--------------------------------------- Iteration      1(  17)  ---------------------------------------


    POTLOK:  cpu time    0.2142: real time    0.2152
    SETDIJ:  cpu time    3.2955: real time    3.2961
    EDDIAG:  cpu time    3.7226: real time    3.7246
  RMM-DIIS:  cpu time   13.8060: real time   13.8298
    ORTHCH:  cpu time    1.1430: real time    1.1452
       DOS:  cpu time    0.0011: real time    0.0011
    CHARGE:  cpu time    1.3395: real time    1.3398
    MIXING:  cpu time    0.0014: real time    0.0014
    --------------------------------------------
      LOOP:  cpu time   23.5232: real time   23.5532

 eigenvalue-minimisations  : 18801
 total energy-change (2. order) : 0.1908765E+00  (-0.7501779E-01)
 number of electron     671.9999578 magnetization      48.0000045
 augmentation part      251.0607126 magnetization      33.9072674

 Broyden mixing:
  rms(total) = 0.74779E+00    rms(broyden)= 0.74768E+00
  rms(prec ) = 0.84213E+00
  weight for this iteration     100.00

 eigenvalues of (default mixing * dielectric matrix)
  average eigenvalue GAMMA=   1.0034
  2.2365  1.1315  0.3822  0.7008  0.5660

 Free energy of the ion-electron system (eV)
  ---------------------------------------------------
  alpha Z        PSCENC =      2652.81237852
  Ewald energy   TEWEN  =    -41935.97440223
  -Hartree energ DENC   =    -25478.08894092
  -exchange      EXHF   =         0.00000000
  -V(xc)+E(xc)   XCENC  =      3704.32664302
  PAW double counting   =     71127.17294504   -74687.39712352
  entropy T*S    EENTRO =        -0.00000000
  eigenvalues    EBANDS =    -10148.11974146
  atomic energy  EATOM  =     73862.19814772
  Solvation  Ediel_sol  =         0.00000000
  ---------------------------------------------------
  free energy    TOTEN  =      -903.07009382 eV

  energy without entropy =     -903.07009382  energy(sigma->0) =     -903.07009382


--------------------------------------------------------------------------------------------------------




--------------------------------------- Iteration      1(  18)  ---------------------------------------


    POTLOK:  cpu time    0.1993: real time    0.1996
    SETDIJ:  cpu time    3.2733: real time    3.2739
    EDDIAG:  cpu time    3.7198: real time    3.7244
  RMM-DIIS:  cpu time   13.2790: real time   13.2843
    ORTHCH:  cpu time    1.1498: real time    1.1532
       DOS:  cpu time    0.0010: real time    0.0010
    CHARGE:  cpu time    1.3386: real time    1.3392
    MIXING:  cpu time    0.0010: real time    0.0010
    --------------------------------------------
      LOOP:  cpu time   22.9618: real time   22.9767

 eigenvalue-minimisations  : 17490
 total energy-change (2. order) : 0.3826867E+00  (-0.7084084E-01)
 number of electron     671.9999578 magnetization      48.0000046
 augmentation part      250.5761944 magnetization      33.8697227

 Broyden mixing:
  rms(total) = 0.27564E+00    rms(broyden)= 0.27536E+00
  rms(prec ) = 0.29048E+00
  weight for this iteration     100.00

 eigenvalues of (default mixing * dielectric matrix)
  average eigenvalue GAMMA=   1.0184
  2.4677  1.3480  0.8518  0.5895  0.3836  0.4699

 Free energy of the ion-electron system (eV)
[...]
   4      -0.808    -0.766     1.574    -0.067    -0.412    -0.332
   5      -0.771    -0.668     1.440    -0.121     0.494     0.234
   6      -0.741    -0.614     1.356     0.077    -0.315     0.098
   7      -0.616    -0.827     1.443     0.049     0.002     0.487
   8      -0.789    -0.667     1.457     0.109     0.390    -0.249
   9      -0.715    -0.603     1.318     0.064    -0.155    -0.019
  10      -0.837    -0.755     1.592    -0.041     0.514     0.304
  11      -0.910    -0.976     1.885     0.079     0.035    -0.031
  12      -0.902    -0.971     1.873     0.077    -0.000    -0.036
  13      -0.854    -0.628     1.482     0.096     0.422    -0.245
  14      -0.759    -0.752     1.512    -0.070    -0.488    -0.211
  15      -0.667    -0.869     1.536    -0.018    -0.043    -0.470
  16      -0.657    -0.855     1.512     0.004     0.044    -0.472
  17       1.338     1.557    -2.895    -0.081     0.037     0.071
  18       1.515     1.428    -2.943     0.248     0.015     0.092
  19       1.451     1.453    -2.903     0.032    -0.029    -0.041
  20       1.381     1.582    -2.963     0.164    -0.069     0.016
  21       1.391     1.508    -2.898     0.086    -0.147     0.029
  22       1.710     1.288    -2.998    -0.043    -0.046    -0.110
  23       1.460     1.311    -2.771     0.051     0.076     0.087
  24       1.420     1.443    -2.863     0.129     0.055    -0.062
  25      -0.042    -0.405     0.447    -0.029    -0.202     0.764
  26      -0.221     1.137    -0.917     0.685    -0.321    -0.501
  27       1.323    -0.676    -0.646    -0.090    -1.612     1.840
  28       0.327    -0.203    -0.124    -0.623    -0.165    -0.388
  29       0.295     0.389    -0.684     0.648    -0.381     0.436
  30      -0.761     0.420     0.341     1.671    -0.760    -0.482
  31      -0.349    -0.828     1.177     0.137    -0.127     0.695
  32       0.905    -1.042     0.137    -0.551    -0.228     0.697
  33      -2.904     0.534     2.370    -1.510    -0.011     0.198
  34       0.293    -0.358     0.065     0.492    -0.330     0.078
  35      -0.104    -0.782     0.886    -1.037     0.387    -1.622
  36      -0.054    -1.051     1.106    -0.914    -0.130    -0.236
  37       1.606    -0.029    -1.577    -0.505     0.573     1.385
  38       0.167     0.220    -0.386     0.418    -0.013     0.209
  39      -0.123    -1.275     1.398    -1.311     0.518    -0.886
  40       0.047    -0.680     0.633     1.277    -0.735     0.109
  41      -2.822     2.278     0.544    -4.834     1.995    -3.249
  42      -2.223     2.796    -0.573     5.392     2.937     3.715
  43       5.211    -6.353     1.142    -0.111    -5.193     2.741
  44      -2.635     3.231    -0.595     4.247    -5.005    -2.593
  45      -2.738     2.621     0.117    -5.795    -0.438     3.858
  46       5.163    -5.756     0.593    -0.362     4.320     1.360
  47      -2.009     3.022    -1.013    -5.542     2.390    -3.450
  48       3.207    -5.828     2.621    -1.670    -4.862     0.574
  49      -3.174     2.717     0.457     6.268     1.583     4.097
  50       5.881    -5.845    -0.036     0.087     4.051     1.331
  51      -2.516    -0.460     2.976    -4.152    -2.668     5.288
  52      -1.338     1.017     0.321     5.301    -2.350    -5.063
  53      -4.403     3.611     0.793    -3.633     1.117    -4.720
  54      -2.908     0.978     1.930     5.856     2.409     5.062
  55       6.607    -7.482     0.874    -0.709    -3.915     0.607
  56      -3.279     2.918     0.361     2.938    -3.882    -3.193
  57      -3.066     1.041     2.025    -5.102    -1.936     4.558
  58       7.023    -6.460    -0.564     0.674     4.595     0.710
  59      -4.680     5.615    -0.934    -4.028     1.052    -2.361
  60       4.976    -4.499    -0.476    -0.725    -4.826    -0.196
  61      -3.209     2.220     0.989     5.439     3.403     4.812
  62       7.846    -6.789    -1.057     2.187     4.208     0.497
  63      -2.029    -0.379     2.408    -4.026    -1.580     5.488
  64      -3.702     3.366     0.337     4.179    -3.381    -2.645
  65      -3.945     2.410     1.535    -3.451     1.247    -5.810
  66      -2.582     0.668     1.913     5.637     0.786     5.701
  67       6.972    -6.992     0.020    -0.369    -4.747     0.882
  68      -4.462     1.986     2.476     4.528    -3.228    -3.809
  69      -4.182     3.683     0.499    -4.715    -3.636     2.363
  70       5.857    -6.995     1.138     0.033     5.424    -0.470
  71      -4.071     4.642    -0.572    -4.874     2.126    -3.020
  72       4.792    -5.648     0.856    -0.421    -4.977    -1.010
  73      -3.300     3.346    -0.046     4.932     3.198     4.017
  74       5.177    -6.342     1.165     1.948     4.110     0.142
  75      -2.387     3.557    -1.171    -4.555    -1.730     3.493
  76      -2.775     1.210     1.565     4.485    -2.827    -3.164
  77      -1.630     0.961     0.668    -5.600     1.880    -3.503
  78      -3.592     1.369     2.223     4.836     2.638     3.643
  79       5.614    -5.659     0.046    -1.551    -5.024    -0.810
  80      -3.934     0.739     3.195     4.093    -3.042    -4.489
  81      -3.468     3.670    -0.202    -6.157    -2.787     2.781
  82       2.536    -4.192     1.656     0.303     5.207     0.754
  83      -1.864     2.300    -0.436    -5.362     3.651    -2.831
  84       5.413    -6.008     0.595    -0.459    -4.557     1.274
  85      -2.813     2.900    -0.087     4.367     2.187     3.219
  86       5.073    -5.193     0.120     1.197     4.853    -2.270
  87      -2.396     3.521    -1.125    -4.591    -2.655     2.154
  88      -2.168     0.674     1.494     5.955    -1.239    -4.340
 ---------------------------------------------------------------------


 Total hyperfine coupling parameters after diagonalization (MHz)
 (convention: |A_zz| > |A_xx| > |A_yy|)
 ----------------------------------------------------------------------
  ion      A_xx      A_yy      A_zz     asymmetry (A_yy - A_xx)/ A_zz 
 ----------------------------------------------------------------------
   1       0.683     0.479     3.295      -0.062
   2       0.112    -0.083     2.811      -0.069
   3       1.793     1.323     3.839      -0.122
   4       1.660     1.409     4.061      -0.062
   5       1.818     1.434     3.972      -0.097
   6       1.030     0.782     3.015      -0.082
   7       1.564     1.239     3.716      -0.088
   8       2.008     1.669     4.158      -0.082
   9       0.756     0.581     2.664      -0.066
  10       1.704     1.453     4.174      -0.060
  11       0.227     0.056     2.971      -0.058
  12       0.706     0.537     3.431      -0.049
  13       2.272     1.884     4.446      -0.087
  14       2.138     1.899     4.460      -0.054
  15       1.943     1.649     4.234      -0.069
  16       2.125     1.836     4.385      -0.066
  17      13.812     9.603    14.084      -0.299
  18      15.168    11.002    15.671      -0.266
  19      14.307     9.983    14.371      -0.301
  20      14.173     9.919    14.557      -0.292
  21      13.724     9.471    13.928      -0.305
  22      15.208    10.920    15.637      -0.274
  23      13.362     9.292    13.543      -0.301
  24      13.353     9.186    13.611      -0.306
  25      98.472    97.681    99.476      -0.008
  26      94.225    93.641    96.276      -0.006
  27      96.386    93.360    98.752      -0.031
  28      98.217    97.259    98.858      -0.010
  29      96.166    94.953    97.052      -0.012
  30      95.337    93.363    97.382      -0.020
  31      96.551    95.782    98.263      -0.008
  32      96.697    95.041    97.700      -0.017
  33     100.191    95.643   101.514      -0.045
  34      97.921    97.204    98.569      -0.007
  35      99.097    97.237   101.497      -0.018
  36      99.592    97.484   100.236      -0.021
  37      95.332    92.043    96.332      -0.034
  38      93.998    93.647    94.772      -0.004
  39      98.087    95.775   100.044      -0.023
  40      93.648    91.524    94.699      -0.022
  41       5.894     1.754    14.825      -0.279
  42       3.763     0.948    15.324      -0.184
  43       3.970    -2.044    14.363      -0.419
  44       5.858    -0.104    15.099      -0.395
  45       6.371     0.453    15.299      -0.387
  46       5.773     1.145    15.124      -0.306
  47       4.465     1.744    15.783      -0.172
  48       3.778    -0.529    13.585      -0.317
  49       6.177     0.543    16.718      -0.337
  50       6.750     2.326    16.496      -0.268
  51       2.852    -0.458    14.307      -0.231
  52       5.651     2.317    17.168      -0.194
  53       4.352     0.714    14.774      -0.246
  54       5.139    -0.090    16.539      -0.316
  55       8.204     1.768    17.952      -0.359
  56       5.441     0.938    13.942      -0.323
  57       4.258    -0.746    14.196      -0.352
  58       4.896     1.047    16.834      -0.229
  59       6.132     1.738    15.584      -0.282
  60       2.404     0.776    13.313      -0.122
  61       4.778     1.181    17.385      -0.207
  62       6.614     2.206    19.135      -0.230
  63       4.950     0.618    14.928      -0.290
  64       5.996     0.754    14.546      -0.360
  65       5.107     2.171    16.709      -0.176
  66       7.922     1.098    17.774      -0.384
  67       7.959     3.159    19.676      -0.244
  68       9.041     3.487    18.839      -0.295
  69       8.002     1.478    16.493      -0.396
  70       9.177     4.522    20.974      -0.222
  71       7.688     3.285    17.949      -0.245
  72       4.405     0.616    14.780      -0.256
  73       5.489     2.055    17.052      -0.201
  74       6.839     1.383    16.042      -0.340
  75       3.963     1.967    14.559      -0.137
  76       4.777     0.488    13.494      -0.318
  77       5.678     0.956    14.755      -0.320
  78       4.187    -1.059    13.387      -0.392
  79       5.052     0.972    15.963      -0.256
  80       3.832    -0.265    14.638      -0.280
  81       7.160     1.605    17.627      -0.315
  82       4.215     2.904    14.612      -0.090
  83       4.448     0.616    14.889      -0.257
  84       6.759     2.472    16.970      -0.253
  85       2.299    -0.838    11.674      -0.269
  86       6.545     0.912    15.799      -0.357
  87       2.234    -1.319    11.317      -0.314
  88       8.057     1.617    16.980      -0.379
 ---------------------------------------------------------------------



--------------------------------------------------------------------------------------------------------


 stress matrix after NEB project (eV)
    -50.05750     -3.22262     -3.16707
     -3.23304    -44.81286     -7.32549
     -3.13480     -7.32162    -64.03433
  FORCES: max atom, RMS     2.258003    1.093829
  FORCE total and by dimension   10.261025    1.920873
  Stress total and by dimension   93.607185   64.034328
     LOOP+:  cpu time  609.3018: real time  610.5285
    4ORBIT:  cpu time    0.0000: real time    0.0000
 


 total charge     
 
# of ion       s       p       d       tot
------------------------------------------
    1        0.054   5.998   0.000   6.053
    2        0.050   5.995   0.000   6.045
    3        0.049   5.991   0.000   6.041
    4        0.048   5.990   0.000   6.038
    5        0.050   5.993   0.000   6.043
    6        0.049   5.993   0.000   6.042
    7        0.045   5.987   0.000   6.032
    8        0.054   5.996   0.000   6.050
    9        0.051   5.994   0.000   6.045
   10        0.051   5.993   0.000   6.044
   11        0.051   5.994   0.000   6.045
   12        0.050   5.995   0.000   6.046
   13        0.050   5.991   0.000   6.041
   14        0.052   5.994   0.000   6.046
   15        0.052   5.995   0.000   6.047
   16        0.049   5.990   0.000   6.040
   17        0.151   6.130   0.085   6.366
   18        0.145   6.121   0.079   6.345
   19        0.146   6.122   0.080   6.348
   20        0.154   6.135   0.090   6.378
   21        0.146   6.123   0.080   6.350
   22        0.150   6.132   0.087   6.370
   23        0.147   6.123   0.080   6.350
   24        0.147   6.125   0.082   6.354
   25        0.375   6.453   4.832  11.660
   26        0.378   6.463   4.826  11.667
   27        0.382   6.464   4.859  11.706
   28        0.377   6.460   4.836  11.673
   29        0.374   6.450   4.831  11.655
   30        0.372   6.446   4.817  11.636
   31        0.382   6.466   4.849  11.698
   32        0.375   6.455   4.826  11.656
   33        0.366   6.434   4.811  11.612
   34        0.373   6.450   4.825  11.649
   35        0.368   6.436   4.822  11.626
   36        0.366   6.430   4.813  11.608
   37        0.378   6.461   4.839  11.678
   38        0.370   6.446   4.810  11.627
   39        0.382   6.466   4.849  11.696
   40        0.392   6.491   4.867  11.750
   41        1.598   3.483   0.000   5.080
   42        1.598   3.480   0.000   5.078
   43        1.599   3.471   0.000   5.070
   44        1.600   3.484   0.000   5.084
   45        1.597   3.505   0.000   5.102
   46        1.595   3.488   0.000   5.083
   47        1.600   3.508   0.000   5.107
   48        1.598   3.489   0.000   5.088
   49        1.601   3.511   0.000   5.112
   50        1.602   3.536   0.000   5.138
   51        1.596   3.509   0.000   5.105
   52        1.603   3.518   0.000   5.121
   53        1.599   3.503   0.000   5.102
   54        1.599   3.515   0.000   5.115
   55        1.598   3.503   0.000   5.101
   56        1.600   3.539   0.000   5.138
   57        1.599   3.519   0.000   5.118
   58        1.604   3.485   0.000   5.089
   59        1.598   3.486   0.000   5.084
   60        1.598   3.490   0.000   5.088
   61        1.602   3.515   0.000   5.117
   62        1.602   3.503   0.000   5.105
   63        1.598   3.508   0.000   5.106
   64        1.598   3.494   0.000   5.092
   65        1.599   3.515   0.000   5.115
   66        1.600   3.503   0.000   5.103
   67        1.599   3.488   0.000   5.087
   68        1.600   3.513   0.000   5.114
   69        1.598   3.514   0.000   5.112
   70        1.605   3.526   0.000   5.130
   71        1.599   3.520   0.000   5.119
   72        1.598   3.515   0.000   5.113
   73        1.603   3.508   0.000   5.111
   74        1.602   3.536   0.000   5.138
   75        1.597   3.497   0.000   5.095
   76        1.596   3.499   0.000   5.095
   77        1.598   3.507   0.000   5.105
   78        1.597   3.513   0.000   5.110
   79        1.599   3.466   0.000   5.065
   80        1.599   3.504   0.000   5.103
   81        1.599   3.502   0.000   5.101
   82        1.595   3.491   0.000   5.086
   83        1.600   3.491   0.000   5.091
   84        1.598   3.512   0.000   5.110
   85        1.594   3.491   0.000   5.085
   86        1.599   3.492   0.000   5.091
   87        1.596   3.488   0.000   5.084
   88        1.602   3.532   0.000   5.134
--------------------------------------------------
tot         84.758 416.341  77.975 579.073
 


 magnetization (x)
 
# of ion       s       p       d       tot
------------------------------------------
    1        0.001   0.001   0.000   0.002
    2        0.001   0.000   0.000   0.001
    3        0.002   0.000   0.000   0.002
    4        0.002  -0.000   0.000   0.002
    5        0.002   0.000   0.000   0.002
    6        0.001   0.000   0.000   0.002
    7        0.002   0.000   0.000   0.002
    8        0.002   0.000   0.000   0.002
    9        0.001   0.001   0.000   0.002
   10        0.002  -0.000   0.000   0.002
   11        0.001   0.000   0.000   0.001
   12        0.001   0.001   0.000   0.002
   13        0.002   0.000   0.000   0.003
   14        0.002   0.000   0.000   0.002
   15        0.002   0.000   0.000   0.002
   16        0.002   0.000   0.000   0.002
   17        0.007   0.002   0.001   0.010
   18        0.008   0.003   0.001   0.012
   19        0.007   0.002   0.001   0.011
   20        0.007   0.002   0.001   0.011
   21        0.007   0.002   0.001   0.010
   22        0.008   0.003   0.001   0.012
   23        0.007   0.002   0.001   0.010
   24        0.007   0.002   0.001   0.010
   25        0.016   0.031   2.756   2.802
   26        0.015   0.030   2.750   2.795
   27        0.015   0.029   2.734   2.778
   28        0.016   0.031   2.749   2.796
   29        0.015   0.030   2.756   2.801
   30        0.015   0.030   2.759   2.804
   31        0.015   0.031   2.733   2.779
   32        0.016   0.030   2.749   2.795
   33        0.016   0.030   2.787   2.832
   34        0.016   0.030   2.759   2.804
   35        0.016   0.030   2.778   2.823
   36        0.016   0.029   2.781   2.826
   37        0.015   0.030   2.742   2.786
   38        0.015   0.029   2.764   2.808
   39        0.015   0.029   2.735   2.779
   40        0.015   0.030   2.720   2.765
   41        0.002   0.030   0.000   0.032
   42        0.002   0.025   0.000   0.027
   43        0.002   0.008   0.000   0.009
   44        0.002   0.027   0.000   0.029
   45        0.002   0.028   0.000   0.030
   46        0.002   0.033   0.000   0.035
   47        0.002   0.031   0.000   0.033
   48        0.002   0.018   0.000   0.020
   49        0.002   0.047   0.000   0.049
   50        0.002   0.046   0.000   0.049
   51        0.001   0.026   0.000   0.027
   52        0.002   0.038   0.000   0.041
   53        0.002   0.026   0.000   0.027
   54        0.002   0.037   0.000   0.039
   55        0.002   0.050   0.000   0.052
   56        0.002   0.030   0.000   0.031
   57        0.002   0.031   0.000   0.033
   58        0.002   0.029   0.000   0.031
   59        0.002   0.031   0.000   0.033
   60        0.002   0.014   0.000   0.016
   61        0.002   0.036   0.000   0.038
   62        0.002   0.050   0.000   0.052
   63        0.002   0.030   0.000   0.032
   64        0.002   0.028   0.000   0.030
   65        0.002   0.037   0.000   0.039
   66        0.002   0.047   0.000   0.050
   67        0.003   0.049   0.000   0.051
   68        0.003   0.052   0.000   0.055
   69        0.002   0.050   0.000   0.052
   70        0.003   0.067   0.000   0.070
   71        0.002   0.045   0.000   0.048
   72        0.002   0.029   0.000   0.031
   73        0.002   0.035   0.000   0.037
   74        0.002   0.043   0.000   0.045
   75        0.002   0.024   0.000   0.026
   76        0.002   0.018   0.000   0.020
   77        0.002   0.032   0.000   0.034
   78        0.001   0.029   0.000   0.031
   79        0.002   0.024   0.000   0.026
   80        0.002   0.030   0.000   0.032
   81        0.002   0.042   0.000   0.044
   82        0.002   0.029   0.000   0.031
   83        0.002   0.025   0.000   0.027
   84        0.002   0.043   0.000   0.046
   85        0.001   0.004   0.000   0.006
   86        0.002   0.026   0.000   0.028
   87        0.001   0.004   0.000   0.005
   88        0.002   0.053   0.000   0.055
--------------------------------------------------
tot          0.423   2.091  44.060  46.573
 

 total amount of memory used by VASP MPI-rank0    88171. kBytes
=======================================================================

   base      :      30000. kBytes
   nonlr-proj:      13662. kBytes
   fftplans  :        992. kBytes
   grid      :      21513. kBytes
   one-center:       2737. kBytes
   wavefun   :      19267. kBytes
 
  
  
 General timing and accounting informations for this job:
 ========================================================
  
                  Total CPU time used (sec):      628.793
                            User time (sec):      622.983
                          System time (sec):        5.810
                         Elapsed time (sec):      632.779
  
                   Maximum memory used (kb):      181048.
                   Average memory used (kb):           0.
  
                          Minor page faults:       308098
                          Major page faults:            0
                 Voluntary context switches:         3715
