 vasp.5.4.4.18Apr17-6-g9f103f2a35 (build Dec 02 2020 12:53:39) complex          
  
 executed on             LinuxIFC date 2021.07.31  02:48:48
 running on  112 total cores
 distrk:  each k-point on  112 cores,    1 groups
 distr:  one band on NCORES_PER_BAND=   1 cores,  112 groups


--------------------------------------------------------------------------------------------------------


 INCAR:
 POTCAR:    PAW_PBE Na_pv 19Sep2006               
 POTCAR:    PAW_PBE Mg_pv 13Apr2007               
 POTCAR:    PAW_PBE Mn_pv 02Aug2007               
 POTCAR:    PAW_PBE O 08Apr2002                   

 ----------------------------------------------------------------------------- 
|                                                                             |
|           W    W    AA    RRRRR   N    N  II  N    N   GGGG   !!!           |
|           W    W   A  A   R    R  NN   N  II  NN   N  G    G  !!!           |
|           W    W  A    A  R    R  N N  N  II  N N  N  G       !!!           |
|           W WW W  AAAAAA  RRRRR   N  N N  II  N  N N  G  GGG   !            |
|           WW  WW  A    A  R   R   N   NN  II  N   NN  G    G                |
|           W    W  A    A  R    R  N    N  II  N    N   GGGG   !!!           |
|                                                                             |
|      For optimal performance we recommend to set                            |
|        NCORE= 4 - approx SQRT( number of cores)                             |
|      NCORE specifies how many cores store one orbital (NPAR=cpu/NCORE).     |
|      This setting can  greatly improve the performance of VASP for DFT.     |
|      The default,   NCORE=1            might be grossly inefficient         |
|      on modern multi-core architectures or massively parallel machines.     |
|      Do your own testing !!!!                                               |
|      Unfortunately you need to use the default for GW and RPA calculations. |
|      (for HF NCORE is supported but not extensively tested yet)             |
|                                                                             |
 ----------------------------------------------------------------------------- 

 POTCAR:    PAW_PBE Na_pv 19Sep2006               
   VRHFIN =Na: p6s1                                                             
   LEXCH  = PE                                                                  
   EATOM  =   766.0439 eV,   56.3026 Ry                                         
                                                                                
   TITEL  = PAW_PBE Na_pv 19Sep2006                                             
   LULTRA =        F    use ultrasoft PP ?                                      
   IUNSCR =        1    unscreen: 0-lin 1-nonlin 2-no                           
   RPACOR =    1.800    partial core radius                                     
   POMASS =   22.990; ZVAL   =    7.000    mass and valenz                      
   RCORE  =    2.200    outmost cutoff radius                                   
   RWIGS  =    2.200; RWIGS  =    1.164    wigner-seitz radius (au A)           
   ENMAX  =  259.561; ENMIN  =  194.671 eV                                      
   ICORE  =        2    local potential                                         
   LCOR   =        T    correct aug charges                                     
   LPAW   =        T    paw PP                                                  
   EAUG   =  368.056                                                            
   DEXC   =    0.000                                                            
   RMAX   =    2.245    core radius for proj-oper                               
   RAUG   =    1.300    factor for augmentation sphere                          
   RDEP   =    2.259    radius for radial grids                                 
   RDEPT  =    1.738    core radius for aug-charge                              
                                                                                
   Atomic configuration                                                         
    5 entries                                                                   
     n  l   j            E        occ.                                          
     1  0  0.50     -1033.6933   2.0000                                         
     2  0  0.50       -56.7526   2.0000                                         
     2  1  1.50       -28.6721   6.0000                                         
     3  0  0.50        -2.7440   1.0000                                         
     3  2  1.50        -1.3606   0.0000                                         
   Description                                                                  
     l       E           TYP  RCUT    TYP  RCUT                                 
     1    -28.6720912     23  2.000                                             
     1      6.8029130     23  2.000                                             
     0     -2.7439560     23  2.200                                             
     0     34.0145650     23  2.200                                             
     2     -1.3605826     23  2.200                                             
  local pseudopotential read in
  partial core-charges read in
  partial kinetic energy density read in
  atomic valenz-charges read in
  non local Contribution for L=           1  read in
    real space projection operators read in
  non local Contribution for L=           1  read in
    real space projection operators read in
  non local Contribution for L=           0  read in
    real space projection operators read in
  non local Contribution for L=           0  read in
    real space projection operators read in
    PAW grid and wavefunctions read in
 
   number of l-projection  operators is LMAX  =           4
   number of lm-projection operators is LMMAX =           8
 
 POTCAR:    PAW_PBE Mg_pv 13Apr2007               
   VRHFIN =Mg: p6s2                                                             
   LEXCH  = PE                                                                  
   EATOM  =  1056.7344 eV,   77.6678 Ry                                         
                                                                                
   TITEL  = PAW_PBE Mg_pv 13Apr2007                                             
   LULTRA =        F    use ultrasoft PP ?                                      
   IUNSCR =        1    unscreen: 0-lin 1-nonlin 2-no                           
   RPACOR =    1.500    partial core radius                                     
   POMASS =   24.305; ZVAL   =    8.000    mass and valenz                      
   RCORE  =    2.000    outmost cutoff radius                                   
   RWIGS  =    2.000; RWIGS  =    1.058    wigner-seitz radius (au A)           
   ENMAX  =  403.929; ENMIN  =  302.947 eV                                      
   RCLOC  =    1.506    cutoff for local pot                                    
   LCOR   =        T    correct aug charges                                     
   LPAW   =        T    paw PP                                                  
   EAUG   =  758.780                                                            
   DEXC   =    0.000                                                            
   RMAX   =    2.045    core radius for proj-oper                               
   RAUG   =    1.300    factor for augmentation sphere                          
   RDEP   =    2.025    radius for radial grids                                 
   RDEPT  =    1.557    core radius for aug-charge                              
                                                                                
   Atomic configuration                                                         
    5 entries                                                                   
     n  l   j            E        occ.                                          
     1  0  0.50     -1259.6230   2.0000                                         
     2  0  0.50       -79.8442   2.0000                                         
     2  1  1.50       -46.6121   6.0000                                         
     3  0  0.50        -4.7055   2.0000                                         
     3  2  1.50        -1.3606   0.0000                                         
   Description                                                                  
     l       E           TYP  RCUT    TYP  RCUT                                 
     1    -46.6121073     23  1.600                                             
     1      2.7211652     23  1.600                                             
     0     -4.7054661     23  2.000                                             
     0     61.2262170     23  2.000                                             
     2     -1.3605826     23  2.000                                             
  local pseudopotential read in
  partial core-charges read in
  partial kinetic energy density read in
  atomic valenz-charges read in
  non local Contribution for L=           1  read in
    real space projection operators read in
  non local Contribution for L=           1  read in
    real space projection operators read in
  non local Contribution for L=           0  read in
    real space projection operators read in
  non local Contribution for L=           0  read in
    real space projection operators read in
  non local Contribution for L=           2  read in
    real space projection operators read in
    PAW grid and wavefunctions read in
 
   number of l-projection  operators is LMAX  =           5
   number of lm-projection operators is LMMAX =          13
 
 POTCAR:    PAW_PBE Mn_pv 02Aug2007               
   VRHFIN =Mn: 3p4s3d                                                           
   LEXCH  = PE                                                                  
   EATOM  =  2025.2664 eV,  148.8529 Ry                                         
                                                                                
   TITEL  = PAW_PBE Mn_pv 02Aug2007                                             
   LULTRA =        F    use ultrasoft PP ?                                      
   IUNSCR =        1    unscreen: 0-lin 1-nonlin 2-no                           
   RPACOR =    2.080    partial core radius                                     
   POMASS =   54.938; ZVAL   =   13.000    mass and valenz                      
   RCORE  =    2.300    outmost cutoff radius                                   
   RWIGS  =    2.500; RWIGS  =    1.323    wigner-seitz radius (au A)           
   ENMAX  =  269.864; ENMIN  =  202.398 eV                                      
   ICORE  =        3    local potential                                         
   LCOR   =        T    correct aug charges                                     
   LPAW   =        T    paw PP                                                  
   EAUG   =  569.085                                                            
   DEXC   =    0.000                                                            
   RMAX   =    2.343    core radius for proj-oper                               
   RAUG   =    1.300    factor for augmentation sphere                          
   RDEP   =    2.338    radius for radial grids                                 
   RDEPT  =    1.798    core radius for aug-charge                              
                                                                                
   Atomic configuration                                                         
    8 entries                                                                   
     n  l   j            E        occ.                                          
     1  0  0.50     -6424.8287   2.0000                                         
     2  0  0.50      -739.1154   2.0000                                         
     2  1  1.50      -625.3949   6.0000                                         
     3  0  0.50       -81.6100   2.0000                                         
     3  1  1.50       -50.4667   6.0000                                         
     3  2  2.50        -3.3745   6.0000                                         
     4  0  0.50        -4.1331   1.0000                                         
     4  3  2.50        -1.3606   0.0000                                         
   Description                                                                  
     l       E           TYP  RCUT    TYP  RCUT                                 
     1    -50.4666628     23  2.000                                             
     1     -1.3605826     23  2.000                                             
     2     -3.3744729     23  2.300                                             
     2     -4.7350555     23  2.300                                             
     0     -4.1331431     23  2.300                                             
     0      7.6656591     23  2.300                                             
     3      9.5240782     23  2.300                                             
  local pseudopotential read in
  partial core-charges read in
  partial kinetic energy density read in
  atomic valenz-charges read in
  non local Contribution for L=           1  read in
    real space projection operators read in
  non local Contribution for L=           1  read in
    real space projection operators read in
  non local Contribution for L=           2  read in
    real space projection operators read in
  non local Contribution for L=           2  read in
    real space projection operators read in
  non local Contribution for L=           0  read in
    real space projection operators read in
  non local Contribution for L=           0  read in
    real space projection operators read in
    PAW grid and wavefunctions read in
 
   number of l-projection  operators is LMAX  =           6
   number of lm-projection operators is LMMAX =          18
 
 POTCAR:    PAW_PBE O 08Apr2002                   
   VRHFIN =O: s2p4                                                              
   LEXCH  = PE                                                                  
   EATOM  =   432.3788 eV,   31.7789 Ry                                         
                                                                                
   TITEL  = PAW_PBE O 08Apr2002                                                 
   LULTRA =        F    use ultrasoft PP ?                                      
   IUNSCR =        1    unscreen: 0-lin 1-nonlin 2-no                           
   RPACOR =    1.200    partial core radius                                     
   POMASS =   16.000; ZVAL   =    6.000    mass and valenz                      
   RCORE  =    1.520    outmost cutoff radius                                   
   RWIGS  =    1.550; RWIGS  =    0.820    wigner-seitz radius (au A)           
   ENMAX  =  400.000; ENMIN  =  300.000 eV                                      
   ICORE  =        2    local potential                                         
   LCOR   =        T    correct aug charges                                     
   LPAW   =        T    paw PP                                                  
   EAUG   =  605.392                                                            
   DEXC   =    0.000                                                            
   RMAX   =    1.553    core radius for proj-oper                               
   RAUG   =    1.300    factor for augmentation sphere                          
   RDEP   =    1.550    radius for radial grids                                 
   RDEPT  =    1.329    core radius for aug-charge                              
                                                                                
   Atomic configuration                                                         
    4 entries                                                                   
     n  l   j            E        occ.                                          
     1  0  0.50      -514.6923   2.0000                                         
     2  0  0.50       -23.9615   2.0000                                         
     2  1  0.50        -9.0305   4.0000                                         
     3  2  1.50        -9.5241   0.0000                                         
   Description                                                                  
     l       E           TYP  RCUT    TYP  RCUT                                 
     0    -23.9615318     23  1.200                                             
     0     -9.5240782     23  1.200                                             
     1     -9.0304911     23  1.520                                             
     1      8.1634956     23  1.520                                             
     2     -9.5240782      7  1.500                                             
  local pseudopotential read in
  partial core-charges read in
  partial kinetic energy density read in
  kinetic energy density of atom read in
  atomic valenz-charges read in
  non local Contribution for L=           0  read in
    real space projection operators read in
  non local Contribution for L=           0  read in
    real space projection operators read in
  non local Contribution for L=           1  read in
    real space projection operators read in
  non local Contribution for L=           1  read in
    real space projection operators read in
    PAW grid and wavefunctions read in
 
   number of l-projection  operators is LMAX  =           4
   number of lm-projection operators is LMMAX =           8
 
 Optimization of the real space projectors (new method)

 maximal supplied QI-value         = 17.01
 optimisation between [QCUT,QGAM] = [ 10.20, 20.41] = [ 29.16,116.64] Ry 
 Optimized for a Real-space Cutoff    1.30 Angstroem

   l    n(q)    QCUT    max X(q) W(low)/X(q) W(high)/X(q)  e(spline) 
   1      7    10.205     4.940    0.23E-03    0.84E-03    0.11E-06
   1      7    10.205     6.253    0.40E-03    0.13E-02    0.18E-06
   0      8    10.205    37.438    0.23E-03    0.37E-03    0.42E-07
   0      8    10.205     9.606    0.16E-03    0.26E-03    0.31E-07
 Optimization of the real space projectors (new method)

 maximal supplied QI-value         = 18.90
 optimisation between [QCUT,QGAM] = [ 10.20, 20.41] = [ 29.16,116.64] Ry 
 Optimized for a Real-space Cutoff    1.26 Angstroem

   l    n(q)    QCUT    max X(q) W(low)/X(q) W(high)/X(q)  e(spline) 
   1      7    10.205     2.974    0.63E-04    0.14E-03    0.13E-06
   1      7    10.205     4.279    0.11E-03    0.45E-03    0.24E-06
   0      8    10.205    16.381    0.44E-03    0.15E-03    0.55E-07
   0      8    10.205     5.611    0.31E-03    0.11E-03    0.40E-07
   2      7    10.205     4.652    0.50E-03    0.47E-03    0.57E-07
 Optimization of the real space projectors (new method)

 maximal supplied QI-value         = 16.25
 optimisation between [QCUT,QGAM] = [ 10.24, 20.48] = [ 29.35,117.42] Ry 
 Optimized for a Real-space Cutoff    1.34 Angstroem

   l    n(q)    QCUT    max X(q) W(low)/X(q) W(high)/X(q)  e(spline) 
   1      8    10.239     3.658    0.23E-03    0.30E-03    0.98E-07
   1      8    10.239     5.612    0.32E-03    0.65E-03    0.21E-06
   2      7    10.239    55.373    0.42E-03    0.45E-03    0.65E-07
   2      7    10.239    50.863    0.43E-03    0.48E-03    0.67E-07
   0      8    10.239    79.536    0.11E-03    0.21E-03    0.56E-07
   0      8    10.239    38.668    0.96E-04    0.19E-03    0.52E-07
 Optimization of the real space projectors (new method)

 maximal supplied QI-value         = 24.76
 optimisation between [QCUT,QGAM] = [ 10.15, 20.30] = [ 28.85,115.39] Ry 
 Optimized for a Real-space Cutoff    1.38 Angstroem

   l    n(q)    QCUT    max X(q) W(low)/X(q) W(high)/X(q)  e(spline) 
   0      8    10.150    20.381    0.22E-03    0.32E-03    0.29E-06
   0      8    10.150    15.268    0.23E-03    0.35E-03    0.30E-06
   1      8    10.150     5.964    0.46E-03    0.53E-03    0.21E-06
   1      8    10.150     5.382    0.38E-03    0.45E-03    0.19E-06
  PAW_PBE Na_pv 19Sep2006               :
 energy of atom  1       EATOM= -766.0439
 kinetic energy error for atom=    0.0103 (will be added to EATOM!!)
  PAW_PBE Mg_pv 13Apr2007               :
 energy of atom  2       EATOM=-1056.7344
 kinetic energy error for atom=    0.0820 (will be added to EATOM!!)
  PAW_PBE Mn_pv 02Aug2007               :
 energy of atom  3       EATOM=-2025.2664
 kinetic energy error for atom=    0.0284 (will be added to EATOM!!)
  PAW_PBE O 08Apr2002                   :
 energy of atom  4       EATOM= -432.3788
 kinetic energy error for atom=    0.1156 (will be added to EATOM!!)
 
 
 POSCAR: Na Mg Mn  O                             
  positions in cartesian coordinates
  No initial velocities read in

 METAGGA = SCAN     LMAXTAU =  6    LMIXTAU =  F

 exchange correlation table for  LEXCH =        8
   RHO(1)=    0.500       N(1)  =     2000
   RHO(2)=  100.500       N(2)  =     4000

 VTST: version 3.2, (02/03/18)

 CHAIN: initializing optimizer
 
 OPT: Using VASP Dynamics algorithm
 CHAIN: Read ICHAIN            0
 
 POSCAR: Na Mg Mn  O                             
  positions in cartesian coordinates
  No initial velocities read in
 


--------------------------------------------------------------------------------------------------------


 ion  position               nearest neighbor table
   1  0.641  0.676  0.262-  88 2.30  87 2.35  74 2.37
   2  0.357  0.675  0.752-  84 2.22  83 2.28  38 2.96
   3  0.889  0.438  0.754-  68 2.22  71 2.29  60 2.30
   4  0.167  0.842  0.754-  47 2.24  70 2.36  44 2.37
   5  0.614  0.171  0.264-  51 2.28  52 2.29  62 2.37
   6  0.150  0.492  0.242-  77 2.25  55 2.31  64 2.35  37 2.73  39 2.94
   7  0.628  0.014  0.747-  81 2.36  31 2.87  29 2.93
   8  0.108  0.305  0.744-  61 2.26  57 2.28  58 2.36
   9  0.145  0.960  0.242-  67 2.07  76 2.28  41 2.38  25 2.86
  10  0.845  0.037  0.260-  62 2.17  63 2.29  53 2.35
  11  0.426  0.816  0.250-  86 2.28  51 2.38
  12  0.633  0.532  0.753-  85 2.24  82 2.26  45 2.34  33 2.86  35 2.91
  13  0.331  0.176  0.741-  45 2.29  44 2.30  47 2.32  48 2.37
  14  0.922  0.956  0.757-  72 2.21  56 2.35  59 2.38
  15  0.397  0.306  0.240-  41 2.16  50 2.20
  16  0.851  0.531  0.254-  66 2.24  75 2.32  74 2.34
  17  0.787  0.334  0.016-  43 2.00  66 2.01  71 2.06  53 2.09  60 2.14  49 2.14  33 2.81  34 2.85
                            30 2.85
  18  0.482  0.176  0.508-  44 1.95  50 2.04  45 2.07  46 2.11  51 2.17  52 2.18  32 2.78  27 2.84

  19  0.286  0.327  0.004-  48 2.03  78 2.04  55 2.07  41 2.08  83 2.11  61 2.18
  20  0.993  0.176  0.485-  63 2.01  64 2.05  58 2.07  56 2.08  57 2.13  62 2.16  32 2.85  39 2.85

  21  0.275  0.828  0.002-  67 2.00  73 2.06  77 2.06  47 2.11  42 2.13  84 2.18  34 2.80  26 2.83
                            25 2.85
  22  0.992  0.688  0.503-  69 1.93  76 2.01  68 2.04  74 2.06  75 2.16  70 2.18  27 2.78
  23  0.780  0.823  0.004-  54 1.93  85 1.99  59 2.01  65 2.04  79 2.07  72 2.19
  24  0.493  0.680  0.506-  81 1.90  82 1.95  88 2.00  86 2.06  80 2.08  87 2.09  40 2.81
  25  0.110  0.993  0.993-  54 1.85  67 1.89  47 1.97  72 1.98  61 1.98  41 2.03  21 2.85   9 2.86
                            34 2.88  30 2.94  26 2.94
  26  0.449  0.154  0.997-  49 1.86  47 1.87  41 1.90  42 1.96  48 1.97  43 2.03  21 2.83  29 2.88
                            33 2.91  25 2.94
  27  0.155  0.008  0.509-  69 1.84  58 1.89  44 1.94  76 1.94  50 1.98  63 2.04  22 2.78  32 2.83
                            18 2.84  36 2.90  40 2.95
  28  0.830  0.349  0.496-  52 1.85  46 1.87  57 1.89  75 1.93  68 2.02  62 2.03  39 2.81  35 2.85
                            31 2.91
  29  0.620  0.994  0.008-  53 1.87  79 1.93  42 1.93  59 1.95  84 1.97  49 1.97  30 2.76  26 2.88
                            38 2.91   7 2.93
  30  0.937  0.158  0.991-  59 1.84  60 1.87  53 1.94  55 1.95  54 1.96  61 1.97  29 2.76  17 2.85
                            37 2.91  25 2.94
  31  0.656  0.014  0.492-  51 1.84  46 1.88  62 1.93  88 1.93  81 1.93  56 1.97  40 2.85   7 2.87
                            36 2.90  28 2.91
  32  0.320  0.334  0.503-  58 1.87  80 1.90  50 1.93  64 1.94  45 1.94  87 1.96  18 2.78  27 2.83
                            20 2.85  39 2.90  35 2.95
  33  0.619  0.489  0.006-  85 1.89  43 1.89  65 1.91  71 1.91  48 1.93  78 1.96  17 2.81  12 2.86
                            34 2.89  26 2.91  38 2.93
  34  0.952  0.661  0.997-  73 1.85  65 1.88  66 1.91  67 1.92  72 1.94  71 1.96  21 2.80  17 2.85
                            25 2.88  37 2.89  33 2.89
  35  0.660  0.507  0.497-  74 1.84  68 1.87  82 1.90  52 1.90  87 2.00  45 2.03  28 2.85  12 2.91
                            40 2.93  32 2.95
  36  0.323  0.842  0.506-  70 1.87  76 1.88  86 1.89  81 1.92  51 1.92  44 1.95  31 2.90  27 2.90
                            39 2.94
  37  0.117  0.492  0.000-  55 1.84  66 1.87  77 1.90  73 1.93  83 1.93  60 1.97   6 2.73  34 2.89
                            38 2.89  30 2.91
  38  0.450  0.659  0.999-  84 1.91  78 1.91  85 1.91  83 1.92  77 1.94  79 2.05  37 2.89  29 2.91
                            33 2.93   2 2.96
  39  0.154  0.503  0.504-  64 1.90  57 1.91  86 1.92  75 1.94  80 1.98  70 2.04  28 2.81  20 2.85
                            32 2.90   6 2.94  36 2.94
  40  0.816  0.845  0.493-  63 1.87  56 1.88  88 1.88  82 1.97  69 1.99  74 2.02  24 2.81  31 2.85
                            35 2.93  27 2.95
  41  0.289  0.146  0.094-  26 1.90  25 2.03  19 2.08  15 2.16   9 2.38
  42  0.462  0.003  0.100-  29 1.93  26 1.96  21 2.13
  43  0.608  0.327  0.100-  33 1.89  17 2.00  26 2.03
  44  0.320  0.006  0.598-  27 1.94  18 1.95  36 1.95  13 2.30   4 2.37
  45  0.487  0.355  0.604-  32 1.94  35 2.03  18 2.07  13 2.29  12 2.34
  46  0.679  0.182  0.581-  28 1.87  31 1.88  18 2.11
  47  0.286  0.012  0.902-  26 1.87  25 1.97  21 2.11   4 2.24  13 2.32
  48  0.460  0.330  0.909-  33 1.93  26 1.97  19 2.03  13 2.37
  49  0.608  0.154  0.913-  26 1.86  29 1.97  17 2.14
  50  0.311  0.171  0.405-  32 1.93  27 1.98  18 2.04  15 2.20
  51  0.488  0.993  0.410-  31 1.84  36 1.92  18 2.17   5 2.28  11 2.38
  52  0.676  0.354  0.408-  28 1.85  35 1.90  18 2.18   5 2.29
  53  0.779  0.144  0.100-  29 1.87  30 1.94  17 2.09  10 2.35
  54  0.955  0.998  0.078-  25 1.85  23 1.93  30 1.96
  55  0.099  0.326  0.084-  37 1.84  30 1.95  19 2.07   6 2.31
  56  0.817  0.002  0.585-  40 1.88  31 1.97  20 2.08  14 2.35
  57  0.984  0.347  0.591-  28 1.89  39 1.91  20 2.13   8 2.28
  58  0.162  0.175  0.592-  32 1.87  27 1.89  20 2.07   8 2.36
  59  0.781  0.995  0.910-  30 1.84  29 1.95  23 2.01  14 2.38
  60  0.955  0.325  0.904-  30 1.87  37 1.97  17 2.14   3 2.30
  61  0.100  0.153  0.896-  30 1.97  25 1.98  19 2.18   8 2.26
  62  0.805  0.173  0.390-  31 1.93  28 2.03  20 2.16  10 2.17   5 2.37
  63  0.982  0.992  0.403-  40 1.87  20 2.01  27 2.04  10 2.29
  64  0.176  0.361  0.405-  39 1.90  32 1.94  20 2.05   6 2.35
  65  0.790  0.649  0.089-  34 1.88  33 1.91  23 2.04
  66  0.972  0.513  0.091-  37 1.87  34 1.91  17 2.01  16 2.24
  67  0.102  0.833  0.088-  25 1.89  34 1.92  21 2.00   9 2.07
  68  0.814  0.510  0.593-  35 1.87  28 2.02  22 2.04   3 2.22
  69  0.988  0.854  0.588-  27 1.84  22 1.93  40 1.99
  70  0.177  0.684  0.603-  36 1.87  39 2.04  22 2.18   4 2.36
  71  0.779  0.496  0.909-  33 1.91  34 1.96  17 2.06   3 2.29
  72  0.959  0.820  0.894-  34 1.94  25 1.98  23 2.19  14 2.21
  73  0.101  0.647  0.910-  34 1.85  37 1.93  21 2.06
  74  0.807  0.665  0.406-  35 1.84  40 2.02  22 2.06  16 2.34   1 2.37
  75  0.997  0.506  0.404-  28 1.93  39 1.94  22 2.16  16 2.32
  76  0.172  0.855  0.415-  36 1.88  27 1.94  22 2.01   9 2.28
  77  0.281  0.651  0.089-  37 1.90  38 1.94  21 2.06   6 2.25
  78  0.460  0.506  0.095-  38 1.91  33 1.96  19 2.04
  79  0.611  0.831  0.104-  29 1.93  38 2.05  23 2.07
  80  0.317  0.492  0.595-  32 1.90  39 1.98  24 2.08
  81  0.496  0.849  0.585-  24 1.90  36 1.92  31 1.93   7 2.36
  82  0.659  0.668  0.586-  35 1.90  24 1.95  40 1.97  12 2.26
  83  0.284  0.505  0.906-  38 1.92  37 1.93  19 2.11   2 2.28
  84  0.465  0.826  0.908-  38 1.91  29 1.97  21 2.18   2 2.22
  85  0.611  0.646  0.918-  33 1.89  38 1.91  23 1.99  12 2.24
  86  0.311  0.676  0.417-  36 1.89  39 1.92  24 2.06  11 2.28
  87  0.484  0.498  0.407-  32 1.96  35 2.00  24 2.09   1 2.35
  88  0.656  0.847  0.406-  40 1.88  31 1.93  24 2.00   1 2.30
 
  LATTYP: Found a hexagonal cell.
 ALAT       =    10.0190000534
 C/A-ratio  =     1.1196726572
  
  Lattice vectors:
  
 A1 = (  10.0190000534,   0.0000000000,   0.0000000000)
 A2 = (  -5.0095000267,   8.6767085668,   0.0000000000)
 A3 = (   0.0000000000,   0.0000000000,  11.2180004120)


Analysis of symmetry for initial positions (statically):
=====================================================================
 Subroutine PRICEL returns:
 Original cell was already a primitive cell.
 

 Routine SETGRP: Setting up the symmetry group for a 
 hexagonal supercell.


 Subroutine GETGRP returns: Found  1 space group operations
 (whereof  1 operations were pure point group operations)
 out of a pool of 24 trial point group operations.


The static configuration has the point symmetry C_1 .


Analysis of symmetry for dynamics (positions and initial velocities):
=====================================================================
 Subroutine PRICEL returns:
 Original cell was already a primitive cell.
 

 Routine SETGRP: Setting up the symmetry group for a 
 hexagonal supercell.


 Subroutine GETGRP returns: Found  1 space group operations
 (whereof  1 operations were pure point group operations)
 out of a pool of 24 trial point group operations.


The dynamic configuration has the point symmetry C_1 .


Analysis of structural, dynamic, and magnetic symmetry:
=====================================================================
 Subroutine PRICEL returns:
 Original cell was already a primitive cell.
 

 Routine SETGRP: Setting up the symmetry group for a 
 hexagonal supercell.


 Subroutine GETGRP returns: Found  1 space group operations
 (whereof  1 operations were pure point group operations)
 out of a pool of 24 trial point group operations.


The magnetic configuration has the point symmetry C_1 .


 Subroutine INISYM returns: Found  1 space group operations
 (whereof  1 operations are pure point group operations),
 and found     1 'primitive' translations

 
 

Automatic generation of k-mesh.
 generate k-points for:    2    2    2
Space group operators:
 irot       det(A)        alpha          n_x          n_y          n_z        tau_x        tau_y        tau_z
    1     1.000000     0.000000     1.000000     0.000000     0.000000     0.000000     0.000000     0.000000
 
 Subroutine IBZKPT returns following result:
 ===========================================
 
 Found      8 irreducible k-points:
 
 Following reciprocal coordinates:
            Coordinates               Weight
  0.000000  0.000000  0.000000      1.000000
  0.500000 -0.000000 -0.000000      1.000000
  0.000000  0.500000  0.000000      1.000000
  0.500000  0.500000 -0.000000      1.000000
  0.000000  0.000000  0.500000      1.000000
  0.500000 -0.000000  0.500000      1.000000
  0.000000  0.500000  0.500000      1.000000
  0.500000  0.500000  0.500000      1.000000
 
 Following cartesian coordinates:
            Coordinates               Weight
  0.000000  0.000000  0.000000      1.000000
  0.049905  0.028813 -0.000000      1.000000
  0.000000  0.057626  0.000000      1.000000
  0.049905  0.086438 -0.000000      1.000000
  0.000000  0.000000  0.044571      1.000000
  0.049905  0.028813  0.044571      1.000000
  0.000000  0.057626  0.044571      1.000000
  0.049905  0.086438  0.044571      1.000000
 


--------------------------------------------------------------------------------------------------------




 Dimension of arrays:
   k-points           NKPTS =      8   k-points in BZ     NKDIM =      8   number of bands    NBANDS=    448
   number of dos      NEDOS =    301   number of ions     NIONS =     88
   non local maximal  LDIM  =      6   non local SUM 2l+1 LMDIM =     18
   total plane-waves  NPLWV = 140000
   max r-space proj   IRMAX =   1632   max aug-charges    IRDMAX=   4555
   dimension x,y,z NGX =    50 NGY =   50 NGZ =   56
   dimension x,y,z NGXF=   100 NGYF=  100 NGZF=  112
   support grid    NGXF=   100 NGYF=  100 NGZF=  112
   ions per type =              16   8  16  48
   NGX,Y,Z   is equivalent  to a cutoff of   8.30,  8.30,  8.30 a.u.
   NGXF,Y,Z  is equivalent  to a cutoff of  16.59, 16.59, 16.60 a.u.

 SYSTEM =  unknown system                          
 POSCAR =  Na Mg Mn  O                             

 Startparameter for this run:
   NWRITE =      2    write-flag & timer
   PREC   = normal    normal or accurate (medium, high low for compatibility)
   ISTART =      0    job   : 0-new  1-cont  2-samecut
   ICHARG =      1    charge: 1-file 2-atom 10-const
   ISPIN  =      2    spin polarized calculation?
   LNONCOLLINEAR =      F non collinear calculations
   LSORBIT =      F    spin-orbit coupling
   INIWAV =      1    electr: 0-lowe 1-rand  2-diag
   LASPH  =      T    aspherical Exc in radial PAW
   METAGGA=      F    non-selfconsistent MetaGGA calc.

 Electronic Relaxation 1
   ENCUT  =  400.0 eV  29.40 Ry    5.42 a.u.  16.34 16.34 18.29*2*pi/ulx,y,z
   ENINI  =  400.0     initial cutoff
   ENAUG  =  758.8 eV  augmentation charge cutoff
   NELM   =    200;   NELMIN=  6; NELMDL=-12     # of ELM steps 
   EDIFF  = 0.1E-04   stopping-criterion for ELM
   LREAL  =      T    real-space projection
   NLSPLINE    = F    spline interpolate recip. space projectors
   LCOMPAT=      F    compatible to vasp.4.4
   GGA_COMPAT  = T    GGA compatible to vasp.4.4-vasp.4.6
   LMAXPAW     = -100 max onsite density
   LMAXMIX     =    4 max onsite mixed and CHGCAR
   VOSKOWN=      0    Vosko Wilk Nusair interpolation
   ROPT   =   -0.00050  -0.00050  -0.00050  -0.00050
 Ionic relaxation
   EDIFFG = 0.1E-03   stopping-criterion for IOM
   NSW    =      1    number of steps for IOM
   NBLOCK =      1;   KBLOCK =      1    inner block; outer block 
   IBRION =     -1    ionic relax: 0-MD 1-quasi-New 2-CG
   NFREE  =      0    steps in history (QN), initial steepest desc. (CG)
   ISIF   =      2    stress and relaxation
   IWAVPR =     10    prediction:  0-non 1-charg 2-wave 3-comb
   ISYM   =      2    0-nonsym 1-usesym 2-fastsym
   LCORR  =      T    Harris-Foulkes like correction to forces

   POTIM  = 0.5000    time-step for ionic-motion
   TEIN   =    0.0    initial temperature
   TEBEG  =    0.0;   TEEND  =   0.0 temperature during run
   SMASS  =  -3.00    Nose mass-parameter (am)
   estimated Nose-frequenzy (Omega)   =  0.10E-29 period in steps =****** mass=  -0.229E-26a.u.
   SCALEE = 1.0000    scale energy and forces
   NPACO  =    256;   APACO  = 16.0  distance and # of slots for P.C.
   PSTRESS=    0.0 pullay stress

  Mass of Ions in am
   POMASS =  22.99 24.30 54.94 16.00
  Ionic Valenz
   ZVAL   =   7.00  8.00 13.00  6.00
  Atomic Wigner-Seitz radii
   RWIGS  =  -1.00 -1.00 -1.00 -1.00
  virtual crystal weights 
   VCA    =   1.00  1.00  1.00  1.00
   NELECT =     672.0000    total number of electrons
   NUPDOWN=      48.0000    fix difference up-down

 DOS related values:
   EMIN   =  10.00;   EMAX   =-10.00  energy-range for DOS
   EFERMI =   0.00
   ISMEAR =     0;   SIGMA  =   0.05  broadening in eV -4-tet -1-fermi 0-gaus

 Electronic relaxation 2 (details)
   IALGO  =     48    algorithm
   LDIAG  =      T    sub-space diagonalisation (order eigenvalues)
   LSUBROT=      F    optimize rotation matrix (better conditioning)
   TURBO    =      0    0=normal 1=particle mesh
   IRESTART =      0    0=no restart 2=restart with 2 vectors
   NREBOOT  =      0    no. of reboots
   NMIN     =      0    reboot dimension
   EREF     =   0.00    reference energy to select bands
   IMIX   =      4    mixing-type and parameters
     AMIX     =   0.40;   BMIX     =  1.00
     AMIX_MAG =   1.60;   BMIX_MAG =  1.00
     AMIN     =   0.10
     WC   =   100.;   INIMIX=   1;  MIXPRE=   1;  MAXMIX= -45

 Intra band minimization:
   WEIMIN = 0.0000     energy-eigenvalue tresh-hold
   EBREAK =  0.56E-08  absolut break condition
   DEPER  =   0.30     relativ break condition  

   TIME   =   0.40     timestep for ELM

  volume/ion in A,a.u.               =      11.08        74.78
  Fermi-wavevector in a.u.,A,eV,Ry     =   1.445993  2.732531 28.448379  2.090897
  Thomas-Fermi vector in A             =   2.564112
 
 Write flags
   LWAVE        =      F    write WAVECAR
   LDOWNSAMPLE  =      F    k-point downsampling of WAVECAR
   LCHARG       =      F    write CHGCAR
   LVTOT        =      F    write LOCPOT, total local potential
   LVHAR        =      F    write LOCPOT, Hartree potential only
   LELF         =      F    write electronic localiz. function (ELF)
   LORBIT       =     11    0 simple, 1 ext, 2 COOP (PROOUT), +10 PAW based schemes


 Dipole corrections
   LMONO  =      F    monopole corrections only (constant potential shift)
   LDIPOL =      F    correct potential (dipole corrections)
   IDIPOL =      0    1-x, 2-y, 3-z, 4-all directions 
   EPSILON=  1.0000000 bulk dielectric constant

 Exchange correlation treatment:
   GGA     =    --    GGA type
   LEXCH   =     8    internal setting for exchange type
   VOSKOWN=      0    Vosko Wilk Nusair interpolation
   LHFCALC =     F    Hartree Fock is set to
   LHFONE  =     F    Hartree Fock one center treatment
   AEXX    =    0.0000 exact exchange contribution

 Linear response parameters
   LEPSILON=     F    determine dielectric tensor
   LRPA    =     F    only Hartree local field effects (RPA)
   LNABLA  =     F    use nabla operator in PAW spheres
   LVEL    =     F    velocity operator in full k-point grid
   LINTERFAST=   F  fast interpolation
   KINTER  =     0    interpolate to denser k-point grid
   CSHIFT  =0.1000    complex shift for real part using Kramers Kronig
   OMEGAMAX=  -1.0    maximum frequency
   DEG_THRESHOLD= 0.2000000E-02 threshold for treating states as degnerate
   RTIME   =   -0.100 relaxation time in fs
  (WPLASMAI=    0.000 imaginary part of plasma frequency in eV, 0.658/RTIME)
   DFIELD  = 0.0000000 0.0000000 0.0000000 field for delta impulse in time
 
 Orbital magnetization related:
   ORBITALMAG=     F  switch on orbital magnetization
   LCHIMAG   =     F  perturbation theory with respect to B field
   DQ        =  0.001000  dq finite difference perturbation B field
   LLRAUG    =     F  two centre corrections for induced B field



--------------------------------------------------------------------------------------------------------


 Static calculation
 charge density and potential will be updated during run
 spin polarized calculation
 RMM-DIIS sequential band-by-band
 perform sub-space diagonalisation
    before iterative eigenvector-optimisation
 modified Broyden-mixing scheme, WC =      100.0
 initial mixing is a Kerker type mixing with AMIX =  0.4000 and BMIX =      1.0000
 Hartree-type preconditioning will be used
 using additional bands          112
 real space projection scheme for non local part
 use partial core corrections
 calculate Harris-corrections to forces 
   (improved forces if not selfconsistent)
 use gradient corrections 
 use of overlap-Matrix (Vanderbilt PP)
 Gauss-broadening in eV      SIGMA  =   0.05


--------------------------------------------------------------------------------------------------------


  energy-cutoff  :      400.00
  volume of cell :      975.20
      direct lattice vectors                 reciprocal lattice vectors
    10.019000053  0.000000000  0.000000000     0.099810360  0.057625538 -0.000000000
    -5.009500027  8.676708567  0.000000000     0.000000000  0.115251076  0.000000000
     0.000000000  0.000000000 11.218000412     0.000000000  0.000000000  0.089142446

  length of vectors
    10.019000053 10.019000053 11.218000412     0.115251076  0.115251076  0.089142446


 
 k-points in units of 2pi/SCALE and weight: read from INCAR                         
   0.00000000  0.00000000  0.00000000       0.125
   0.04990518  0.02881277 -0.00000000       0.125
   0.00000000  0.05762554  0.00000000       0.125
   0.04990518  0.08643831 -0.00000000       0.125
   0.00000000  0.00000000  0.04457122       0.125
   0.04990518  0.02881277  0.04457122       0.125
   0.00000000  0.05762554  0.04457122       0.125
   0.04990518  0.08643831  0.04457122       0.125
 
 k-points in reciprocal lattice and weights: read from INCAR                         
   0.00000000  0.00000000  0.00000000       0.125
   0.50000000 -0.00000000 -0.00000000       0.125
   0.00000000  0.50000000  0.00000000       0.125
   0.50000000  0.50000000 -0.00000000       0.125
   0.00000000  0.00000000  0.50000000       0.125
   0.50000000 -0.00000000  0.50000000       0.125
   0.00000000  0.50000000  0.50000000       0.125
   0.50000000  0.50000000  0.50000000       0.125
 
 position of ions in fractional coordinates (direct lattice) 
   0.64070305  0.67630780  0.26175164
   0.35686844  0.67475092  0.75162504
   0.88907413  0.43761525  0.75426811
   0.16670247  0.84229405  0.75431179
   0.61384423  0.17053504  0.26353895
   0.14971296  0.49222780  0.24175521
   0.62830313  0.01404713  0.74686929
   0.10823414  0.30461880  0.74412549
   0.14452693  0.95983138  0.24249509
   0.84529322  0.03702820  0.26024157
   0.42554602  0.81551563  0.24986717
   0.63338779  0.53203157  0.75320821
   0.33149628  0.17561860  0.74139951
   0.92195850  0.95604393  0.75702618
   0.39686362  0.30631332  0.23956052
   0.85097491  0.53083493  0.25385184
   0.78692865  0.33374752  0.01600285
   0.48193052  0.17628344  0.50781064
   0.28585151  0.32689815  0.00437686
   0.99281158  0.17559423  0.48524869
   0.27450879  0.82828298  0.00178965
   0.99182367  0.68772161  0.50311551
   0.78010109  0.82332027  0.00448074
   0.49285510  0.67973356  0.50565696
   0.11018278  0.99267020  0.99309463
   0.44860441  0.15376338  0.99722958
   0.15510354  0.00838454  0.50890799
   0.83021157  0.34890304  0.49556425
   0.61994306  0.99394142  0.00773033
   0.93736168  0.15808299  0.99131749
   0.65587468  0.01352598  0.49224994
   0.32006416  0.33425348  0.50301745
   0.61882570  0.48926733  0.00593848
   0.95208664  0.66075977  0.99669334
   0.66000117  0.50736636  0.49669636
   0.32263069  0.84182152  0.50621499
   0.11684346  0.49246324  0.00004289
   0.45023525  0.65871983  0.99900172
   0.15393378  0.50287963  0.50377071
   0.81583525  0.84493330  0.49289622
   0.28927923  0.14644147  0.09398199
   0.46208252  0.00251419  0.10028971
   0.60825451  0.32739834  0.10004635
   0.31983754  0.00589526  0.59774200
   0.48707048  0.35536863  0.60400604
   0.67875767  0.18200680  0.58143071
   0.28642838  0.01199441  0.90160453
   0.46027067  0.33006525  0.90938667
   0.60786565  0.15353748  0.91284539
   0.31147162  0.17140716  0.40518540
   0.48773379  0.99288572  0.40979852
   0.67638640  0.35415618  0.40835263
   0.77946019  0.14397280  0.09988233
   0.95453674  0.99780690  0.07842128
   0.09944309  0.32622624  0.08370984
   0.81664176  0.00164365  0.58522016
   0.98422568  0.34715583  0.59114724
   0.16156303  0.17546861  0.59157067
   0.78114829  0.99498448  0.91016221
   0.95488148  0.32497807  0.90386875
   0.09971958  0.15256822  0.89569439
   0.80452445  0.17311518  0.38997770
   0.98183302  0.99232560  0.40331341
   0.17578022  0.36089952  0.40523800
   0.79048604  0.64895691  0.08940096
   0.97154305  0.51297332  0.09148244
   0.10219185  0.83285960  0.08773819
   0.81413875  0.51001021  0.59260561
   0.98805283  0.85362438  0.58787215
   0.17675355  0.68432055  0.60253430
   0.77868029  0.49644632  0.90871810
   0.95882111  0.81970830  0.89421462
   0.10117970  0.64745173  0.90951147
   0.80736545  0.66478780  0.40559902
   0.99726002  0.50610205  0.40369851
   0.17213652  0.85493479  0.41460330
   0.28092204  0.65062460  0.08937333
   0.45963916  0.50631296  0.09499197
   0.61072341  0.83067328  0.10446960
   0.31700202  0.49167146  0.59471027
   0.49603217  0.84911115  0.58538507
   0.65946863  0.66846316  0.58575947
   0.28429806  0.50502330  0.90581205
   0.46459748  0.82614276  0.90823673
   0.61108018  0.64614479  0.91757886
   0.31088130  0.67591990  0.41708146
   0.48365094  0.49846667  0.40702976
   0.65642186  0.84741005  0.40566499
 
 position of ions in cartesian coordinates  (Angst):
   3.03123997  5.86812570  2.93633000
   0.19530016  5.85461713  8.43173000
   6.71540011  3.79706000  8.46138000
  -2.54928000  7.30834000  8.46187000
   5.29581005  1.47968287  2.95638000
  -0.96584100  4.27091713  2.71201000
   6.22459995  0.12188287  8.37838000
  -0.44159003  2.64308857  8.34760000
  -3.36026000  8.32817713  2.72031000
   8.28350011  0.32128287  2.91939000
   0.17822003  7.07599143  2.80301000
   3.68070016  4.61628287  8.44949000
   2.44149987  1.52379143  8.31702000
   4.44780019  8.29531457  8.49232000
   2.44170003  2.65779143  2.68739000
   5.86670011  4.60590000  2.84771000
   6.21233000  2.89583000  0.17952000
   3.94537000  1.52956000  5.69662000
   1.22635000  2.83640000  0.04909959
   9.06734000  1.52358000  5.44352000
  -1.39898000  7.18677000  0.02007630
   6.49194000  5.96716000  5.64395000
   3.69141000  7.14371000  0.05026490
   1.53279000  5.89785000  5.67246000
  -3.86886005  8.61311000 11.14053601
   3.72429000  1.33416000 11.18692181
   1.51198000  0.07275020  5.70893000
   6.57006000  3.02733000  5.55924000
   1.23206000  8.62414000  0.08671880
   8.59951000  1.37164000 11.12060000
   6.50345000  0.11736100  5.52206000
   1.53228000  2.90022000  5.64285000
   3.74903000  4.24523000  0.06661790
   6.22888000  5.73322000 11.18090631
   4.07090000  4.40227000  5.57194000
  -0.98466800  7.30424000  5.67872000
  -1.29634000  4.27296000  0.00048109
   1.21105000  5.71552000 11.20680171
  -0.97691300  4.36334000  5.65130000
   3.94116000  7.33124000  5.52931000
   2.16469000  1.27063000  1.05429000
   4.61701000  0.02181490  1.12505000
   4.45400000  2.84074000  1.12232000
   3.17492003  0.05115143  6.70547000
   3.09974000  3.08343000  6.77574000
   5.88871000  1.57922000  6.52249000
   2.80964000  0.10407200 10.11420000
   2.95799000  2.86388000 10.20150000
   5.32106000  1.33220000 10.24030000
   2.26197000  1.48725000  4.54537000
  -0.08725620  8.61498000  4.59712000
   5.00257000  3.07291000  4.58090000
   7.08818000  1.24921000  1.12048000
   4.56498997  8.65767967  0.87973000
  -0.63791005  2.83057000  0.93905700
   8.17370003  0.01426143  6.56500000
   8.12188000  3.01217000  6.63149000
   0.73969000  1.52249000  6.63624000
   2.84194997  8.63319037 10.21020000
   7.93898000  2.81974000 10.13960000
   0.23479995  1.32379000 10.04790000
   7.19331000  1.50207000  4.37477000
   4.86593000  8.61012000  4.52437000
  -0.04678410  3.13142000  4.54596000
   4.66893000  5.63081000  1.00290000
   7.16415000  4.45092000  1.02625000
  -3.14835005  7.22648000  0.98424700
   5.60196000  4.42521000  6.64785000
   5.62307000  7.40665000  6.59475000
  -1.65721000  5.93765000  6.75923000
   5.31465000  4.30752000 10.19400000
   5.50010000  7.11237000 10.03130000
  -2.22969005  5.61775000 10.20290000
   4.75874000  5.76817000  4.55001000
   7.45623000  4.39130000  4.52869000
  -2.55816000  7.41802000  4.65102000
  -0.44474600  5.64528000  1.00259000
   2.06875000  4.39313000  1.06562000
   1.95758000  7.20751000  1.17194000
   0.71301500  4.26609000  6.67146000
   0.71612400  7.36749000  6.56685000
   3.25855000  5.80006000  6.57105000
   0.31846800  4.38194000 10.16140000
   0.51624000  7.16820000 10.18860000
   2.88555000  5.60641000 10.29340000
  -0.27130100  5.86476000  4.67882000
   2.34863000  4.32505000  4.56606000
   2.33159000  7.35273000  4.55075000
 


--------------------------------------------------------------------------------------------------------


 k-point  1 :   0.0000 0.0000 0.0000  plane waves:   17725
 k-point  2 :   0.5000-0.0000-0.0000  plane waves:   17736
 k-point  3 :   0.0000 0.5000 0.0000  plane waves:   17736
 k-point  4 :   0.5000 0.5000-0.0000  plane waves:   17736
 k-point  5 :   0.0000 0.0000 0.5000  plane waves:   17676
 k-point  6 :   0.5000-0.0000 0.5000  plane waves:   17700
 k-point  7 :   0.0000 0.5000 0.5000  plane waves:   17700
 k-point  8 :   0.5000 0.5000 0.5000  plane waves:   17700

 maximum and minimum number of plane-waves per node :     17736    17676

 maximum number of plane-waves:     17736
 maximum index in each direction: 
   IXMAX=   16   IYMAX=   16   IZMAX=   18
   IXMIN=  -16   IYMIN=  -16   IZMIN=  -18


 serial   3D FFT for wavefunctions
 parallel 3D FFT for charge:
    minimum data exchange during FFTs selected (reduces bandwidth)


 total amount of memory used by VASP MPI-rank0    88181. kBytes
=======================================================================

   base      :      30000. kBytes
   nonlr-proj:      13672. kBytes
   fftplans  :        992. kBytes
   grid      :      21513. kBytes
   one-center:       2737. kBytes
   wavefun   :      19267. kBytes
 
     INWAV:  cpu time    0.0000: real time    0.0002
 Broyden mixing: mesh for mixing (old mesh)
   NGX = 33   NGY = 33   NGZ = 37
  (NGX  =100   NGY  =100   NGZ  =112)
  gives a total of  40293 points

 initial charge density was supplied:
 charge density of overlapping atoms calculated
 number of electron     672.0000000 magnetization      48.0000000
 keeping initial charge density in first step


--------------------------------------------------------------------------------------------------------


 Maximum index for non-local projection operator         1552
 Maximum index for augmentation-charges          231 (set IRDMAX)


--------------------------------------------------------------------------------------------------------


 First call to EWALD:  gamma=   0.179
 Maximum number of real-space cells 3x 3x 2
 Maximum number of reciprocal cells 3x 3x 3

    FEWALD:  cpu time    0.0024: real time    0.0030


--------------------------------------- Iteration      1(   1)  ---------------------------------------


    POTLOK:  cpu time    0.2026: real time    0.2049
    SETDIJ:  cpu time    3.0840: real time    3.0870
    EDDIAG:  cpu time    3.7396: real time    3.7501
  RMM-DIIS:  cpu time    6.6216: real time    6.6398
    ORTHCH:  cpu time    1.1413: real time    1.1448
       DOS:  cpu time    0.0025: real time    0.0026
    --------------------------------------------
      LOOP:  cpu time   14.7915: real time   14.8292

 eigenvalue-minimisations  :  7168
 total energy-change (2. order) : 0.1873017E+04  (-0.3594547E+05)
 number of electron     672.0000000 magnetization      48.0000000
 augmentation part      672.0000000 magnetization      48.0000000

 Free energy of the ion-electron system (eV)
  ---------------------------------------------------
  alpha Z        PSCENC =      2652.81237852
  Ewald energy   TEWEN  =    -41831.79037995
  -Hartree energ DENC   =    -25780.27998426
  -exchange      EXHF   =         0.00000000
  -V(xc)+E(xc)   XCENC  =      3606.10624350
  PAW double counting   =     55594.23204139   -59034.67079123
  entropy T*S    EENTRO =        -0.04872082
  eigenvalues    EBANDS =     -7195.54168693
  atomic energy  EATOM  =     73862.19814772
  Solvation  Ediel_sol  =         0.00000000
  ---------------------------------------------------
  free energy    TOTEN  =      1873.01724793 eV

  energy without entropy =     1873.06596875  energy(sigma->0) =     1873.04160834


--------------------------------------------------------------------------------------------------------




--------------------------------------- Iteration      1(   2)  ---------------------------------------


    EDDIAG:  cpu time    3.6799: real time    3.6904
  RMM-DIIS:  cpu time    6.6219: real time    6.6508
    ORTHCH:  cpu time    1.1460: real time    1.1496
       DOS:  cpu time    0.0014: real time    0.0014
    --------------------------------------------
      LOOP:  cpu time   11.4492: real time   11.4922

 eigenvalue-minimisations  :  7168
 total energy-change (2. order) :-0.2722733E+04  (-0.8697886E+04)
 number of electron     672.0000000 magnetization      48.0000000
 augmentation part      672.0000000 magnetization      48.0000000

 Free energy of the ion-electron system (eV)
  ---------------------------------------------------
  alpha Z        PSCENC =      2652.81237852
  Ewald energy   TEWEN  =    -41831.79037995
  -Hartree energ DENC   =    -25780.27998426
  -exchange      EXHF   =         0.00000000
  -V(xc)+E(xc)   XCENC  =      3606.10624350
  PAW double counting   =     55594.23204139   -59034.67079123
  entropy T*S    EENTRO =        -0.05551797
  eigenvalues    EBANDS =     -9918.26770178
  atomic energy  EATOM  =     73862.19814772
  Solvation  Ediel_sol  =         0.00000000
  ---------------------------------------------------
  free energy    TOTEN  =      -849.71556408 eV

  energy without entropy =     -849.66004610  energy(sigma->0) =     -849.68780509


--------------------------------------------------------------------------------------------------------




--------------------------------------- Iteration      1(   3)  ---------------------------------------


    EDDIAG:  cpu time    3.7135: real time    3.7247
  RMM-DIIS:  cpu time    6.6157: real time    6.6320
    ORTHCH:  cpu time    1.1536: real time    1.1591
       DOS:  cpu time    0.0014: real time    0.0014
    --------------------------------------------
      LOOP:  cpu time   11.4843: real time   11.5172

 eigenvalue-minimisations  :  7168
 total energy-change (2. order) : 0.3142234E+03  (-0.1564993E+04)
 number of electron     672.0000000 magnetization      48.0000000
 augmentation part      672.0000000 magnetization      48.0000000

 Free energy of the ion-electron system (eV)
  ---------------------------------------------------
  alpha Z        PSCENC =      2652.81237852
  Ewald energy   TEWEN  =    -41831.79037995
  -Hartree energ DENC   =    -25780.27998426
  -exchange      EXHF   =         0.00000000
  -V(xc)+E(xc)   XCENC  =      3606.10624350
  PAW double counting   =     55594.23204139   -59034.67079123
  entropy T*S    EENTRO =        -0.04167698
  eigenvalues    EBANDS =     -9604.05814265
  atomic energy  EATOM  =     73862.19814772
  Solvation  Ediel_sol  =         0.00000000
  ---------------------------------------------------
  free energy    TOTEN  =      -535.49216396 eV

  energy without entropy =     -535.45048697  energy(sigma->0) =     -535.47132546


--------------------------------------------------------------------------------------------------------




--------------------------------------- Iteration      1(   4)  ---------------------------------------


    EDDIAG:  cpu time    3.7122: real time    3.7212
  RMM-DIIS:  cpu time    6.6188: real time    6.6351
    ORTHCH:  cpu time    1.1474: real time    1.1510
       DOS:  cpu time    0.0012: real time    0.0012
    --------------------------------------------
      LOOP:  cpu time   11.4797: real time   11.5084

 eigenvalue-minimisations  :  7168
 total energy-change (2. order) :-0.5229167E+03  (-0.5059213E+03)
 number of electron     672.0000000 magnetization      48.0000000
 augmentation part      672.0000000 magnetization      48.0000000

 Free energy of the ion-electron system (eV)
  ---------------------------------------------------
  alpha Z        PSCENC =      2652.81237852
  Ewald energy   TEWEN  =    -41831.79037995
  -Hartree energ DENC   =    -25780.27998426
  -exchange      EXHF   =         0.00000000
  -V(xc)+E(xc)   XCENC  =      3606.10624350
  PAW double counting   =     55594.23204139   -59034.67079123
  entropy T*S    EENTRO =        -0.00335899
  eigenvalues    EBANDS =    -10127.01315102
  atomic energy  EATOM  =     73862.19814772
  Solvation  Ediel_sol  =         0.00000000
  ---------------------------------------------------
  free energy    TOTEN  =     -1058.40885433 eV

  energy without entropy =    -1058.40549534  energy(sigma->0) =    -1058.40717484


--------------------------------------------------------------------------------------------------------




--------------------------------------- Iteration      1(   5)  ---------------------------------------


    EDDIAG:  cpu time    3.7070: real time    3.7404
  RMM-DIIS:  cpu time    6.6544: real time    6.6710
    ORTHCH:  cpu time    1.1416: real time    1.1453
       DOS:  cpu time    0.0012: real time    0.0012
    --------------------------------------------
      LOOP:  cpu time   11.5042: real time   11.5580

 eigenvalue-minimisations  :  7168
 total energy-change (2. order) :-0.1473432E+03  (-0.2117913E+03)
 number of electron     672.0000000 magnetization      48.0000000
 augmentation part      672.0000000 magnetization      48.0000000

 Free energy of the ion-electron system (eV)
  ---------------------------------------------------
  alpha Z        PSCENC =      2652.81237852
  Ewald energy   TEWEN  =    -41831.79037995
  -Hartree energ DENC   =    -25780.27998426
  -exchange      EXHF   =         0.00000000
  -V(xc)+E(xc)   XCENC  =      3606.10624350
  PAW double counting   =     55594.23204139   -59034.67079123
  entropy T*S    EENTRO =        -0.00000000
  eigenvalues    EBANDS =    -10274.35975002
  atomic energy  EATOM  =     73862.19814772
  Solvation  Ediel_sol  =         0.00000000
  ---------------------------------------------------
  free energy    TOTEN  =     -1205.75209434 eV

  energy without entropy =    -1205.75209434  energy(sigma->0) =    -1205.75209434


--------------------------------------------------------------------------------------------------------




--------------------------------------- Iteration      1(   6)  ---------------------------------------


    EDDIAG:  cpu time    3.7675: real time    3.7759
  RMM-DIIS:  cpu time    6.6710: real time    6.6968
    ORTHCH:  cpu time    1.1665: real time    1.1708
       DOS:  cpu time    0.0012: real time    0.0012
    --------------------------------------------
      LOOP:  cpu time   11.6063: real time   11.6447

 eigenvalue-minimisations  :  7168
 total energy-change (2. order) :-0.2156263E+02  (-0.1147881E+03)
 number of electron     672.0000000 magnetization      48.0000000
 augmentation part      672.0000000 magnetization      48.0000000

 Free energy of the ion-electron system (eV)
  ---------------------------------------------------
  alpha Z        PSCENC =      2652.81237852
  Ewald energy   TEWEN  =    -41831.79037995
  -Hartree energ DENC   =    -25780.27998426
  -exchange      EXHF   =         0.00000000
  -V(xc)+E(xc)   XCENC  =      3606.10624350
  PAW double counting   =     55594.23204139   -59034.67079123
  entropy T*S    EENTRO =        -0.00000000
  eigenvalues    EBANDS =    -10295.92238077
  atomic energy  EATOM  =     73862.19814772
  Solvation  Ediel_sol  =         0.00000000
  ---------------------------------------------------
  free energy    TOTEN  =     -1227.31472509 eV

  energy without entropy =    -1227.31472509  energy(sigma->0) =    -1227.31472509


--------------------------------------------------------------------------------------------------------




--------------------------------------- Iteration      1(   7)  ---------------------------------------


    EDDIAG:  cpu time    3.7369: real time    3.7477
  RMM-DIIS:  cpu time    6.5945: real time    6.6318
    ORTHCH:  cpu time    1.1758: real time    1.1794
       DOS:  cpu time    0.0010: real time    0.0010
    --------------------------------------------
      LOOP:  cpu time   11.5081: real time   11.5600

 eigenvalue-minimisations  :  7168
 total energy-change (2. order) :-0.6601552E+01  (-0.7559440E+02)
 number of electron     672.0000000 magnetization      48.0000000
 augmentation part      672.0000000 magnetization      48.0000000

 Free energy of the ion-electron system (eV)
  ---------------------------------------------------
  alpha Z        PSCENC =      2652.81237852
  Ewald energy   TEWEN  =    -41831.79037995
  -Hartree energ DENC   =    -25780.27998426
  -exchange      EXHF   =         0.00000000
  -V(xc)+E(xc)   XCENC  =      3606.10624350
  PAW double counting   =     55594.23204139   -59034.67079123
  entropy T*S    EENTRO =        -0.00000000
  eigenvalues    EBANDS =    -10302.52393277
  atomic energy  EATOM  =     73862.19814772
  Solvation  Ediel_sol  =         0.00000000
  ---------------------------------------------------
  free energy    TOTEN  =     -1233.91627709 eV

  energy without entropy =    -1233.91627709  energy(sigma->0) =    -1233.91627709


--------------------------------------------------------------------------------------------------------




--------------------------------------- Iteration      1(   8)  ---------------------------------------


    EDDIAG:  cpu time    3.7283: real time    3.7389
  RMM-DIIS:  cpu time    6.6199: real time    6.6355
    ORTHCH:  cpu time    1.2114: real time    1.2151
       DOS:  cpu time    0.0011: real time    0.0011
    --------------------------------------------
      LOOP:  cpu time   11.5608: real time   11.5906

 eigenvalue-minimisations  :  7168
 total energy-change (2. order) : 0.4682912E+01  (-0.5217624E+02)
 number of electron     672.0000000 magnetization      48.0000000
 augmentation part      672.0000000 magnetization      48.0000000

 Free energy of the ion-electron system (eV)
  ---------------------------------------------------
  alpha Z        PSCENC =      2652.81237852
  Ewald energy   TEWEN  =    -41831.79037995
  -Hartree energ DENC   =    -25780.27998426
  -exchange      EXHF   =         0.00000000
  -V(xc)+E(xc)   XCENC  =      3606.10624350
  PAW double counting   =     55594.23204139   -59034.67079123
  entropy T*S    EENTRO =        -0.00000000
  eigenvalues    EBANDS =    -10297.84102102
  atomic energy  EATOM  =     73862.19814772
  Solvation  Ediel_sol  =         0.00000000
  ---------------------------------------------------
  free energy    TOTEN  =     -1229.23336534 eV

  energy without entropy =    -1229.23336534  energy(sigma->0) =    -1229.23336534


--------------------------------------------------------------------------------------------------------




--------------------------------------- Iteration      1(   9)  ---------------------------------------


    EDDIAG:  cpu time    3.7168: real time    3.7279
  RMM-DIIS:  cpu time   13.8354: real time   13.9030
    ORTHCH:  cpu time    1.1581: real time    1.1618
       DOS:  cpu time    0.0011: real time    0.0011
    --------------------------------------------
      LOOP:  cpu time   18.7114: real time   18.7938

 eigenvalue-minimisations  : 20235
 total energy-change (2. order) : 0.1782989E+02  (-0.2330712E+02)
 number of electron     672.0000000 magnetization      48.0000000
 augmentation part      672.0000000 magnetization      48.0000000

 Free energy of the ion-electron system (eV)
  ---------------------------------------------------
  alpha Z        PSCENC =      2652.81237852
  Ewald energy   TEWEN  =    -41831.79037995
  -Hartree energ DENC   =    -25780.27998426
  -exchange      EXHF   =         0.00000000
  -V(xc)+E(xc)   XCENC  =      3606.10624350
  PAW double counting   =     55594.23204139   -59034.67079123
  entropy T*S    EENTRO =        -0.00000000
  eigenvalues    EBANDS =    -10280.01113203
  atomic energy  EATOM  =     73862.19814772
  Solvation  Ediel_sol  =         0.00000000
  ---------------------------------------------------
  free energy    TOTEN  =     -1211.40347635 eV

  energy without entropy =    -1211.40347635  energy(sigma->0) =    -1211.40347635


--------------------------------------------------------------------------------------------------------




--------------------------------------- Iteration      1(  10)  ---------------------------------------


    EDDIAG:  cpu time    3.7115: real time    3.7222
  RMM-DIIS:  cpu time   15.5457: real time   15.5806
    ORTHCH:  cpu time    1.1541: real time    1.1580
       DOS:  cpu time    0.0011: real time    0.0011
    --------------------------------------------
      LOOP:  cpu time   20.4124: real time   20.4620

 eigenvalue-minimisations  : 20219
 total energy-change (2. order) :-0.3050354E+01  (-0.1026551E+01)
 number of electron     672.0000000 magnetization      48.0000000
 augmentation part      672.0000000 magnetization      48.0000000

 Free energy of the ion-electron system (eV)
  ---------------------------------------------------
  alpha Z        PSCENC =      2652.81237852
  Ewald energy   TEWEN  =    -41831.79037995
  -Hartree energ DENC   =    -25780.27998426
  -exchange      EXHF   =         0.00000000
  -V(xc)+E(xc)   XCENC  =      3606.10624350
  PAW double counting   =     55594.23204139   -59034.67079123
  entropy T*S    EENTRO =        -0.00000045
  eigenvalues    EBANDS =    -10283.06148577
  atomic energy  EATOM  =     73862.19814772
  Solvation  Ediel_sol  =         0.00000000
  ---------------------------------------------------
  free energy    TOTEN  =     -1214.45383054 eV

  energy without entropy =    -1214.45383009  energy(sigma->0) =    -1214.45383032


--------------------------------------------------------------------------------------------------------




--------------------------------------- Iteration      1(  11)  ---------------------------------------


    EDDIAG:  cpu time    3.7307: real time    3.7417
  RMM-DIIS:  cpu time   15.2406: real time   15.3066
    ORTHCH:  cpu time    1.1769: real time    1.1807
       DOS:  cpu time    0.0011: real time    0.0011
    --------------------------------------------
      LOOP:  cpu time   20.1493: real time   20.2300

 eigenvalue-minimisations  : 21741
 total energy-change (2. order) : 0.1026829E+00  (-0.9740452E-01)
 number of electron     672.0000000 magnetization      48.0000000
 augmentation part      672.0000000 magnetization      48.0000000

 Free energy of the ion-electron system (eV)
  ---------------------------------------------------
  alpha Z        PSCENC =      2652.81237852
  Ewald energy   TEWEN  =    -41831.79037995
  -Hartree energ DENC   =    -25780.27998426
  -exchange      EXHF   =         0.00000000
  -V(xc)+E(xc)   XCENC  =      3606.10624350
  PAW double counting   =     55594.23204139   -59034.67079123
  entropy T*S    EENTRO =        -0.00000035
  eigenvalues    EBANDS =    -10282.95880299
  atomic energy  EATOM  =     73862.19814772
  Solvation  Ediel_sol  =         0.00000000
  ---------------------------------------------------
  free energy    TOTEN  =     -1214.35114766 eV

  energy without entropy =    -1214.35114731  energy(sigma->0) =    -1214.35114748


--------------------------------------------------------------------------------------------------------




--------------------------------------- Iteration      1(  12)  ---------------------------------------


    EDDIAG:  cpu time    3.7265: real time    3.7365
  RMM-DIIS:  cpu time   15.9206: real time   15.9963
    ORTHCH:  cpu time    1.1518: real time    1.1554
       DOS:  cpu time    0.0013: real time    0.0013
    CHARGE:  cpu time    1.3454: real time    1.3496
    MIXING:  cpu time    0.0013: real time    0.0015
    --------------------------------------------
      LOOP:  cpu time   22.1468: real time   22.2406

 eigenvalue-minimisations  : 22812
 total energy-change (2. order) : 0.7163567E-02  (-0.6738790E-02)
 number of electron     671.9999853 magnetization      48.0000007
 augmentation part      239.0845038 magnetization      29.0381008

 Broyden mixing:
  rms(total) = 0.12571E+02    rms(broyden)= 0.12561E+02
  rms(prec ) = 0.14422E+02
  weight for this iteration     100.00

 Free energy of the ion-electron system (eV)
  ---------------------------------------------------
  alpha Z        PSCENC =      2652.81237852
  Ewald energy   TEWEN  =    -41831.79037995
  -Hartree energ DENC   =    -25780.27998426
  -exchange      EXHF   =         0.00000000
  -V(xc)+E(xc)   XCENC  =      3606.10624350
  PAW double counting   =     55594.23204139   -59034.67079123
  entropy T*S    EENTRO =        -0.00000032
  eigenvalues    EBANDS =    -10282.95163945
  atomic energy  EATOM  =     73862.19814772
  Solvation  Ediel_sol  =         0.00000000
  ---------------------------------------------------
  free energy    TOTEN  =     -1214.34398409 eV

  energy without entropy =    -1214.34398377  energy(sigma->0) =    -1214.34398393


--------------------------------------------------------------------------------------------------------




--------------------------------------- Iteration      1(  13)  ---------------------------------------


    POTLOK:  cpu time    0.1956: real time    0.1967
    SETDIJ:  cpu time    3.2707: real time    3.2735
    EDDIAG:  cpu time    3.8116: real time    3.8212
  RMM-DIIS:  cpu time   12.9884: real time   13.0178
    ORTHCH:  cpu time    1.1599: real time    1.1635
       DOS:  cpu time    0.0017: real time    0.0017
    CHARGE:  cpu time    1.3419: real time    1.3453
    MIXING:  cpu time    0.0007: real time    0.0008
    --------------------------------------------
      LOOP:  cpu time   22.7704: real time   22.8206

 eigenvalue-minimisations  : 17314
 total energy-change (2. order) : 0.2248367E+03  (-0.1384343E+03)
 number of electron     671.9999981 magnetization      48.0000007
 augmentation part      268.8332022 magnetization      26.7108629

 Broyden mixing:
  rms(total) = 0.13877E+02    rms(broyden)= 0.13874E+02
  rms(prec ) = 0.15575E+02
  weight for this iteration     100.00

 eigenvalues of (default mixing * dielectric matrix)
  average eigenvalue GAMMA=   0.3183
  0.3183

 Free energy of the ion-electron system (eV)
  ---------------------------------------------------
  alpha Z        PSCENC =      2652.81237852
  Ewald energy   TEWEN  =    -41831.79037995
  -Hartree energ DENC   =    -25111.62323394
  -exchange      EXHF   =         0.00000000
  -V(xc)+E(xc)   XCENC  =      3696.53887501
  PAW double counting   =     59907.84764458   -63333.20756015
  entropy T*S    EENTRO =        -0.08669622
  eigenvalues    EBANDS =    -10832.19641060
  atomic energy  EATOM  =     73862.19814772
  Solvation  Ediel_sol  =         0.00000000
  ---------------------------------------------------
  free energy    TOTEN  =      -989.50723503 eV

  energy without entropy =     -989.42053881  energy(sigma->0) =     -989.46388692


--------------------------------------------------------------------------------------------------------




--------------------------------------- Iteration      1(  14)  ---------------------------------------


    POTLOK:  cpu time    0.2114: real time    0.2230
    SETDIJ:  cpu time    3.2528: real time    3.2562
    EDDIAG:  cpu time    3.7660: real time    3.7739
  RMM-DIIS:  cpu time   13.5209: real time   13.5446
    ORTHCH:  cpu time    1.1643: real time    1.1678
       DOS:  cpu time    0.0011: real time    0.0011
    CHARGE:  cpu time    1.3453: real time    1.3481
    MIXING:  cpu time    0.0007: real time    0.0007
    --------------------------------------------
      LOOP:  cpu time   23.2625: real time   23.3155

 eigenvalue-minimisations  : 17745
 total energy-change (2. order) : 0.7475836E+02  (-0.1855911E+02)
 number of electron     671.9999895 magnetization      48.0000012
 augmentation part      246.6951779 magnetization      32.2338316

 Broyden mixing:
  rms(total) = 0.52512E+01    rms(broyden)= 0.52469E+01
  rms(prec ) = 0.56564E+01
  weight for this iteration     100.00

 eigenvalues of (default mixing * dielectric matrix)
  average eigenvalue GAMMA=   0.7306
  1.1008  0.3605

 Free energy of the ion-electron system (eV)
  ---------------------------------------------------
  alpha Z        PSCENC =      2652.81237852
  Ewald energy   TEWEN  =    -41831.79037995
  -Hartree energ DENC   =    -25720.78069509
  -exchange      EXHF   =         0.00000000
  -V(xc)+E(xc)   XCENC  =      3674.41710060
  PAW double counting   =     63333.35655416   -66815.91155091
  entropy T*S    EENTRO =        -0.00000000
  eigenvalues    EBANDS =    -10069.05042585
  atomic energy  EATOM  =     73862.19814772
  Solvation  Ediel_sol  =         0.00000000
  ---------------------------------------------------
  free energy    TOTEN  =      -914.74887080 eV

  energy without entropy =     -914.74887080  energy(sigma->0) =     -914.74887080


--------------------------------------------------------------------------------------------------------




--------------------------------------- Iteration      1(  15)  ---------------------------------------


    POTLOK:  cpu time    0.2012: real time    0.2025
    SETDIJ:  cpu time    3.2688: real time    3.2713
    EDDIAG:  cpu time    3.7368: real time    3.7559
  RMM-DIIS:  cpu time   13.6969: real time   13.7207
    ORTHCH:  cpu time    1.1818: real time    1.1853
       DOS:  cpu time    0.0010: real time    0.0010
    CHARGE:  cpu time    1.3445: real time    1.3468
    MIXING:  cpu time    0.0006: real time    0.0006
    --------------------------------------------
      LOOP:  cpu time   23.4317: real time   23.4840

 eigenvalue-minimisations  : 18390
 total energy-change (2. order) : 0.1330371E+02  (-0.1969923E+01)
 number of electron     671.9999910 magnetization      48.0000018
 augmentation part      249.6996856 magnetization      33.8202252

 Broyden mixing:
  rms(total) = 0.21211E+01    rms(broyden)= 0.21208E+01
  rms(prec ) = 0.21999E+01
  weight for this iteration     100.00

 eigenvalues of (default mixing * dielectric matrix)
  average eigenvalue GAMMA=   0.9617
  0.3861  0.7616  1.7375

 Free energy of the ion-electron system (eV)
  ---------------------------------------------------
  alpha Z        PSCENC =      2652.81237852
  Ewald energy   TEWEN  =    -41831.79037995
  -Hartree energ DENC   =    -25643.02037588
  -exchange      EXHF   =         0.00000000
  -V(xc)+E(xc)   XCENC  =      3706.74883124
  PAW double counting   =     67438.59257044   -70961.68276245
  entropy T*S    EENTRO =        -0.00000000
  eigenvalues    EBANDS =    -10125.30357348
  atomic energy  EATOM  =     73862.19814772
  Solvation  Ediel_sol  =         0.00000000
  ---------------------------------------------------
  free energy    TOTEN  =      -901.44516384 eV

  energy without entropy =     -901.44516384  energy(sigma->0) =     -901.44516384


--------------------------------------------------------------------------------------------------------




--------------------------------------- Iteration      1(  16)  ---------------------------------------


    POTLOK:  cpu time    0.2076: real time    0.2085
    SETDIJ:  cpu time    3.3039: real time    3.3069
    EDDIAG:  cpu time    3.7168: real time    3.7243
  RMM-DIIS:  cpu time   13.2046: real time   13.2467
    ORTHCH:  cpu time    1.1529: real time    1.1564
       DOS:  cpu time    0.0012: real time    0.0012
    CHARGE:  cpu time    1.3467: real time    1.3488
    MIXING:  cpu time    0.0009: real time    0.0009
    --------------------------------------------
      LOOP:  cpu time   22.9345: real time   22.9936

 eigenvalue-minimisations  : 17369
 total energy-change (2. order) :-0.1591779E+01  (-0.6968727E+00)
 number of electron     671.9999920 magnetization      48.0000021
 augmentation part      251.2291855 magnetization      33.9099938

 Broyden mixing:
  rms(total) = 0.13963E+01    rms(broyden)= 0.13957E+01
  rms(prec ) = 0.14898E+01
  weight for this iteration     100.00

 eigenvalues of (default mixing * dielectric matrix)
  average eigenvalue GAMMA=   0.9756
  2.0746  0.9037  0.3936  0.5305

 Free energy of the ion-electron system (eV)
  ---------------------------------------------------
  alpha Z        PSCENC =      2652.81237852
  Ewald energy   TEWEN  =    -41831.79037995
  -Hartree energ DENC   =    -25592.32351113
  -exchange      EXHF   =         0.00000000
  -V(xc)+E(xc)   XCENC  =      3708.14853383
  PAW double counting   =     70445.03552069   -73998.52994399
  entropy T*S    EENTRO =        -0.00000000
  eigenvalues    EBANDS =    -10148.58768894
  atomic energy  EATOM  =     73862.19814772
  Solvation  Ediel_sol  =         0.00000000
  ---------------------------------------------------
  free energy    TOTEN  =      -903.03694325 eV

  energy without entropy =     -903.03694325  energy(sigma->0) =     -903.03694325


--------------------------------------------------------------------------------------------------------




--------------------------------------- Iteration      1(  17)  ---------------------------------------


    POTLOK:  cpu time    0.2036: real time    0.2039
    SETDIJ:  cpu time    3.3070: real time    3.3096
    EDDIAG:  cpu time    3.7710: real time    3.7785
  RMM-DIIS:  cpu time   13.8384: real time   13.8859
    ORTHCH:  cpu time    1.1533: real time    1.1558
       DOS:  cpu time    0.0011: real time    0.0011
    CHARGE:  cpu time    1.3635: real time    1.3647
    MIXING:  cpu time    0.0017: real time    0.0017
    --------------------------------------------
      LOOP:  cpu time   23.6396: real time   23.7011

 eigenvalue-minimisations  : 18575
 total energy-change (2. order) : 0.2024467E+00  (-0.6257426E-01)
 number of electron     671.9999918 magnetization      48.0000024
 augmentation part      251.0899322 magnetization      33.9018963

 Broyden mixing:
  rms(total) = 0.75111E+00    rms(broyden)= 0.75101E+00
  rms(prec ) = 0.84491E+00
  weight for this iteration     100.00

 eigenvalues of (default mixing * dielectric matrix)
  average eigenvalue GAMMA=   1.0054
  2.2407  1.1344  0.3839  0.7024  0.5656

 Free energy of the ion-electron system (eV)
  ---------------------------------------------------
  alpha Z        PSCENC =      2652.81237852
  Ewald energy   TEWEN  =    -41831.79037995
  -Hartree energ DENC   =    -25585.89501464
  -exchange      EXHF   =         0.00000000
  -V(xc)+E(xc)   XCENC  =      3705.12949347
  PAW double counting   =     71239.09195221   -74800.31257227
  entropy T*S    EENTRO =        -0.00000000
  eigenvalues    EBANDS =    -10144.06850164
  atomic energy  EATOM  =     73862.19814772
  Solvation  Ediel_sol  =         0.00000000
  ---------------------------------------------------
  free energy    TOTEN  =      -902.83449658 eV

  energy without entropy =     -902.83449658  energy(sigma->0) =     -902.83449658


--------------------------------------------------------------------------------------------------------




--------------------------------------- Iteration      1(  18)  ---------------------------------------


    POTLOK:  cpu time    0.2001: real time    0.2012
    SETDIJ:  cpu time    3.3096: real time    3.3108
    EDDIAG:  cpu time    3.7216: real time    3.7243
  RMM-DIIS:  cpu time   13.2592: real time   13.2656
    ORTHCH:  cpu time    1.1640: real time    1.1662
       DOS:  cpu time    0.0010: real time    0.0010
    CHARGE:  cpu time    1.3453: real time    1.3458
    MIXING:  cpu time    0.0009: real time    0.0009
    --------------------------------------------
      LOOP:  cpu time   23.0016: real time   23.0159

 eigenvalue-minimisations  : 17481
 total energy-change (2. order) : 0.3799354E+00  (-0.7237942E-01)
 number of electron     671.9999915 magnetization      48.0000025
 augmentation part      250.5937881 magnetization      33.8625891

 Broyden mixing:
  rms(total) = 0.26711E+00    rms(broyden)= 0.26681E+00
  rms(prec ) = 0.27990E+00
  weight for this iteration     100.00

 eigenvalues of (default mixing * dielectric matrix)
  average eigenvalue GAMMA=   1.0226
  2.4779  1.3598  0.8508  0.3853  0.5863  0.4755

 Free energy of the ion-electron system (eV)
[...]
   4      -0.743    -0.706     1.449    -0.098    -0.429    -0.278
   5      -0.806    -0.634     1.440    -0.107     0.434     0.257
   6      -0.891    -1.016     1.907     0.139     0.027    -0.046
   7      -0.851    -1.004     1.855     0.082     0.007     0.055
   8      -0.734    -0.656     1.391    -0.107    -0.491    -0.238
   9      -0.811    -0.908     1.719     0.118     0.116     0.072
  10      -0.678    -0.917     1.595    -0.006    -0.006    -0.464
  11      -0.842    -0.651     1.493     0.204    -0.421     0.233
  12      -0.813    -0.957     1.770     0.060    -0.079    -0.003
  13      -0.832    -0.746     1.578     0.093     0.488    -0.233
  14      -0.604    -0.912     1.515    -0.020    -0.017     0.458
  15      -0.693    -0.668     1.361     0.137    -0.409     0.140
  16      -0.624    -0.909     1.533    -0.038    -0.066    -0.508
  17       1.342     1.499    -2.841    -0.009    -0.039     0.011
  18       1.674     1.240    -2.914     0.127    -0.132    -0.098
  19       1.572     1.277    -2.849    -0.096     0.018     0.047
  20       1.227     1.582    -2.808     0.011     0.122     0.076
  21       1.441     1.407    -2.848     0.012     0.103     0.031
  22       1.270     1.671    -2.942     0.142     0.058     0.171
  23       1.175     1.822    -2.997     0.066     0.017    -0.043
  24       1.522     1.584    -3.106    -0.046    -0.113    -0.094
  25      -1.136     1.422    -0.286     0.308     0.263     0.245
  26      -1.872     1.944    -0.072    -0.825    -0.372     0.089
  27      -1.548    -0.780     2.328    -1.068     1.068    -0.036
  28       0.332    -0.152    -0.180    -0.931    -1.268     0.505
  29      -0.008     0.593    -0.585     0.124     0.363    -0.906
  30       2.701    -3.774     1.073    -0.246     1.304     0.370
  31       1.111    -2.211     1.100    -0.870    -1.435    -0.661
  32       1.398    -0.386    -1.013    -0.005     0.155    -0.655
  33      -0.982    -0.600     1.582     0.151     0.202     0.665
  34      -0.619     0.807    -0.189     0.201     0.531     0.178
  35      -0.781     0.246     0.535     0.477     0.313     0.603
  36      -0.507    -0.679     1.186     0.662    -0.423     0.955
  37       0.128    -1.688     1.560     0.952     0.536    -0.150
  38      -1.563     0.338     1.225     0.744    -0.882     0.131
  39      -0.178     0.080     0.097    -0.053     0.814     0.986
  40      -0.837    -1.088     1.925    -0.872     0.266    -0.055
  41      -2.925     3.837    -0.913    -4.027     1.696    -3.055
  42      -4.595     5.124    -0.529     3.606     2.062     4.443
  43       4.611    -4.635     0.025     0.485    -3.106     1.038
  44      -4.863     2.280     2.583     2.441    -2.986    -3.230
  45      -3.199     3.811    -0.612    -4.766    -2.763     1.355
  46       6.348    -6.772     0.424    -0.631     3.432    -1.266
  47      -2.896     3.131    -0.235    -5.609     0.872    -3.920
  48       4.235    -5.876     1.641     0.979    -4.789    -0.951
  49      -6.103     3.389     2.715     4.407     1.881     5.454
  50       5.637    -4.351    -1.287     1.321     4.404     0.277
  51      -4.317     3.177     1.140    -5.420    -3.624     3.020
  52      -4.200     2.392     1.808     3.890    -2.802    -3.842
  53      -1.502     1.685    -0.183    -5.951     2.362    -3.399
  54      -4.978     3.306     1.673     4.849     3.853     3.770
  55       5.162    -6.536     1.374     0.064    -5.286     1.273
  56      -0.179     0.207    -0.028     5.698    -0.634    -5.572
  57      -3.540     3.308     0.233    -5.139    -1.732     4.869
  58       4.102    -6.816     2.714    -0.321     4.884     0.073
  59      -0.998    -1.438     2.436    -4.694     3.009    -4.442
  60       6.346    -6.438     0.092    -0.547    -4.865     1.392
  61      -3.862     2.329     1.532     3.942     2.092     4.648
  62       5.454    -4.290    -1.163    -1.459     4.557     0.212
  63      -2.602     3.160    -0.557    -4.756    -1.226     3.767
  64      -2.495     3.352    -0.857     6.706    -0.090    -4.348
  65      -2.041     0.729     1.312    -5.606     2.710    -3.384
  66      -2.699     2.265     0.434     5.589     2.484     3.767
  67       5.340    -5.785     0.445     1.602    -4.723     0.762
  68      -2.568     2.427     0.140     4.839    -2.508    -4.074
  69      -2.751    -0.586     3.337    -5.535    -1.647     4.362
  70       5.999    -5.626    -0.373    -1.112     3.892     1.842
  71      -2.733     2.608     0.125    -5.344     3.331    -3.793
  72       6.964    -6.300    -0.665     0.154    -3.718    -1.509
  73      -4.419     3.908     0.511     4.737     2.505     3.594
  74       4.002    -5.895     1.893     0.239     5.018     2.821
  75      -3.998     3.899     0.099    -4.736    -2.549     5.102
  76      -2.449     3.458    -1.010     5.252    -1.580    -3.877
  77      -1.954     0.938     1.016    -4.288     2.753    -4.118
  78      -3.659     3.129     0.530     4.262     1.277     4.706
  79       5.242    -5.156    -0.086     0.686    -3.985     0.523
  80      -4.106     2.183     1.923     4.341    -3.372    -4.992
  81      -2.871    -0.073     2.943    -3.773    -2.110     4.386
  82       5.138    -6.113     0.975     1.755     4.930     0.244
  83      -2.421     1.529     0.892    -6.127     1.612    -3.875
  84       5.482    -6.042     0.561     1.096    -3.881     0.058
  85      -4.886     2.159     2.727     4.580     2.705     5.316
  86       5.634    -6.380     0.746     1.322     5.257    -0.656
  87      -3.337     1.877     1.459    -3.805    -1.644     4.692
  88      -4.979     2.669     2.310     2.953    -3.834    -2.982
 ---------------------------------------------------------------------


 Total hyperfine coupling parameters after diagonalization (MHz)
 (convention: |A_zz| > |A_xx| > |A_yy|)
 ----------------------------------------------------------------------
  ion      A_xx      A_yy      A_zz     asymmetry (A_yy - A_xx)/ A_zz 
 ----------------------------------------------------------------------
   1       1.753     1.312     3.808      -0.116
   2       1.726     1.345     3.901      -0.098
   3       0.942     0.638     2.969      -0.102
   4       2.253     1.946     4.438      -0.069
   5       2.805     2.426     4.935      -0.077
   6      -0.272     0.034     2.743       0.112
   7       0.697     0.473     3.369      -0.067
   8       2.137     1.786     4.240      -0.083
   9       0.444     0.196     2.910      -0.085
  10       1.828     1.506     4.184      -0.077
  11       2.284     1.742     4.388      -0.123
  12       0.600     0.414     3.165      -0.059
  13       1.991     1.676     4.370      -0.072
  14       2.179     1.787     4.381      -0.090
  15       1.351     1.016     3.351      -0.100
  16       2.541     2.143     4.796      -0.083
  17      13.847     9.663    14.005      -0.299
  18      13.358     9.232    13.865      -0.298
  19      13.801     9.703    14.153      -0.290
  20      14.069    10.025    14.422      -0.280
  21      14.332    10.078    14.377      -0.296
  22      14.881    10.707    15.380      -0.271
  23      14.926    10.759    15.586      -0.267
  24      15.521    10.909    15.629      -0.295
  25      97.986    97.024    99.756      -0.010
  26      94.029    91.953    96.180      -0.022
  27      98.656    96.375   101.462      -0.022
  28      99.101    98.455   101.629      -0.006
  29      96.598    95.292    97.577      -0.013
  30      98.144    93.926   101.171      -0.042
  31      97.900    95.031   100.283      -0.029
  32      93.050    91.598    94.438      -0.015
  33      94.707    94.425    97.249      -0.003
  34      96.167    95.111    96.992      -0.011
  35      93.839    93.056    95.193      -0.008
  36      95.107    93.462    96.680      -0.017
  37      98.540    96.029    99.905      -0.025
  38      97.298    94.676    98.218      -0.027
  39      99.360    98.101   100.679      -0.013
  40      97.140    95.400    99.206      -0.018
  41       3.893     1.456    13.491      -0.181
  42       4.224     1.311    16.038      -0.182
  43       5.834     1.987    13.178      -0.292
  44       5.514     0.170    13.223      -0.404
  45       6.247     0.739    14.052      -0.392
  46       7.840     1.865    16.856      -0.354
  47       5.634     0.746    15.527      -0.315
  48       4.247     0.249    14.296      -0.280
  49       7.587     1.711    19.359      -0.304
  50       5.505     4.257    16.756      -0.074
  51       6.573    -0.007    16.224      -0.406
  52       6.579     2.119    16.107      -0.277
  53       7.377     3.495    17.848      -0.217
  54       6.474     0.134    16.918      -0.375
  55       7.035     2.298    18.036      -0.263
  56       8.237     1.369    17.312      -0.397
  57       8.264     4.458    19.918      -0.191
  58       8.582     3.261    18.437      -0.289
  59       7.206     3.189    17.602      -0.228
  60       6.277     1.880    17.709      -0.248
  61       3.249    -0.155    13.791      -0.247
  62       2.575     0.645    13.455      -0.143
  63       4.564     1.339    14.473      -0.223
  64       5.753    -0.636    16.282      -0.392
  65       6.347     1.435    15.815      -0.311
  66       4.270     0.045    14.820      -0.285
  67       5.181     0.655    15.338      -0.295
  68       3.837     1.017    14.744      -0.191
  69       7.657     0.698    16.400      -0.424
  70       6.320     0.846    15.352      -0.357
  71       4.054     0.440    15.429      -0.234
  72       5.235     0.292    15.530      -0.318
  73       7.305     2.367    17.453      -0.283
  74       4.824    -0.846    14.519      -0.391
  75       6.894     4.006    19.784      -0.146
  76       5.677     2.783    16.780      -0.172
  77       3.565     1.172    13.904      -0.172
  78       3.985     0.393    14.490      -0.248
  79       4.606     1.265    14.008      -0.239
  80       2.530    -1.046    14.663      -0.244
  81       3.308    -0.312    12.870      -0.281
  82       4.493     0.220    15.230      -0.281
  83       6.327     0.541    15.837      -0.365
  84       5.855     1.179    15.037      -0.311
  85       4.380    -0.311    16.426      -0.286
  86       3.054    -1.518    14.306      -0.320
  87       2.271    -0.910    12.306      -0.258
  88       7.923     1.437    15.693      -0.413
 ---------------------------------------------------------------------



--------------------------------------------------------------------------------------------------------


 stress matrix after NEB project (eV)
    -44.74598     -1.36861     -2.99626
     -1.36746    -43.40765     -3.62194
     -2.98948     -3.60175    -58.41563
  FORCES: max atom, RMS     2.848134    1.138046
  FORCE total and by dimension   10.675816    2.702841
  Stress total and by dimension   85.712079   58.415626
     LOOP+:  cpu time  604.7315: real time  606.0466
    4ORBIT:  cpu time    0.0000: real time    0.0000
 


 total charge     
 
# of ion       s       p       d       tot
------------------------------------------
    1        0.049   5.991   0.000   6.041
    2        0.052   5.994   0.000   6.045
    3        0.050   5.993   0.000   6.043
    4        0.052   5.994   0.000   6.046
    5        0.052   5.995   0.000   6.047
    6        0.050   5.995   0.000   6.045
    7        0.044   5.987   0.000   6.032
    8        0.051   5.993   0.000   6.045
    9        0.053   5.999   0.000   6.052
   10        0.053   5.997   0.000   6.050
   11        0.050   5.992   0.000   6.042
   12        0.051   5.995   0.000   6.046
   13        0.054   5.997   0.000   6.051
   14        0.051   5.994   0.000   6.046
   15        0.054   5.998   0.000   6.052
   16        0.051   5.994   0.000   6.045
   17        0.148   6.126   0.082   6.355
   18        0.147   6.124   0.080   6.350
   19        0.144   6.120   0.077   6.341
   20        0.146   6.123   0.079   6.348
   21        0.144   6.120   0.077   6.341
   22        0.149   6.129   0.085   6.363
   23        0.154   6.137   0.091   6.383
   24        0.159   6.145   0.098   6.403
   25        0.367   6.433   4.817  11.616
   26        0.373   6.449   4.822  11.645
   27        0.373   6.447   4.835  11.654
   28        0.375   6.459   4.834  11.667
   29        0.371   6.446   4.822  11.639
   30        0.377   6.458   4.834  11.669
   31        0.385   6.472   4.855  11.712
   32        0.377   6.459   4.830  11.665
   33        0.382   6.469   4.839  11.690
   34        0.385   6.478   4.849  11.712
   35        0.382   6.464   4.843  11.688
   36        0.386   6.477   4.847  11.710
   37        0.387   6.478   4.858  11.724
   38        0.369   6.440   4.810  11.618
   39        0.364   6.429   4.809  11.602
   40        0.372   6.443   4.827  11.642
   41        1.597   3.507   0.000   5.104
   42        1.598   3.481   0.000   5.080
   43        1.595   3.508   0.000   5.103
   44        1.597   3.527   0.000   5.123
   45        1.597   3.485   0.000   5.082
   46        1.602   3.510   0.000   5.111
   47        1.597   3.519   0.000   5.116
   48        1.599   3.489   0.000   5.089
   49        1.603   3.477   0.000   5.080
   50        1.598   3.500   0.000   5.098
   51        1.601   3.524   0.000   5.124
   52        1.599   3.525   0.000   5.124
   53        1.602   3.499   0.000   5.100
   54        1.601   3.525   0.000   5.126
   55        1.601   3.509   0.000   5.110
   56        1.600   3.496   0.000   5.095
   57        1.599   3.516   0.000   5.115
   58        1.599   3.534   0.000   5.133
   59        1.601   3.526   0.000   5.127
   60        1.599   3.502   0.000   5.101
   61        1.595   3.481   0.000   5.076
   62        1.598   3.483   0.000   5.081
   63        1.598   3.505   0.000   5.103
   64        1.602   3.486   0.000   5.088
   65        1.599   3.525   0.000   5.124
   66        1.599   3.537   0.000   5.137
   67        1.604   3.527   0.000   5.131
   68        1.600   3.497   0.000   5.097
   69        1.601   3.526   0.000   5.127
   70        1.596   3.485   0.000   5.081
   71        1.600   3.503   0.000   5.102
   72        1.600   3.472   0.000   5.072
   73        1.599   3.525   0.000   5.124
   74        1.599   3.515   0.000   5.113
   75        1.599   3.487   0.000   5.086
   76        1.602   3.505   0.000   5.108
   77        1.598   3.520   0.000   5.117
   78        1.597   3.503   0.000   5.100
   79        1.596   3.483   0.000   5.078
   80        1.600   3.484   0.000   5.084
   81        1.599   3.542   0.000   5.140
   82        1.602   3.508   0.000   5.110
   83        1.599   3.494   0.000   5.093
   84        1.597   3.496   0.000   5.092
   85        1.602   3.520   0.000   5.121
   86        1.600   3.510   0.000   5.111
   87        1.597   3.476   0.000   5.073
   88        1.599   3.531   0.000   5.129
--------------------------------------------------
tot         84.794 416.512  78.001 579.307
 


 magnetization (x)
 
# of ion       s       p       d       tot
------------------------------------------
    1        0.002  -0.000   0.000   0.002
    2        0.002   0.000   0.000   0.002
    3        0.001   0.000   0.000   0.001
    4        0.002   0.000   0.000   0.002
    5        0.002   0.001   0.000   0.003
    6        0.001   0.000   0.000   0.001
    7        0.001   0.001   0.000   0.002
    8        0.002   0.000   0.000   0.002
    9        0.001   0.000   0.000   0.001
   10        0.002   0.000   0.000   0.002
   11        0.002   0.000   0.000   0.003
   12        0.001   0.001   0.000   0.002
   13        0.002   0.000   0.000   0.002
   14        0.002   0.000   0.000   0.002
   15        0.001   0.000   0.000   0.001
   16        0.002   0.000   0.000   0.003
   17        0.007   0.002   0.001   0.010
   18        0.007   0.002   0.001   0.010
   19        0.007   0.002   0.001   0.010
   20        0.007   0.002   0.001   0.010
   21        0.007   0.002   0.001   0.010
   22        0.008   0.002   0.001   0.011
   23        0.007   0.003   0.001   0.012
   24        0.008   0.004   0.001   0.013
   25        0.016   0.029   2.773   2.818
   26        0.014   0.029   2.747   2.791
   27        0.016   0.030   2.758   2.804
   28        0.016   0.031   2.756   2.803
   29        0.015   0.029   2.768   2.813
   30        0.016   0.030   2.751   2.796
   31        0.016   0.031   2.732   2.779
   32        0.014   0.030   2.749   2.793
   33        0.015   0.031   2.746   2.792
   34        0.016   0.031   2.731   2.777
   35        0.014   0.030   2.748   2.792
   36        0.015   0.031   2.735   2.781
   37        0.016   0.031   2.726   2.774
   38        0.015   0.029   2.770   2.815
   39        0.016   0.030   2.783   2.829
   40        0.015   0.030   2.761   2.806
   41        0.002   0.020   0.000   0.022
   42        0.002   0.024   0.000   0.026
   43        0.002   0.027   0.000   0.029
   44        0.002   0.025   0.000   0.027
   45        0.002   0.026   0.000   0.028
   46        0.002   0.048   0.000   0.050
   47        0.002   0.035   0.000   0.037
   48        0.002   0.022   0.000   0.024
   49        0.002   0.052   0.000   0.054
   50        0.002   0.038   0.000   0.040
   51        0.002   0.045   0.000   0.047
   52        0.002   0.054   0.000   0.056
   53        0.002   0.044   0.000   0.047
   54        0.002   0.041   0.000   0.043
   55        0.002   0.051   0.000   0.053
   56        0.002   0.039   0.000   0.041
   57        0.003   0.063   0.000   0.065
   58        0.002   0.061   0.000   0.063
   59        0.002   0.054   0.000   0.056
   60        0.002   0.043   0.000   0.045
   61        0.002   0.018   0.000   0.019
   62        0.002   0.010   0.000   0.012
   63        0.002   0.019   0.000   0.021
   64        0.002   0.025   0.000   0.027
   65        0.002   0.044   0.000   0.046
   66        0.002   0.035   0.000   0.036
   67        0.002   0.031   0.000   0.033
   68        0.002   0.018   0.000   0.020
   69        0.002   0.043   0.000   0.045
   70        0.002   0.034   0.000   0.036
   71        0.002   0.026   0.000   0.027
   72        0.002   0.018   0.000   0.020
   73        0.002   0.051   0.000   0.053
   74        0.002   0.028   0.000   0.029
   75        0.003   0.051   0.000   0.053
   76        0.002   0.032   0.000   0.034
   77        0.002   0.026   0.000   0.028
   78        0.002   0.024   0.000   0.026
   79        0.002   0.018   0.000   0.020
   80        0.002   0.017   0.000   0.018
   81        0.001   0.026   0.000   0.027
   82        0.002   0.024   0.000   0.026
   83        0.002   0.031   0.000   0.033
   84        0.002   0.039   0.000   0.040
   85        0.002   0.034   0.000   0.036
   86        0.002   0.021   0.000   0.023
   87        0.001   0.010   0.000   0.011
   88        0.002   0.042   0.000   0.044
--------------------------------------------------
tot          0.426   2.105  44.045  46.576
 

 total amount of memory used by VASP MPI-rank0    88181. kBytes
=======================================================================

   base      :      30000. kBytes
   nonlr-proj:      13672. kBytes
   fftplans  :        992. kBytes
   grid      :      21513. kBytes
   one-center:       2737. kBytes
   wavefun   :      19267. kBytes
 
  
  
 General timing and accounting informations for this job:
 ========================================================
  
                  Total CPU time used (sec):      623.134
                            User time (sec):      617.440
                          System time (sec):        5.694
                         Elapsed time (sec):      627.400
  
                   Maximum memory used (kb):      182456.
                   Average memory used (kb):           0.
  
                          Minor page faults:       300096
                          Major page faults:            0
                 Voluntary context switches:         3694
