 vasp.5.4.4.18Apr17-6-g9f103f2a35 (build Dec 02 2020 12:53:39) complex          
  
 executed on             LinuxIFC date 2021.07.31  10:10:57
 running on  112 total cores
 distrk:  each k-point on  112 cores,    1 groups
 distr:  one band on NCORES_PER_BAND=   1 cores,  112 groups


--------------------------------------------------------------------------------------------------------


 INCAR:
 POTCAR:    PAW_PBE Na_pv 19Sep2006               
 POTCAR:    PAW_PBE Mg_pv 13Apr2007               
 POTCAR:    PAW_PBE Mn_pv 02Aug2007               
 POTCAR:    PAW_PBE O 08Apr2002                   

 ----------------------------------------------------------------------------- 
|                                                                             |
|           W    W    AA    RRRRR   N    N  II  N    N   GGGG   !!!           |
|           W    W   A  A   R    R  NN   N  II  NN   N  G    G  !!!           |
|           W    W  A    A  R    R  N N  N  II  N N  N  G       !!!           |
|           W WW W  AAAAAA  RRRRR   N  N N  II  N  N N  G  GGG   !            |
|           WW  WW  A    A  R   R   N   NN  II  N   NN  G    G                |
|           W    W  A    A  R    R  N    N  II  N    N   GGGG   !!!           |
|                                                                             |
|      For optimal performance we recommend to set                            |
|        NCORE= 4 - approx SQRT( number of cores)                             |
|      NCORE specifies how many cores store one orbital (NPAR=cpu/NCORE).     |
|      This setting can  greatly improve the performance of VASP for DFT.     |
|      The default,   NCORE=1            might be grossly inefficient         |
|      on modern multi-core architectures or massively parallel machines.     |
|      Do your own testing !!!!                                               |
|      Unfortunately you need to use the default for GW and RPA calculations. |
|      (for HF NCORE is supported but not extensively tested yet)             |
|                                                                             |
 ----------------------------------------------------------------------------- 

 POTCAR:    PAW_PBE Na_pv 19Sep2006               
   VRHFIN =Na: p6s1                                                             
   LEXCH  = PE                                                                  
   EATOM  =   766.0439 eV,   56.3026 Ry                                         
                                                                                
   TITEL  = PAW_PBE Na_pv 19Sep2006                                             
   LULTRA =        F    use ultrasoft PP ?                                      
   IUNSCR =        1    unscreen: 0-lin 1-nonlin 2-no                           
   RPACOR =    1.800    partial core radius                                     
   POMASS =   22.990; ZVAL   =    7.000    mass and valenz                      
   RCORE  =    2.200    outmost cutoff radius                                   
   RWIGS  =    2.200; RWIGS  =    1.164    wigner-seitz radius (au A)           
   ENMAX  =  259.561; ENMIN  =  194.671 eV                                      
   ICORE  =        2    local potential                                         
   LCOR   =        T    correct aug charges                                     
   LPAW   =        T    paw PP                                                  
   EAUG   =  368.056                                                            
   DEXC   =    0.000                                                            
   RMAX   =    2.245    core radius for proj-oper                               
   RAUG   =    1.300    factor for augmentation sphere                          
   RDEP   =    2.259    radius for radial grids                                 
   RDEPT  =    1.738    core radius for aug-charge                              
                                                                                
   Atomic configuration                                                         
    5 entries                                                                   
     n  l   j            E        occ.                                          
     1  0  0.50     -1033.6933   2.0000                                         
     2  0  0.50       -56.7526   2.0000                                         
     2  1  1.50       -28.6721   6.0000                                         
     3  0  0.50        -2.7440   1.0000                                         
     3  2  1.50        -1.3606   0.0000                                         
   Description                                                                  
     l       E           TYP  RCUT    TYP  RCUT                                 
     1    -28.6720912     23  2.000                                             
     1      6.8029130     23  2.000                                             
     0     -2.7439560     23  2.200                                             
     0     34.0145650     23  2.200                                             
     2     -1.3605826     23  2.200                                             
  local pseudopotential read in
  partial core-charges read in
  partial kinetic energy density read in
  atomic valenz-charges read in
  non local Contribution for L=           1  read in
    real space projection operators read in
  non local Contribution for L=           1  read in
    real space projection operators read in
  non local Contribution for L=           0  read in
    real space projection operators read in
  non local Contribution for L=           0  read in
    real space projection operators read in
    PAW grid and wavefunctions read in
 
   number of l-projection  operators is LMAX  =           4
   number of lm-projection operators is LMMAX =           8
 
 POTCAR:    PAW_PBE Mg_pv 13Apr2007               
   VRHFIN =Mg: p6s2                                                             
   LEXCH  = PE                                                                  
   EATOM  =  1056.7344 eV,   77.6678 Ry                                         
                                                                                
   TITEL  = PAW_PBE Mg_pv 13Apr2007                                             
   LULTRA =        F    use ultrasoft PP ?                                      
   IUNSCR =        1    unscreen: 0-lin 1-nonlin 2-no                           
   RPACOR =    1.500    partial core radius                                     
   POMASS =   24.305; ZVAL   =    8.000    mass and valenz                      
   RCORE  =    2.000    outmost cutoff radius                                   
   RWIGS  =    2.000; RWIGS  =    1.058    wigner-seitz radius (au A)           
   ENMAX  =  403.929; ENMIN  =  302.947 eV                                      
   RCLOC  =    1.506    cutoff for local pot                                    
   LCOR   =        T    correct aug charges                                     
   LPAW   =        T    paw PP                                                  
   EAUG   =  758.780                                                            
   DEXC   =    0.000                                                            
   RMAX   =    2.045    core radius for proj-oper                               
   RAUG   =    1.300    factor for augmentation sphere                          
   RDEP   =    2.025    radius for radial grids                                 
   RDEPT  =    1.557    core radius for aug-charge                              
                                                                                
   Atomic configuration                                                         
    5 entries                                                                   
     n  l   j            E        occ.                                          
     1  0  0.50     -1259.6230   2.0000                                         
     2  0  0.50       -79.8442   2.0000                                         
     2  1  1.50       -46.6121   6.0000                                         
     3  0  0.50        -4.7055   2.0000                                         
     3  2  1.50        -1.3606   0.0000                                         
   Description                                                                  
     l       E           TYP  RCUT    TYP  RCUT                                 
     1    -46.6121073     23  1.600                                             
     1      2.7211652     23  1.600                                             
     0     -4.7054661     23  2.000                                             
     0     61.2262170     23  2.000                                             
     2     -1.3605826     23  2.000                                             
  local pseudopotential read in
  partial core-charges read in
  partial kinetic energy density read in
  atomic valenz-charges read in
  non local Contribution for L=           1  read in
    real space projection operators read in
  non local Contribution for L=           1  read in
    real space projection operators read in
  non local Contribution for L=           0  read in
    real space projection operators read in
  non local Contribution for L=           0  read in
    real space projection operators read in
  non local Contribution for L=           2  read in
    real space projection operators read in
    PAW grid and wavefunctions read in
 
   number of l-projection  operators is LMAX  =           5
   number of lm-projection operators is LMMAX =          13
 
 POTCAR:    PAW_PBE Mn_pv 02Aug2007               
   VRHFIN =Mn: 3p4s3d                                                           
   LEXCH  = PE                                                                  
   EATOM  =  2025.2664 eV,  148.8529 Ry                                         
                                                                                
   TITEL  = PAW_PBE Mn_pv 02Aug2007                                             
   LULTRA =        F    use ultrasoft PP ?                                      
   IUNSCR =        1    unscreen: 0-lin 1-nonlin 2-no                           
   RPACOR =    2.080    partial core radius                                     
   POMASS =   54.938; ZVAL   =   13.000    mass and valenz                      
   RCORE  =    2.300    outmost cutoff radius                                   
   RWIGS  =    2.500; RWIGS  =    1.323    wigner-seitz radius (au A)           
   ENMAX  =  269.864; ENMIN  =  202.398 eV                                      
   ICORE  =        3    local potential                                         
   LCOR   =        T    correct aug charges                                     
   LPAW   =        T    paw PP                                                  
   EAUG   =  569.085                                                            
   DEXC   =    0.000                                                            
   RMAX   =    2.343    core radius for proj-oper                               
   RAUG   =    1.300    factor for augmentation sphere                          
   RDEP   =    2.338    radius for radial grids                                 
   RDEPT  =    1.798    core radius for aug-charge                              
                                                                                
   Atomic configuration                                                         
    8 entries                                                                   
     n  l   j            E        occ.                                          
     1  0  0.50     -6424.8287   2.0000                                         
     2  0  0.50      -739.1154   2.0000                                         
     2  1  1.50      -625.3949   6.0000                                         
     3  0  0.50       -81.6100   2.0000                                         
     3  1  1.50       -50.4667   6.0000                                         
     3  2  2.50        -3.3745   6.0000                                         
     4  0  0.50        -4.1331   1.0000                                         
     4  3  2.50        -1.3606   0.0000                                         
   Description                                                                  
     l       E           TYP  RCUT    TYP  RCUT                                 
     1    -50.4666628     23  2.000                                             
     1     -1.3605826     23  2.000                                             
     2     -3.3744729     23  2.300                                             
     2     -4.7350555     23  2.300                                             
     0     -4.1331431     23  2.300                                             
     0      7.6656591     23  2.300                                             
     3      9.5240782     23  2.300                                             
  local pseudopotential read in
  partial core-charges read in
  partial kinetic energy density read in
  atomic valenz-charges read in
  non local Contribution for L=           1  read in
    real space projection operators read in
  non local Contribution for L=           1  read in
    real space projection operators read in
  non local Contribution for L=           2  read in
    real space projection operators read in
  non local Contribution for L=           2  read in
    real space projection operators read in
  non local Contribution for L=           0  read in
    real space projection operators read in
  non local Contribution for L=           0  read in
    real space projection operators read in
    PAW grid and wavefunctions read in
 
   number of l-projection  operators is LMAX  =           6
   number of lm-projection operators is LMMAX =          18
 
 POTCAR:    PAW_PBE O 08Apr2002                   
   VRHFIN =O: s2p4                                                              
   LEXCH  = PE                                                                  
   EATOM  =   432.3788 eV,   31.7789 Ry                                         
                                                                                
   TITEL  = PAW_PBE O 08Apr2002                                                 
   LULTRA =        F    use ultrasoft PP ?                                      
   IUNSCR =        1    unscreen: 0-lin 1-nonlin 2-no                           
   RPACOR =    1.200    partial core radius                                     
   POMASS =   16.000; ZVAL   =    6.000    mass and valenz                      
   RCORE  =    1.520    outmost cutoff radius                                   
   RWIGS  =    1.550; RWIGS  =    0.820    wigner-seitz radius (au A)           
   ENMAX  =  400.000; ENMIN  =  300.000 eV                                      
   ICORE  =        2    local potential                                         
   LCOR   =        T    correct aug charges                                     
   LPAW   =        T    paw PP                                                  
   EAUG   =  605.392                                                            
   DEXC   =    0.000                                                            
   RMAX   =    1.553    core radius for proj-oper                               
   RAUG   =    1.300    factor for augmentation sphere                          
   RDEP   =    1.550    radius for radial grids                                 
   RDEPT  =    1.329    core radius for aug-charge                              
                                                                                
   Atomic configuration                                                         
    4 entries                                                                   
     n  l   j            E        occ.                                          
     1  0  0.50      -514.6923   2.0000                                         
     2  0  0.50       -23.9615   2.0000                                         
     2  1  0.50        -9.0305   4.0000                                         
     3  2  1.50        -9.5241   0.0000                                         
   Description                                                                  
     l       E           TYP  RCUT    TYP  RCUT                                 
     0    -23.9615318     23  1.200                                             
     0     -9.5240782     23  1.200                                             
     1     -9.0304911     23  1.520                                             
     1      8.1634956     23  1.520                                             
     2     -9.5240782      7  1.500                                             
  local pseudopotential read in
  partial core-charges read in
  partial kinetic energy density read in
  kinetic energy density of atom read in
  atomic valenz-charges read in
  non local Contribution for L=           0  read in
    real space projection operators read in
  non local Contribution for L=           0  read in
    real space projection operators read in
  non local Contribution for L=           1  read in
    real space projection operators read in
  non local Contribution for L=           1  read in
    real space projection operators read in
    PAW grid and wavefunctions read in
 
   number of l-projection  operators is LMAX  =           4
   number of lm-projection operators is LMMAX =           8
 
 Optimization of the real space projectors (new method)

 maximal supplied QI-value         = 17.01
 optimisation between [QCUT,QGAM] = [ 10.20, 20.41] = [ 29.16,116.64] Ry 
 Optimized for a Real-space Cutoff    1.30 Angstroem

   l    n(q)    QCUT    max X(q) W(low)/X(q) W(high)/X(q)  e(spline) 
   1      7    10.205     4.940    0.23E-03    0.84E-03    0.11E-06
   1      7    10.205     6.253    0.40E-03    0.13E-02    0.18E-06
   0      8    10.205    37.438    0.23E-03    0.37E-03    0.42E-07
   0      8    10.205     9.606    0.16E-03    0.26E-03    0.31E-07
 Optimization of the real space projectors (new method)

 maximal supplied QI-value         = 18.90
 optimisation between [QCUT,QGAM] = [ 10.20, 20.41] = [ 29.16,116.64] Ry 
 Optimized for a Real-space Cutoff    1.26 Angstroem

   l    n(q)    QCUT    max X(q) W(low)/X(q) W(high)/X(q)  e(spline) 
   1      7    10.205     2.974    0.63E-04    0.14E-03    0.13E-06
   1      7    10.205     4.279    0.11E-03    0.45E-03    0.24E-06
   0      8    10.205    16.381    0.44E-03    0.15E-03    0.55E-07
   0      8    10.205     5.611    0.31E-03    0.11E-03    0.40E-07
   2      7    10.205     4.652    0.50E-03    0.47E-03    0.57E-07
 Optimization of the real space projectors (new method)

 maximal supplied QI-value         = 16.25
 optimisation between [QCUT,QGAM] = [ 10.24, 20.48] = [ 29.35,117.42] Ry 
 Optimized for a Real-space Cutoff    1.34 Angstroem

   l    n(q)    QCUT    max X(q) W(low)/X(q) W(high)/X(q)  e(spline) 
   1      8    10.239     3.658    0.23E-03    0.30E-03    0.98E-07
   1      8    10.239     5.612    0.32E-03    0.65E-03    0.21E-06
   2      7    10.239    55.373    0.42E-03    0.45E-03    0.65E-07
   2      7    10.239    50.863    0.43E-03    0.48E-03    0.67E-07
   0      8    10.239    79.536    0.11E-03    0.21E-03    0.56E-07
   0      8    10.239    38.668    0.96E-04    0.19E-03    0.52E-07
 Optimization of the real space projectors (new method)

 maximal supplied QI-value         = 24.76
 optimisation between [QCUT,QGAM] = [ 10.15, 20.30] = [ 28.85,115.39] Ry 
 Optimized for a Real-space Cutoff    1.38 Angstroem

   l    n(q)    QCUT    max X(q) W(low)/X(q) W(high)/X(q)  e(spline) 
   0      8    10.150    20.381    0.22E-03    0.32E-03    0.29E-06
   0      8    10.150    15.268    0.23E-03    0.35E-03    0.30E-06
   1      8    10.150     5.964    0.46E-03    0.53E-03    0.21E-06
   1      8    10.150     5.382    0.38E-03    0.45E-03    0.19E-06
  PAW_PBE Na_pv 19Sep2006               :
 energy of atom  1       EATOM= -766.0439
 kinetic energy error for atom=    0.0103 (will be added to EATOM!!)
  PAW_PBE Mg_pv 13Apr2007               :
 energy of atom  2       EATOM=-1056.7344
 kinetic energy error for atom=    0.0820 (will be added to EATOM!!)
  PAW_PBE Mn_pv 02Aug2007               :
 energy of atom  3       EATOM=-2025.2664
 kinetic energy error for atom=    0.0284 (will be added to EATOM!!)
  PAW_PBE O 08Apr2002                   :
 energy of atom  4       EATOM= -432.3788
 kinetic energy error for atom=    0.1156 (will be added to EATOM!!)
 
 
 POSCAR: Na Mg Mn  O                             
  positions in cartesian coordinates
  No initial velocities read in

 METAGGA = SCAN     LMAXTAU =  6    LMIXTAU =  F

 exchange correlation table for  LEXCH =        8
   RHO(1)=    0.500       N(1)  =     2000
   RHO(2)=  100.500       N(2)  =     4000

 VTST: version 3.2, (02/03/18)

 CHAIN: initializing optimizer
 
 OPT: Using VASP Dynamics algorithm
 CHAIN: Read ICHAIN            0
 
 POSCAR: Na Mg Mn  O                             
  positions in cartesian coordinates
  No initial velocities read in
 


--------------------------------------------------------------------------------------------------------


 ion  position               nearest neighbor table
   1  0.372  0.789  0.255-  86 2.29  77 2.35  88 2.36  79 2.37
   2  0.225  0.137  0.751-  47 2.27  48 2.31  44 2.31
   3  0.864  0.044  0.747-  59 2.26  61 2.27  56 2.28
   4  0.597  0.291  0.754-  46 2.26  49 2.31  68 2.34  71 2.34  28 2.98
   5  0.084  0.996  0.248-  50 2.26  41 2.27  25 2.84  27 2.91
   6  0.005  0.660  0.263-  76 2.26  67 2.36
   7  0.705  0.637  0.744-  68 2.32  82 2.33
   8  0.032  0.776  0.745-  70 2.32  72 2.38
   9  0.877  0.293  0.246-  64 2.31  53 2.34  55 2.35
  10  0.718  0.834  0.256-  63 2.21  79 2.34  40 2.79
  11  0.215  0.398  0.244-  64 2.23  87 2.26  55 2.33  78 2.34
  12  0.016  0.458  0.753-  70 2.34  60 2.34  57 2.36  37 2.82  39 2.87
  13  0.358  0.500  0.738-  80 2.19  83 2.31  82 2.32  85 2.38
  14  0.500  0.929  0.760-  84 2.15  81 2.22  29 2.83
  15  0.524  0.138  0.246-  42 2.28  51 2.38
  16  0.548  0.468  0.250-  74 2.31  52 2.34  35 2.80  33 2.98
  17  0.713  0.304  0.006-  60 2.01  53 2.02  43 2.03  66 2.04  71 2.10  49 2.13  34 2.78
  18  0.377  0.140  0.496-  52 1.95  50 2.04  51 2.04  44 2.12  45 2.13  46 2.15  28 2.82  31 2.84
                            36 2.85
  19  0.221  0.307  0.986-  48 2.01  83 2.05  78 2.07  41 2.11  61 2.15  55 2.16  33 2.80  26 2.81

  20  0.878  0.143  0.489-  64 2.01  58 2.02  63 2.09  62 2.09  57 2.11  56 2.17  39 2.78  27 2.82
                            31 2.85
  21  0.201  0.798  0.004-  67 1.93  73 1.98  42 2.07  47 2.10  84 2.12  77 2.12  37 2.81  25 2.81

  22  0.866  0.631  0.498-  74 1.99  75 1.99  68 2.01  76 2.10  70 2.14  69 2.24  28 2.83
  23  0.714  0.804  0.988-  72 1.99  59 2.01  54 2.03  85 2.10  79 2.14  65 2.16
  24  0.376  0.643  0.500-  88 1.96  81 1.99  82 2.02  80 2.07  87 2.10  86 2.21  40 2.83
  25  0.050  0.972  0.996-  61 1.83  47 1.87  67 1.89  54 1.95  41 1.97  72 2.08  21 2.81   5 2.84
                            26 2.85  30 2.92  34 3.02
  26  0.378  0.141  0.991-  41 1.83  48 1.90  49 1.92  43 1.92  42 1.95  47 1.97  19 2.81  33 2.82
                            25 2.85  29 2.94
  27  0.041  0.981  0.505-  63 1.90  76 1.92  69 1.94  50 1.96  44 1.97  58 1.97  32 2.82  20 2.82
                             5 2.91  40 2.94  36 2.98
  28  0.702  0.304  0.503-  57 1.85  46 1.89  75 1.97  62 1.98  52 1.98  68 1.99  31 2.77  18 2.82
                            22 2.83  39 2.86  35 2.89   4 2.98
  29  0.542  0.967  0.010-  84 1.91  49 1.93  53 1.93  79 1.95  42 1.95  59 1.97  14 2.83  38 2.86
                            30 2.90  26 2.94
  30  0.876  0.134  0.005-  55 1.86  60 1.91  59 1.96  61 1.97  53 1.97  54 1.99  29 2.90  25 2.92
                            37 2.96
  31  0.549  0.985  0.493-  62 1.82  51 1.84  46 1.87  81 1.94  88 1.95  56 1.97  28 2.77  18 2.84
                            20 2.85  40 2.89  36 2.91
  32  0.212  0.305  0.504-  58 1.83  45 1.88  50 1.88  87 1.94  80 1.96  64 2.11  35 2.81  27 2.82
                            39 2.94
  33  0.543  0.466  0.985-  71 1.86  85 1.87  48 1.89  43 1.95  78 1.95  65 1.97  19 2.80  34 2.81
                            26 2.82  38 2.93  16 2.98
  34  0.867  0.623  0.996-  71 1.84  65 1.85  73 1.87  72 1.89  66 1.93  67 2.11  17 2.78  33 2.81
                            37 2.89  25 3.02
  35  0.536  0.471  0.500-  74 1.88  52 1.88  45 1.91  82 1.92  87 1.92  68 1.94  16 2.80  32 2.81
                            28 2.89  40 2.90
  36  0.215  0.812  0.511-  86 1.90  81 1.91  44 1.94  76 1.98  51 2.03  70 2.03  18 2.85  31 2.91
                            27 2.98  39 3.03
  37  0.051  0.475  0.003-  73 1.83  83 1.92  77 1.93  60 2.00  55 2.00  66 2.02  21 2.81  12 2.82
                            38 2.84  34 2.89  30 2.96
  38  0.379  0.638  0.009-  84 1.87  78 1.89  77 1.93  85 1.97  79 1.98  83 2.03  37 2.84  29 2.86
                            33 2.93
  39  0.032  0.463  0.498-  75 1.88  70 1.89  64 1.93  57 1.95  80 1.96  86 2.12  20 2.78  28 2.86
                            12 2.87  32 2.94  36 3.03
  40  0.702  0.805  0.504-  56 1.81  63 1.93  82 1.94  88 1.94  69 1.94  74 2.08  10 2.79  24 2.83
                            31 2.89  35 2.90  27 2.94
  41  0.225  0.131  0.087-  26 1.83  25 1.97  19 2.11   5 2.27
  42  0.379  0.983  0.092-  26 1.95  29 1.95  21 2.07  15 2.28
  43  0.532  0.304  0.088-  26 1.92  33 1.95  17 2.03
  44  0.197  0.967  0.601-  36 1.94  27 1.97  18 2.12   2 2.31
  45  0.375  0.320  0.597-  32 1.88  35 1.91  18 2.13
  46  0.558  0.136  0.596-  31 1.87  28 1.89  18 2.15   4 2.26
  47  0.206  0.976  0.901-  25 1.87  26 1.97  21 2.10   2 2.27
  48  0.391  0.303  0.894-  33 1.89  26 1.90  19 2.01   2 2.31
  49  0.533  0.118  0.909-  26 1.92  29 1.93  17 2.13   4 2.31
  50  0.201  0.145  0.409-  32 1.88  27 1.96  18 2.04   5 2.26
  51  0.386  0.968  0.405-  31 1.84  36 2.03  18 2.04  15 2.38
  52  0.539  0.314  0.410-  35 1.88  18 1.95  28 1.98  16 2.34
  53  0.708  0.130  0.100-  29 1.93  30 1.97  17 2.02   9 2.34
  54  0.884  0.965  0.092-  25 1.95  30 1.99  23 2.03
  55  0.034  0.293  0.091-  30 1.86  37 2.00  19 2.16  11 2.33   9 2.35
  56  0.696  0.955  0.590-  40 1.81  31 1.97  20 2.17   3 2.28
  57  0.860  0.309  0.592-  28 1.85  39 1.95  20 2.11  12 2.36
  58  0.051  0.157  0.591-  32 1.83  27 1.97  20 2.02
  59  0.707  0.979  0.907-  30 1.96  29 1.97  23 2.01   3 2.26
  60  0.882  0.298  0.914-  30 1.91  37 2.00  17 2.01  12 2.34
  61  0.026  0.111  0.906-  25 1.83  30 1.97  19 2.15   3 2.27
  62  0.693  0.139  0.400-  31 1.82  28 1.98  20 2.09
  63  0.873  0.952  0.408-  27 1.90  40 1.93  20 2.09  10 2.21
  64  0.047  0.316  0.395-  39 1.93  20 2.01  32 2.11  11 2.23   9 2.31
  65  0.711  0.618  0.087-  34 1.85  33 1.97  23 2.16
  66  0.885  0.479  0.100-  34 1.93  37 2.02  17 2.04
  67  0.041  0.812  0.091-  25 1.89  21 1.93  34 2.11   6 2.36
  68  0.695  0.469  0.597-  35 1.94  28 1.99  22 2.01   7 2.32   4 2.34
  69  0.873  0.825  0.599-  27 1.94  40 1.94  22 2.24
  70  0.046  0.624  0.596-  39 1.89  36 2.03  22 2.14   8 2.32  12 2.34
  71  0.711  0.477  0.903-  34 1.84  33 1.86  17 2.10   4 2.34
  72  0.878  0.786  0.903-  34 1.89  23 1.99  25 2.08   8 2.38
  73  0.032  0.621  0.918-  37 1.83  34 1.87  21 1.98
  74  0.693  0.624  0.406-  35 1.88  22 1.99  40 2.08  16 2.31
  75  0.873  0.462  0.408-  39 1.88  28 1.97  22 1.99
  76  0.053  0.823  0.417-  27 1.92  36 1.98  22 2.10   6 2.26
  77  0.212  0.624  0.104-  37 1.93  38 1.93  21 2.12   1 2.35
  78  0.393  0.479  0.088-  38 1.89  33 1.95  19 2.07  11 2.34
  79  0.544  0.805  0.104-  29 1.95  38 1.98  23 2.14  10 2.34   1 2.37
  80  0.196  0.465  0.593-  39 1.96  32 1.96  24 2.07  13 2.19
  81  0.389  0.821  0.588-  36 1.91  31 1.94  24 1.99  14 2.22
  82  0.543  0.635  0.594-  35 1.92  40 1.94  24 2.02  13 2.32   7 2.33
  83  0.209  0.482  0.901-  37 1.92  38 2.03  19 2.05  13 2.31
  84  0.390  0.800  0.919-  38 1.87  29 1.91  21 2.12  14 2.15
  85  0.525  0.619  0.903-  33 1.87  38 1.97  23 2.10  13 2.38
  86  0.194  0.658  0.400-  36 1.90  39 2.12  24 2.21   1 2.29
  87  0.372  0.462  0.404-  35 1.92  32 1.94  24 2.10  11 2.26
  88  0.543  0.811  0.409-  40 1.94  31 1.95  24 1.96   1 2.36
 
  LATTYP: Found a hexagonal cell.
 ALAT       =    10.0190000534
 C/A-ratio  =     1.1196726572
  
  Lattice vectors:
  
 A1 = (  10.0190000534,   0.0000000000,   0.0000000000)
 A2 = (  -5.0095000267,   8.6767085668,   0.0000000000)
 A3 = (   0.0000000000,   0.0000000000,  11.2180004120)


Analysis of symmetry for initial positions (statically):
=====================================================================
 Subroutine PRICEL returns:
 Original cell was already a primitive cell.
 

 Routine SETGRP: Setting up the symmetry group for a 
 hexagonal supercell.


 Subroutine GETGRP returns: Found  1 space group operations
 (whereof  1 operations were pure point group operations)
 out of a pool of 24 trial point group operations.


The static configuration has the point symmetry C_1 .


Analysis of symmetry for dynamics (positions and initial velocities):
=====================================================================
 Subroutine PRICEL returns:
 Original cell was already a primitive cell.
 

 Routine SETGRP: Setting up the symmetry group for a 
 hexagonal supercell.


 Subroutine GETGRP returns: Found  1 space group operations
 (whereof  1 operations were pure point group operations)
 out of a pool of 24 trial point group operations.


The dynamic configuration has the point symmetry C_1 .


Analysis of structural, dynamic, and magnetic symmetry:
=====================================================================
 Subroutine PRICEL returns:
 Original cell was already a primitive cell.
 

 Routine SETGRP: Setting up the symmetry group for a 
 hexagonal supercell.


 Subroutine GETGRP returns: Found  1 space group operations
 (whereof  1 operations were pure point group operations)
 out of a pool of 24 trial point group operations.


The magnetic configuration has the point symmetry C_1 .


 Subroutine INISYM returns: Found  1 space group operations
 (whereof  1 operations are pure point group operations),
 and found     1 'primitive' translations

 
 

Automatic generation of k-mesh.
 generate k-points for:    2    2    2
Space group operators:
 irot       det(A)        alpha          n_x          n_y          n_z        tau_x        tau_y        tau_z
    1     1.000000     0.000000     1.000000     0.000000     0.000000     0.000000     0.000000     0.000000
 
 Subroutine IBZKPT returns following result:
 ===========================================
 
 Found      8 irreducible k-points:
 
 Following reciprocal coordinates:
            Coordinates               Weight
  0.000000  0.000000  0.000000      1.000000
  0.500000 -0.000000 -0.000000      1.000000
  0.000000  0.500000  0.000000      1.000000
  0.500000  0.500000 -0.000000      1.000000
  0.000000  0.000000  0.500000      1.000000
  0.500000 -0.000000  0.500000      1.000000
  0.000000  0.500000  0.500000      1.000000
  0.500000  0.500000  0.500000      1.000000
 
 Following cartesian coordinates:
            Coordinates               Weight
  0.000000  0.000000  0.000000      1.000000
  0.049905  0.028813 -0.000000      1.000000
  0.000000  0.057626  0.000000      1.000000
  0.049905  0.086438 -0.000000      1.000000
  0.000000  0.000000  0.044571      1.000000
  0.049905  0.028813  0.044571      1.000000
  0.000000  0.057626  0.044571      1.000000
  0.049905  0.086438  0.044571      1.000000
 


--------------------------------------------------------------------------------------------------------




 Dimension of arrays:
   k-points           NKPTS =      8   k-points in BZ     NKDIM =      8   number of bands    NBANDS=    448
   number of dos      NEDOS =    301   number of ions     NIONS =     88
   non local maximal  LDIM  =      6   non local SUM 2l+1 LMDIM =     18
   total plane-waves  NPLWV = 140000
   max r-space proj   IRMAX =   1632   max aug-charges    IRDMAX=   4555
   dimension x,y,z NGX =    50 NGY =   50 NGZ =   56
   dimension x,y,z NGXF=   100 NGYF=  100 NGZF=  112
   support grid    NGXF=   100 NGYF=  100 NGZF=  112
   ions per type =              16   8  16  48
   NGX,Y,Z   is equivalent  to a cutoff of   8.30,  8.30,  8.30 a.u.
   NGXF,Y,Z  is equivalent  to a cutoff of  16.59, 16.59, 16.60 a.u.

 SYSTEM =  unknown system                          
 POSCAR =  Na Mg Mn  O                             

 Startparameter for this run:
   NWRITE =      2    write-flag & timer
   PREC   = normal    normal or accurate (medium, high low for compatibility)
   ISTART =      0    job   : 0-new  1-cont  2-samecut
   ICHARG =      1    charge: 1-file 2-atom 10-const
   ISPIN  =      2    spin polarized calculation?
   LNONCOLLINEAR =      F non collinear calculations
   LSORBIT =      F    spin-orbit coupling
   INIWAV =      1    electr: 0-lowe 1-rand  2-diag
   LASPH  =      T    aspherical Exc in radial PAW
   METAGGA=      F    non-selfconsistent MetaGGA calc.

 Electronic Relaxation 1
   ENCUT  =  400.0 eV  29.40 Ry    5.42 a.u.  16.34 16.34 18.29*2*pi/ulx,y,z
   ENINI  =  400.0     initial cutoff
   ENAUG  =  758.8 eV  augmentation charge cutoff
   NELM   =    200;   NELMIN=  6; NELMDL=-12     # of ELM steps 
   EDIFF  = 0.1E-04   stopping-criterion for ELM
   LREAL  =      T    real-space projection
   NLSPLINE    = F    spline interpolate recip. space projectors
   LCOMPAT=      F    compatible to vasp.4.4
   GGA_COMPAT  = T    GGA compatible to vasp.4.4-vasp.4.6
   LMAXPAW     = -100 max onsite density
   LMAXMIX     =    4 max onsite mixed and CHGCAR
   VOSKOWN=      0    Vosko Wilk Nusair interpolation
   ROPT   =   -0.00050  -0.00050  -0.00050  -0.00050
 Ionic relaxation
   EDIFFG = 0.1E-03   stopping-criterion for IOM
   NSW    =      1    number of steps for IOM
   NBLOCK =      1;   KBLOCK =      1    inner block; outer block 
   IBRION =     -1    ionic relax: 0-MD 1-quasi-New 2-CG
   NFREE  =      0    steps in history (QN), initial steepest desc. (CG)
   ISIF   =      2    stress and relaxation
   IWAVPR =     10    prediction:  0-non 1-charg 2-wave 3-comb
   ISYM   =      2    0-nonsym 1-usesym 2-fastsym
   LCORR  =      T    Harris-Foulkes like correction to forces

   POTIM  = 0.5000    time-step for ionic-motion
   TEIN   =    0.0    initial temperature
   TEBEG  =    0.0;   TEEND  =   0.0 temperature during run
   SMASS  =  -3.00    Nose mass-parameter (am)
   estimated Nose-frequenzy (Omega)   =  0.10E-29 period in steps =****** mass=  -0.229E-26a.u.
   SCALEE = 1.0000    scale energy and forces
   NPACO  =    256;   APACO  = 16.0  distance and # of slots for P.C.
   PSTRESS=    0.0 pullay stress

  Mass of Ions in am
   POMASS =  22.99 24.30 54.94 16.00
  Ionic Valenz
   ZVAL   =   7.00  8.00 13.00  6.00
  Atomic Wigner-Seitz radii
   RWIGS  =  -1.00 -1.00 -1.00 -1.00
  virtual crystal weights 
   VCA    =   1.00  1.00  1.00  1.00
   NELECT =     672.0000    total number of electrons
   NUPDOWN=      48.0000    fix difference up-down

 DOS related values:
   EMIN   =  10.00;   EMAX   =-10.00  energy-range for DOS
   EFERMI =   0.00
   ISMEAR =     0;   SIGMA  =   0.05  broadening in eV -4-tet -1-fermi 0-gaus

 Electronic relaxation 2 (details)
   IALGO  =     48    algorithm
   LDIAG  =      T    sub-space diagonalisation (order eigenvalues)
   LSUBROT=      F    optimize rotation matrix (better conditioning)
   TURBO    =      0    0=normal 1=particle mesh
   IRESTART =      0    0=no restart 2=restart with 2 vectors
   NREBOOT  =      0    no. of reboots
   NMIN     =      0    reboot dimension
   EREF     =   0.00    reference energy to select bands
   IMIX   =      4    mixing-type and parameters
     AMIX     =   0.40;   BMIX     =  1.00
     AMIX_MAG =   1.60;   BMIX_MAG =  1.00
     AMIN     =   0.10
     WC   =   100.;   INIMIX=   1;  MIXPRE=   1;  MAXMIX= -45

 Intra band minimization:
   WEIMIN = 0.0000     energy-eigenvalue tresh-hold
   EBREAK =  0.56E-08  absolut break condition
   DEPER  =   0.30     relativ break condition  

   TIME   =   0.40     timestep for ELM

  volume/ion in A,a.u.               =      11.08        74.78
  Fermi-wavevector in a.u.,A,eV,Ry     =   1.445993  2.732531 28.448379  2.090897
  Thomas-Fermi vector in A             =   2.564112
 
 Write flags
   LWAVE        =      F    write WAVECAR
   LDOWNSAMPLE  =      F    k-point downsampling of WAVECAR
   LCHARG       =      F    write CHGCAR
   LVTOT        =      F    write LOCPOT, total local potential
   LVHAR        =      F    write LOCPOT, Hartree potential only
   LELF         =      F    write electronic localiz. function (ELF)
   LORBIT       =     11    0 simple, 1 ext, 2 COOP (PROOUT), +10 PAW based schemes


 Dipole corrections
   LMONO  =      F    monopole corrections only (constant potential shift)
   LDIPOL =      F    correct potential (dipole corrections)
   IDIPOL =      0    1-x, 2-y, 3-z, 4-all directions 
   EPSILON=  1.0000000 bulk dielectric constant

 Exchange correlation treatment:
   GGA     =    --    GGA type
   LEXCH   =     8    internal setting for exchange type
   VOSKOWN=      0    Vosko Wilk Nusair interpolation
   LHFCALC =     F    Hartree Fock is set to
   LHFONE  =     F    Hartree Fock one center treatment
   AEXX    =    0.0000 exact exchange contribution

 Linear response parameters
   LEPSILON=     F    determine dielectric tensor
   LRPA    =     F    only Hartree local field effects (RPA)
   LNABLA  =     F    use nabla operator in PAW spheres
   LVEL    =     F    velocity operator in full k-point grid
   LINTERFAST=   F  fast interpolation
   KINTER  =     0    interpolate to denser k-point grid
   CSHIFT  =0.1000    complex shift for real part using Kramers Kronig
   OMEGAMAX=  -1.0    maximum frequency
   DEG_THRESHOLD= 0.2000000E-02 threshold for treating states as degnerate
   RTIME   =   -0.100 relaxation time in fs
  (WPLASMAI=    0.000 imaginary part of plasma frequency in eV, 0.658/RTIME)
   DFIELD  = 0.0000000 0.0000000 0.0000000 field for delta impulse in time
 
 Orbital magnetization related:
   ORBITALMAG=     F  switch on orbital magnetization
   LCHIMAG   =     F  perturbation theory with respect to B field
   DQ        =  0.001000  dq finite difference perturbation B field
   LLRAUG    =     F  two centre corrections for induced B field



--------------------------------------------------------------------------------------------------------


 Static calculation
 charge density and potential will be updated during run
 spin polarized calculation
 RMM-DIIS sequential band-by-band
 perform sub-space diagonalisation
    before iterative eigenvector-optimisation
 modified Broyden-mixing scheme, WC =      100.0
 initial mixing is a Kerker type mixing with AMIX =  0.4000 and BMIX =      1.0000
 Hartree-type preconditioning will be used
 using additional bands          112
 real space projection scheme for non local part
 use partial core corrections
 calculate Harris-corrections to forces 
   (improved forces if not selfconsistent)
 use gradient corrections 
 use of overlap-Matrix (Vanderbilt PP)
 Gauss-broadening in eV      SIGMA  =   0.05


--------------------------------------------------------------------------------------------------------


  energy-cutoff  :      400.00
  volume of cell :      975.20
      direct lattice vectors                 reciprocal lattice vectors
    10.019000053  0.000000000  0.000000000     0.099810360  0.057625538 -0.000000000
    -5.009500027  8.676708567  0.000000000     0.000000000  0.115251076  0.000000000
     0.000000000  0.000000000 11.218000412     0.000000000  0.000000000  0.089142446

  length of vectors
    10.019000053 10.019000053 11.218000412     0.115251076  0.115251076  0.089142446


 
 k-points in units of 2pi/SCALE and weight: read from INCAR                         
   0.00000000  0.00000000  0.00000000       0.125
   0.04990518  0.02881277 -0.00000000       0.125
   0.00000000  0.05762554  0.00000000       0.125
   0.04990518  0.08643831 -0.00000000       0.125
   0.00000000  0.00000000  0.04457122       0.125
   0.04990518  0.02881277  0.04457122       0.125
   0.00000000  0.05762554  0.04457122       0.125
   0.04990518  0.08643831  0.04457122       0.125
 
 k-points in reciprocal lattice and weights: read from INCAR                         
   0.00000000  0.00000000  0.00000000       0.125
   0.50000000 -0.00000000 -0.00000000       0.125
   0.00000000  0.50000000  0.00000000       0.125
   0.50000000  0.50000000 -0.00000000       0.125
   0.00000000  0.00000000  0.50000000       0.125
   0.50000000 -0.00000000  0.50000000       0.125
   0.00000000  0.50000000  0.50000000       0.125
   0.50000000  0.50000000  0.50000000       0.125
 
 position of ions in fractional coordinates (direct lattice) 
   0.37220058  0.78903636  0.25491976
   0.22452557  0.13702398  0.75085128
   0.86390614  0.04424505  0.74705114
   0.59675103  0.29108866  0.75352377
   0.08445303  0.99618223  0.24778034
   0.00479666  0.66018319  0.26263148
   0.70508925  0.63719916  0.74390709
   0.03162638  0.77599455  0.74475840
   0.87696914  0.29344521  0.24634604
   0.71794569  0.83420458  0.25559190
   0.21458350  0.39828368  0.24427972
   0.01571705  0.45783194  0.75305043
   0.35770211  0.49969409  0.73796396
   0.49995414  0.92944214  0.76029593
   0.52358626  0.13758114  0.24552861
   0.54785261  0.46764853  0.25034943
   0.71267108  0.30353561  0.00623697
   0.37660681  0.13961746  0.49608663
   0.22075356  0.30661281  0.98562129
   0.87791773  0.14258863  0.48903190
   0.20059787  0.79807567  0.00406438
   0.86641230  0.63054094  0.49769030
   0.71350040  0.80370107  0.98803967
   0.37557952  0.64324507  0.50013191
   0.05014422  0.97155505  0.99581912
   0.37818407  0.14083566  0.99103120
   0.04050838  0.98061973  0.50532179
   0.70197552  0.30405885  0.50334282
   0.54237194  0.96737489  0.01002656
   0.87614497  0.13405659  0.00522371
   0.54940853  0.98485359  0.49315384
   0.21215410  0.30516756  0.50407201
   0.54337870  0.46623440  0.98514780
   0.86729405  0.62308996  0.99571831
   0.53606652  0.47111298  0.49995987
   0.21467751  0.81158079  0.51067212
   0.05143237  0.47476413  0.00258175
   0.37916445  0.63798155  0.00850685
   0.03161532  0.46311686  0.49765643
   0.70191223  0.80516592  0.50357192
   0.22536449  0.13133782  0.08695926
   0.37883058  0.98301499  0.09229185
   0.53207502  0.30363703  0.08766607
   0.19736499  0.96683897  0.60114813
   0.37476951  0.31957395  0.59661702
   0.55799661  0.13614494  0.59556514
   0.20635014  0.97623557  0.90101619
   0.39058398  0.30252140  0.89396502
   0.53313421  0.11811391  0.90870027
   0.20103816  0.14521636  0.40877428
   0.38611943  0.96786817  0.40514083
   0.53915173  0.31412142  0.41036012
   0.70837222  0.12975773  0.10022018
   0.88436653  0.96508999  0.09177037
   0.03449374  0.29315955  0.09106614
   0.69615072  0.95491049  0.59028702
   0.85996862  0.30909186  0.59241574
   0.05123907  0.15724050  0.59124262
   0.70702799  0.97898062  0.90727399
   0.88169360  0.29785373  0.91442321
   0.02559551  0.11079178  0.90617754
   0.69265390  0.13942499  0.39998840
   0.87292596  0.95231964  0.40803974
   0.04654395  0.31647946  0.39510785
   0.71115953  0.61824481  0.08709012
   0.88456692  0.47936841  0.10046086
   0.04123518  0.81182858  0.09109199
   0.69533876  0.46927818  0.59749775
   0.87279595  0.82542821  0.59948830
   0.04571255  0.62357402  0.59572381
   0.71065523  0.47725816  0.90346761
   0.87848094  0.78596278  0.90276338
   0.03200952  0.62122635  0.91846137
   0.69296521  0.62435542  0.40628274
   0.87277219  0.46196319  0.40802815
   0.05290254  0.82299641  0.41733641
   0.21221015  0.62437040  0.10371010
   0.39270842  0.47874951  0.08793216
   0.54427204  0.80461156  0.10391692
   0.19618032  0.46485830  0.59312264
   0.38946713  0.82148201  0.58848723
   0.54331014  0.63475683  0.59415669
   0.20926746  0.48176679  0.90118556
   0.38969750  0.79981481  0.91855942
   0.52542655  0.61868622  0.90287035
   0.19387667  0.65817354  0.40014350
   0.37244400  0.46163819  0.40416294
   0.54268378  0.81123043  0.40924495
 
 position of ions in cartesian coordinates  (Angst):
  -0.22360008  6.84623857  2.85969000
   1.56310011  1.18891713  8.42305000
   8.43383008  0.38390143  8.38042000
   4.52063997  2.52569143  8.45303000
  -4.14424000  8.64358287  2.77960000
  -3.25913000  5.72821713  2.94620000
   3.87223997  5.52879143  8.34515000
  -3.57048003  6.73307857  8.35470000
   7.31634003  2.54613857  2.76351000
   3.01415005  7.23815000  2.86723000
   0.15471003  3.45579143  2.74033000
  -2.13603997  3.97247430  8.44772000
   1.08059989  4.33570000  8.27848000
   0.35300013  8.06449857  8.52900000
   4.55659803  1.19375143  2.75434000
   3.14625005  4.05765000  2.80842000
   5.61969000  2.63369000  0.06996630
   3.07381000  1.21142000  5.56510000
   0.67575300  2.66039000 11.05670000
   8.08156000  1.23720000  5.48596000
  -1.98817000  6.92467000  0.04559420
   5.52189000  5.47102000  5.58309000
   3.12242000  6.97348000 11.08382941
   0.54059500  5.58125000  5.61048000
  -4.36461005  8.42990000 11.17109931
   3.08351000  1.22199000 11.11738841
  -4.50656103  8.50855157  5.66870000
   5.50991000  2.63823000  5.64650000
   0.58796000  8.39363000  0.11247800
   8.10654000  1.16317000  0.05859959
   0.57089997  8.54528757  5.53220000
   0.59683500  2.64785000  5.65468000
   3.10851000  4.04538000 11.05138841
   5.56805000  5.40637000 11.16996841
   3.01081000  4.08771000  5.60855000
  -1.91476000  7.04185000  5.72872000
  -1.86303000  4.11939000  0.02896210
   0.60288000  5.53558000  0.09542980
  -2.00323000  4.01833000  5.58271000
   2.99898000  6.98619000  5.64907000
   1.59999000  1.13958000  0.97550900
  -1.12891003  8.52933457  1.03533000
   3.80979000  2.63457000  0.98343800
  -2.86598000  8.38898000  6.74368000
   2.15391000  2.77285000  6.69285000
   4.90855000  1.18129000  6.68105000
  -2.82303003  8.47051157 10.10760000
   2.39778000  2.62489000 10.02850000
   4.74978000  1.02484000 10.19380000
   1.28674000  1.26000000  4.58563000
  -0.98000500  8.39791000  4.54487000
   3.82817000  2.72554000  4.60342000
   6.44716000  1.12587000  1.12427000
   4.02584997  8.37380457  1.02948000
  -1.12299005  2.54366000  1.02158000
   2.19111000  8.28548000  6.62184000
   7.06763000  2.68190000  6.64572000
  -0.27433200  1.36433000  6.63256000
   2.17950997  8.49432957 10.17780000
   7.34159000  2.58439000 10.25800000
  -0.29857005  0.96130800 10.16550000
   6.24125000  1.20975000  4.48707000
   3.97520000  8.26300000  4.57739000
  -1.11908000  2.74600000  4.43232000
   4.02801000  5.36433000  0.97697700
   6.46108000  4.15934000  1.12697000
  -3.65372005  7.04400000  1.02187000
   4.61575000  4.07179000  6.70273000
   4.60956000  7.16200000  6.72506000
  -2.66580000  5.41057000  6.68283000
   4.72923000  4.14103000 10.13510000
   4.86422000  6.81957000 10.12720000
  -2.79133005  5.39020000 10.30330000
   3.81511000  5.41735000  4.55768000
   6.43010000  4.00832000  4.57726000
  -3.59277000  7.14090000  4.68168000
  -1.00165000  5.41748000  1.16342000
   1.53625000  4.15397000  0.98642300
   1.42236000  6.98138000  1.16574000
  -0.36317700  4.03344000  6.65365000
  -0.21314300  7.12776000  6.60165000
   2.26361000  5.50760000  6.66525000
  -0.31676000  4.18015000 10.10950000
  -0.10229300  6.93976000 10.30440000
   2.16494000  5.36816000 10.12840000
  -1.35467000  5.71078000  4.48881000
   1.41894000  4.00550000  4.53390000
   1.37329000  7.03881000  4.59091000
 


--------------------------------------------------------------------------------------------------------


 k-point  1 :   0.0000 0.0000 0.0000  plane waves:   17725
 k-point  2 :   0.5000-0.0000-0.0000  plane waves:   17736
 k-point  3 :   0.0000 0.5000 0.0000  plane waves:   17736
 k-point  4 :   0.5000 0.5000-0.0000  plane waves:   17736
 k-point  5 :   0.0000 0.0000 0.5000  plane waves:   17676
 k-point  6 :   0.5000-0.0000 0.5000  plane waves:   17700
 k-point  7 :   0.0000 0.5000 0.5000  plane waves:   17700
 k-point  8 :   0.5000 0.5000 0.5000  plane waves:   17700

 maximum and minimum number of plane-waves per node :     17736    17676

 maximum number of plane-waves:     17736
 maximum index in each direction: 
   IXMAX=   16   IYMAX=   16   IZMAX=   18
   IXMIN=  -16   IYMIN=  -16   IZMIN=  -18


 serial   3D FFT for wavefunctions
 parallel 3D FFT for charge:
    minimum data exchange during FFTs selected (reduces bandwidth)


 total amount of memory used by VASP MPI-rank0    88189. kBytes
=======================================================================

   base      :      30000. kBytes
   nonlr-proj:      13680. kBytes
   fftplans  :        992. kBytes
   grid      :      21513. kBytes
   one-center:       2737. kBytes
   wavefun   :      19267. kBytes
 
     INWAV:  cpu time    0.0000: real time    0.0001
 Broyden mixing: mesh for mixing (old mesh)
   NGX = 33   NGY = 33   NGZ = 37
  (NGX  =100   NGY  =100   NGZ  =112)
  gives a total of  40293 points

 initial charge density was supplied:
 charge density of overlapping atoms calculated
 number of electron     672.0000000 magnetization      48.0000000
 keeping initial charge density in first step


--------------------------------------------------------------------------------------------------------


 Maximum index for non-local projection operator         1547
 Maximum index for augmentation-charges          267 (set IRDMAX)


--------------------------------------------------------------------------------------------------------


 First call to EWALD:  gamma=   0.179
 Maximum number of real-space cells 3x 3x 2
 Maximum number of reciprocal cells 3x 3x 3

    FEWALD:  cpu time    0.0029: real time    0.0034


--------------------------------------- Iteration      1(   1)  ---------------------------------------


    POTLOK:  cpu time    0.2083: real time    0.2096
    SETDIJ:  cpu time    3.1179: real time    3.1201
    EDDIAG:  cpu time    3.7027: real time    3.7094
  RMM-DIIS:  cpu time    6.6118: real time    6.6174
    ORTHCH:  cpu time    1.1371: real time    1.1396
       DOS:  cpu time    0.0019: real time    0.0020
    --------------------------------------------
      LOOP:  cpu time   14.7797: real time   14.7981

 eigenvalue-minimisations  :  7168
 total energy-change (2. order) : 0.1815801E+04  (-0.3592698E+05)
 number of electron     672.0000000 magnetization      48.0000000
 augmentation part      672.0000000 magnetization      48.0000000

 Free energy of the ion-electron system (eV)
  ---------------------------------------------------
  alpha Z        PSCENC =      2652.81237852
  Ewald energy   TEWEN  =    -42082.57287051
  -Hartree energ DENC   =    -25544.38857568
  -exchange      EXHF   =         0.00000000
  -V(xc)+E(xc)   XCENC  =      3605.14004150
  PAW double counting   =     55594.23204139   -59034.67079123
  entropy T*S    EENTRO =        -0.06157287
  eigenvalues    EBANDS =     -7236.88731490
  atomic energy  EATOM  =     73862.19814772
  Solvation  Ediel_sol  =         0.00000000
  ---------------------------------------------------
  free energy    TOTEN  =      1815.80148394 eV

  energy without entropy =     1815.86305681  energy(sigma->0) =     1815.83227038


--------------------------------------------------------------------------------------------------------




--------------------------------------- Iteration      1(   2)  ---------------------------------------


    EDDIAG:  cpu time    3.7795: real time    3.7852
  RMM-DIIS:  cpu time    6.5864: real time    6.6244
    ORTHCH:  cpu time    1.1392: real time    1.1417
       DOS:  cpu time    0.0016: real time    0.0016
    --------------------------------------------
      LOOP:  cpu time   11.5067: real time   11.5530

 eigenvalue-minimisations  :  7168
 total energy-change (2. order) :-0.2655645E+04  (-0.8668593E+04)
 number of electron     672.0000000 magnetization      48.0000000
 augmentation part      672.0000000 magnetization      48.0000000

 Free energy of the ion-electron system (eV)
  ---------------------------------------------------
  alpha Z        PSCENC =      2652.81237852
  Ewald energy   TEWEN  =    -42082.57287051
  -Hartree energ DENC   =    -25544.38857568
  -exchange      EXHF   =         0.00000000
  -V(xc)+E(xc)   XCENC  =      3605.14004150
  PAW double counting   =     55594.23204139   -59034.67079123
  entropy T*S    EENTRO =        -0.05009143
  eigenvalues    EBANDS =     -9892.54346915
  atomic energy  EATOM  =     73862.19814772
  Solvation  Ediel_sol  =         0.00000000
  ---------------------------------------------------
  free energy    TOTEN  =      -839.84318887 eV

  energy without entropy =     -839.79309744  energy(sigma->0) =     -839.81814315


--------------------------------------------------------------------------------------------------------




--------------------------------------- Iteration      1(   3)  ---------------------------------------


    EDDIAG:  cpu time    3.7356: real time    3.7398
  RMM-DIIS:  cpu time    6.6005: real time    6.6079
    ORTHCH:  cpu time    1.1424: real time    1.1449
       DOS:  cpu time    0.0017: real time    0.0017
    --------------------------------------------
      LOOP:  cpu time   11.4802: real time   11.4943

 eigenvalue-minimisations  :  7168
 total energy-change (2. order) : 0.3033766E+03  (-0.1558608E+04)
 number of electron     672.0000000 magnetization      48.0000000
 augmentation part      672.0000000 magnetization      48.0000000

 Free energy of the ion-electron system (eV)
  ---------------------------------------------------
  alpha Z        PSCENC =      2652.81237852
  Ewald energy   TEWEN  =    -42082.57287051
  -Hartree energ DENC   =    -25544.38857568
  -exchange      EXHF   =         0.00000000
  -V(xc)+E(xc)   XCENC  =      3605.14004150
  PAW double counting   =     55594.23204139   -59034.67079123
  entropy T*S    EENTRO =        -0.04163651
  eigenvalues    EBANDS =     -9589.17535871
  atomic energy  EATOM  =     73862.19814772
  Solvation  Ediel_sol  =         0.00000000
  ---------------------------------------------------
  free energy    TOTEN  =      -536.46662350 eV

  energy without entropy =     -536.42498700  energy(sigma->0) =     -536.44580525


--------------------------------------------------------------------------------------------------------




--------------------------------------- Iteration      1(   4)  ---------------------------------------


    EDDIAG:  cpu time    3.7252: real time    3.7304
  RMM-DIIS:  cpu time    6.5969: real time    6.6048
    ORTHCH:  cpu time    1.2066: real time    1.2093
       DOS:  cpu time    0.0012: real time    0.0012
    --------------------------------------------
      LOOP:  cpu time   11.5299: real time   11.5457

 eigenvalue-minimisations  :  7168
 total energy-change (2. order) :-0.5229487E+03  (-0.5054745E+03)
 number of electron     672.0000000 magnetization      48.0000000
 augmentation part      672.0000000 magnetization      48.0000000

 Free energy of the ion-electron system (eV)
  ---------------------------------------------------
  alpha Z        PSCENC =      2652.81237852
  Ewald energy   TEWEN  =    -42082.57287051
  -Hartree energ DENC   =    -25544.38857568
  -exchange      EXHF   =         0.00000000
  -V(xc)+E(xc)   XCENC  =      3605.14004150
  PAW double counting   =     55594.23204139   -59034.67079123
  entropy T*S    EENTRO =        -0.00000011
  eigenvalues    EBANDS =    -10112.16574349
  atomic energy  EATOM  =     73862.19814772
  Solvation  Ediel_sol  =         0.00000000
  ---------------------------------------------------
  free energy    TOTEN  =     -1059.41537189 eV

  energy without entropy =    -1059.41537178  energy(sigma->0) =    -1059.41537183


--------------------------------------------------------------------------------------------------------




--------------------------------------- Iteration      1(   5)  ---------------------------------------


    EDDIAG:  cpu time    3.7337: real time    3.7992
  RMM-DIIS:  cpu time    6.5964: real time    6.6021
    ORTHCH:  cpu time    1.1565: real time    1.1594
       DOS:  cpu time    0.0010: real time    0.0010
    --------------------------------------------
      LOOP:  cpu time   11.4876: real time   11.5617

 eigenvalue-minimisations  :  7168
 total energy-change (2. order) :-0.1462074E+03  (-0.2117899E+03)
 number of electron     672.0000000 magnetization      48.0000000
 augmentation part      672.0000000 magnetization      48.0000000

 Free energy of the ion-electron system (eV)
  ---------------------------------------------------
  alpha Z        PSCENC =      2652.81237852
  Ewald energy   TEWEN  =    -42082.57287051
  -Hartree energ DENC   =    -25544.38857568
  -exchange      EXHF   =         0.00000000
  -V(xc)+E(xc)   XCENC  =      3605.14004150
  PAW double counting   =     55594.23204139   -59034.67079123
  entropy T*S    EENTRO =        -0.00000000
  eigenvalues    EBANDS =    -10258.37311158
  atomic energy  EATOM  =     73862.19814772
  Solvation  Ediel_sol  =         0.00000000
  ---------------------------------------------------
  free energy    TOTEN  =     -1205.62273987 eV

  energy without entropy =    -1205.62273987  energy(sigma->0) =    -1205.62273987


--------------------------------------------------------------------------------------------------------




--------------------------------------- Iteration      1(   6)  ---------------------------------------


    EDDIAG:  cpu time    3.7143: real time    3.7188
  RMM-DIIS:  cpu time    6.5962: real time    6.6027
    ORTHCH:  cpu time    1.1377: real time    1.1402
       DOS:  cpu time    0.0013: real time    0.0013
    --------------------------------------------
      LOOP:  cpu time   11.4494: real time   11.4630

 eigenvalue-minimisations  :  7168
 total energy-change (2. order) :-0.2171897E+02  (-0.1149663E+03)
 number of electron     672.0000000 magnetization      48.0000000
 augmentation part      672.0000000 magnetization      48.0000000

 Free energy of the ion-electron system (eV)
  ---------------------------------------------------
  alpha Z        PSCENC =      2652.81237852
  Ewald energy   TEWEN  =    -42082.57287051
  -Hartree energ DENC   =    -25544.38857568
  -exchange      EXHF   =         0.00000000
  -V(xc)+E(xc)   XCENC  =      3605.14004150
  PAW double counting   =     55594.23204139   -59034.67079123
  entropy T*S    EENTRO =        -0.00000000
  eigenvalues    EBANDS =    -10280.09208245
  atomic energy  EATOM  =     73862.19814772
  Solvation  Ediel_sol  =         0.00000000
  ---------------------------------------------------
  free energy    TOTEN  =     -1227.34171074 eV

  energy without entropy =    -1227.34171074  energy(sigma->0) =    -1227.34171074


--------------------------------------------------------------------------------------------------------




--------------------------------------- Iteration      1(   7)  ---------------------------------------


    EDDIAG:  cpu time    3.7359: real time    3.7411
  RMM-DIIS:  cpu time    6.6238: real time    6.6443
    ORTHCH:  cpu time    1.1475: real time    1.1528
       DOS:  cpu time    0.0011: real time    0.0011
    --------------------------------------------
      LOOP:  cpu time   11.5084: real time   11.5394

 eigenvalue-minimisations  :  7168
 total energy-change (2. order) :-0.6435205E+01  (-0.7575789E+02)
 number of electron     672.0000000 magnetization      48.0000000
 augmentation part      672.0000000 magnetization      48.0000000

 Free energy of the ion-electron system (eV)
  ---------------------------------------------------
  alpha Z        PSCENC =      2652.81237852
  Ewald energy   TEWEN  =    -42082.57287051
  -Hartree energ DENC   =    -25544.38857568
  -exchange      EXHF   =         0.00000000
  -V(xc)+E(xc)   XCENC  =      3605.14004150
  PAW double counting   =     55594.23204139   -59034.67079123
  entropy T*S    EENTRO =        -0.00000000
  eigenvalues    EBANDS =    -10286.52728752
  atomic energy  EATOM  =     73862.19814772
  Solvation  Ediel_sol  =         0.00000000
  ---------------------------------------------------
  free energy    TOTEN  =     -1233.77691580 eV

  energy without entropy =    -1233.77691580  energy(sigma->0) =    -1233.77691580


--------------------------------------------------------------------------------------------------------




--------------------------------------- Iteration      1(   8)  ---------------------------------------


    EDDIAG:  cpu time    3.7303: real time    3.7325
  RMM-DIIS:  cpu time    6.6075: real time    6.6120
    ORTHCH:  cpu time    1.1381: real time    1.1406
       DOS:  cpu time    0.0014: real time    0.0014
    --------------------------------------------
      LOOP:  cpu time   11.4772: real time   11.4864

 eigenvalue-minimisations  :  7168
 total energy-change (2. order) : 0.4639810E+01  (-0.5239066E+02)
 number of electron     672.0000000 magnetization      48.0000000
 augmentation part      672.0000000 magnetization      48.0000000

 Free energy of the ion-electron system (eV)
  ---------------------------------------------------
  alpha Z        PSCENC =      2652.81237852
  Ewald energy   TEWEN  =    -42082.57287051
  -Hartree energ DENC   =    -25544.38857568
  -exchange      EXHF   =         0.00000000
  -V(xc)+E(xc)   XCENC  =      3605.14004150
  PAW double counting   =     55594.23204139   -59034.67079123
  entropy T*S    EENTRO =        -0.00091264
  eigenvalues    EBANDS =    -10281.88656486
  atomic energy  EATOM  =     73862.19814772
  Solvation  Ediel_sol  =         0.00000000
  ---------------------------------------------------
  free energy    TOTEN  =     -1229.13710578 eV

  energy without entropy =    -1229.13619314  energy(sigma->0) =    -1229.13664946


--------------------------------------------------------------------------------------------------------




--------------------------------------- Iteration      1(   9)  ---------------------------------------


    EDDIAG:  cpu time    3.7198: real time    3.7223
  RMM-DIIS:  cpu time   13.8656: real time   13.8815
    ORTHCH:  cpu time    1.1333: real time    1.1355
       DOS:  cpu time    0.0011: real time    0.0011
    --------------------------------------------
      LOOP:  cpu time   18.7198: real time   18.7403

 eigenvalue-minimisations  : 20256
 total energy-change (2. order) : 0.1792988E+02  (-0.2347459E+02)
 number of electron     672.0000000 magnetization      48.0000000
 augmentation part      672.0000000 magnetization      48.0000000

 Free energy of the ion-electron system (eV)
  ---------------------------------------------------
  alpha Z        PSCENC =      2652.81237852
  Ewald energy   TEWEN  =    -42082.57287051
  -Hartree energ DENC   =    -25544.38857568
  -exchange      EXHF   =         0.00000000
  -V(xc)+E(xc)   XCENC  =      3605.14004150
  PAW double counting   =     55594.23204139   -59034.67079123
  entropy T*S    EENTRO =        -0.00000000
  eigenvalues    EBANDS =    -10263.95759352
  atomic energy  EATOM  =     73862.19814772
  Solvation  Ediel_sol  =         0.00000000
  ---------------------------------------------------
  free energy    TOTEN  =     -1211.20722181 eV

  energy without entropy =    -1211.20722181  energy(sigma->0) =    -1211.20722181


--------------------------------------------------------------------------------------------------------




--------------------------------------- Iteration      1(  10)  ---------------------------------------


    EDDIAG:  cpu time    3.7679: real time    3.7703
  RMM-DIIS:  cpu time   15.4577: real time   15.4649
    ORTHCH:  cpu time    1.1446: real time    1.1467
       DOS:  cpu time    0.0011: real time    0.0011
    --------------------------------------------
      LOOP:  cpu time   20.3714: real time   20.3831

 eigenvalue-minimisations  : 20164
 total energy-change (2. order) :-0.3094948E+01  (-0.1034297E+01)
 number of electron     672.0000000 magnetization      48.0000000
 augmentation part      672.0000000 magnetization      48.0000000

 Free energy of the ion-electron system (eV)
  ---------------------------------------------------
  alpha Z        PSCENC =      2652.81237852
  Ewald energy   TEWEN  =    -42082.57287051
  -Hartree energ DENC   =    -25544.38857568
  -exchange      EXHF   =         0.00000000
  -V(xc)+E(xc)   XCENC  =      3605.14004150
  PAW double counting   =     55594.23204139   -59034.67079123
  entropy T*S    EENTRO =        -0.00000008
  eigenvalues    EBANDS =    -10267.05254183
  atomic energy  EATOM  =     73862.19814772
  Solvation  Ediel_sol  =         0.00000000
  ---------------------------------------------------
  free energy    TOTEN  =     -1214.30217020 eV

  energy without entropy =    -1214.30217011  energy(sigma->0) =    -1214.30217016


--------------------------------------------------------------------------------------------------------




--------------------------------------- Iteration      1(  11)  ---------------------------------------


    EDDIAG:  cpu time    3.7771: real time    3.7811
  RMM-DIIS:  cpu time   15.1102: real time   15.1363
    ORTHCH:  cpu time    1.1409: real time    1.1432
       DOS:  cpu time    0.0013: real time    0.0013
    --------------------------------------------
      LOOP:  cpu time   20.0294: real time   20.0618

 eigenvalue-minimisations  : 21752
 total energy-change (2. order) : 0.1026416E+00  (-0.9773848E-01)
 number of electron     672.0000000 magnetization      48.0000000
 augmentation part      672.0000000 magnetization      48.0000000

 Free energy of the ion-electron system (eV)
  ---------------------------------------------------
  alpha Z        PSCENC =      2652.81237852
  Ewald energy   TEWEN  =    -42082.57287051
  -Hartree energ DENC   =    -25544.38857568
  -exchange      EXHF   =         0.00000000
  -V(xc)+E(xc)   XCENC  =      3605.14004150
  PAW double counting   =     55594.23204139   -59034.67079123
  entropy T*S    EENTRO =        -0.00000008
  eigenvalues    EBANDS =    -10266.94990022
  atomic energy  EATOM  =     73862.19814772
  Solvation  Ediel_sol  =         0.00000000
  ---------------------------------------------------
  free energy    TOTEN  =     -1214.19952858 eV

  energy without entropy =    -1214.19952851  energy(sigma->0) =    -1214.19952854


--------------------------------------------------------------------------------------------------------




--------------------------------------- Iteration      1(  12)  ---------------------------------------


    EDDIAG:  cpu time    3.7049: real time    3.7074
  RMM-DIIS:  cpu time   15.7670: real time   15.8391
    ORTHCH:  cpu time    1.1693: real time    1.1717
       DOS:  cpu time    0.0013: real time    0.0013
    CHARGE:  cpu time    1.3443: real time    1.3452
    MIXING:  cpu time    0.0013: real time    0.0015
    --------------------------------------------
      LOOP:  cpu time   21.9881: real time   22.0661

 eigenvalue-minimisations  : 22787
 total energy-change (2. order) : 0.6569727E-02  (-0.7029539E-02)
 number of electron     671.9999967 magnetization      48.0000023
 augmentation part      238.9748479 magnetization      29.0240409

 Broyden mixing:
  rms(total) = 0.12460E+02    rms(broyden)= 0.12451E+02
  rms(prec ) = 0.14338E+02
  weight for this iteration     100.00

 Free energy of the ion-electron system (eV)
  ---------------------------------------------------
  alpha Z        PSCENC =      2652.81237852
  Ewald energy   TEWEN  =    -42082.57287051
  -Hartree energ DENC   =    -25544.38857568
  -exchange      EXHF   =         0.00000000
  -V(xc)+E(xc)   XCENC  =      3605.14004150
  PAW double counting   =     55594.23204139   -59034.67079123
  entropy T*S    EENTRO =        -0.00000007
  eigenvalues    EBANDS =    -10266.94333050
  atomic energy  EATOM  =     73862.19814772
  Solvation  Ediel_sol  =         0.00000000
  ---------------------------------------------------
  free energy    TOTEN  =     -1214.19295885 eV

  energy without entropy =    -1214.19295879  energy(sigma->0) =    -1214.19295882


--------------------------------------------------------------------------------------------------------




--------------------------------------- Iteration      1(  13)  ---------------------------------------


    POTLOK:  cpu time    0.1963: real time    0.1971
    SETDIJ:  cpu time    3.2914: real time    3.2922
    EDDIAG:  cpu time    3.7314: real time    3.7348
  RMM-DIIS:  cpu time   12.9552: real time   12.9595
    ORTHCH:  cpu time    1.1521: real time    1.1556
       DOS:  cpu time    0.0015: real time    0.0015
    CHARGE:  cpu time    1.3561: real time    1.3566
    MIXING:  cpu time    0.0008: real time    0.0009
    --------------------------------------------
      LOOP:  cpu time   22.6847: real time   22.6982

 eigenvalue-minimisations  : 17329
 total energy-change (2. order) : 0.2224877E+03  (-0.1397438E+03)
 number of electron     671.9999917 magnetization      48.0000030
 augmentation part      269.4307053 magnetization      26.2960736

 Broyden mixing:
  rms(total) = 0.14104E+02    rms(broyden)= 0.14101E+02
  rms(prec ) = 0.15900E+02
  weight for this iteration     100.00

 eigenvalues of (default mixing * dielectric matrix)
  average eigenvalue GAMMA=   0.3139
  0.3139

 Free energy of the ion-electron system (eV)
  ---------------------------------------------------
  alpha Z        PSCENC =      2652.81237852
  Ewald energy   TEWEN  =    -42082.57287051
  -Hartree energ DENC   =    -24863.66735756
  -exchange      EXHF   =         0.00000000
  -V(xc)+E(xc)   XCENC  =      3695.07207995
  PAW double counting   =     59799.37888046   -63223.99201237
  entropy T*S    EENTRO =        -0.08618554
  eigenvalues    EBANDS =    -10830.84827991
  atomic energy  EATOM  =     73862.19814772
  Solvation  Ediel_sol  =         0.00000000
  ---------------------------------------------------
  free energy    TOTEN  =      -991.70521922 eV

  energy without entropy =     -991.61903368  energy(sigma->0) =     -991.66212645


--------------------------------------------------------------------------------------------------------




--------------------------------------- Iteration      1(  14)  ---------------------------------------


    POTLOK:  cpu time    0.2065: real time    0.2066
    SETDIJ:  cpu time    3.2855: real time    3.2863
    EDDIAG:  cpu time    3.7420: real time    3.7648
  RMM-DIIS:  cpu time   13.5022: real time   13.5112
    ORTHCH:  cpu time    1.1723: real time    1.1748
       DOS:  cpu time    0.0010: real time    0.0010
    CHARGE:  cpu time    1.3459: real time    1.3463
    MIXING:  cpu time    0.0007: real time    0.0007
    --------------------------------------------
      LOOP:  cpu time   23.2561: real time   23.2916

 eigenvalue-minimisations  : 17784
 total energy-change (2. order) : 0.7679214E+02  (-0.1907265E+02)
 number of electron     671.9999946 magnetization      48.0000049
 augmentation part      246.5348956 magnetization      32.1729405

 Broyden mixing:
  rms(total) = 0.52032E+01    rms(broyden)= 0.51985E+01
  rms(prec ) = 0.56364E+01
  weight for this iteration     100.00

 eigenvalues of (default mixing * dielectric matrix)
  average eigenvalue GAMMA=   0.7248
  1.0929  0.3567

 Free energy of the ion-electron system (eV)
  ---------------------------------------------------
  alpha Z        PSCENC =      2652.81237852
  Ewald energy   TEWEN  =    -42082.57287051
  -Hartree energ DENC   =    -25476.96068906
  -exchange      EXHF   =         0.00000000
  -V(xc)+E(xc)   XCENC  =      3672.33578089
  PAW double counting   =     63186.59200501   -66668.12363191
  entropy T*S    EENTRO =        -0.00000000
  eigenvalues    EBANDS =    -10061.19419983
  atomic energy  EATOM  =     73862.19814772
  Solvation  Ediel_sol  =         0.00000000
  ---------------------------------------------------
  free energy    TOTEN  =      -914.91307916 eV

  energy without entropy =     -914.91307916  energy(sigma->0) =     -914.91307916


--------------------------------------------------------------------------------------------------------




--------------------------------------- Iteration      1(  15)  ---------------------------------------


    POTLOK:  cpu time    0.2030: real time    0.2040
    SETDIJ:  cpu time    3.2895: real time    3.2904
    EDDIAG:  cpu time    3.7941: real time    3.7985
  RMM-DIIS:  cpu time   13.5601: real time   13.6280
    ORTHCH:  cpu time    1.1395: real time    1.1420
       DOS:  cpu time    0.0010: real time    0.0010
    CHARGE:  cpu time    1.3472: real time    1.3476
    MIXING:  cpu time    0.0006: real time    0.0006
    --------------------------------------------
      LOOP:  cpu time   23.3351: real time   23.4121

 eigenvalue-minimisations  : 18441
 total energy-change (2. order) : 0.1400530E+02  (-0.2181940E+01)
 number of electron     671.9999940 magnetization      48.0000060
 augmentation part      249.7177282 magnetization      33.8276351

 Broyden mixing:
  rms(total) = 0.21565E+01    rms(broyden)= 0.21561E+01
  rms(prec ) = 0.22358E+01
  weight for this iteration     100.00

 eigenvalues of (default mixing * dielectric matrix)
  average eigenvalue GAMMA=   0.9351
  1.6738  0.3800  0.7513

 Free energy of the ion-electron system (eV)
  ---------------------------------------------------
  alpha Z        PSCENC =      2652.81237852
  Ewald energy   TEWEN  =    -42082.57287051
  -Hartree energ DENC   =    -25390.19747711
  -exchange      EXHF   =         0.00000000
  -V(xc)+E(xc)   XCENC  =      3705.21980073
  PAW double counting   =     67220.60396474   -70742.24537302
  entropy T*S    EENTRO =        -0.00000000
  eigenvalues    EBANDS =    -10126.72635481
  atomic energy  EATOM  =     73862.19814772
  Solvation  Ediel_sol  =         0.00000000
  ---------------------------------------------------
  free energy    TOTEN  =      -900.90778373 eV

  energy without entropy =     -900.90778373  energy(sigma->0) =     -900.90778373


--------------------------------------------------------------------------------------------------------




--------------------------------------- Iteration      1(  16)  ---------------------------------------


    POTLOK:  cpu time    0.2063: real time    0.2069
    SETDIJ:  cpu time    3.3232: real time    3.3241
    EDDIAG:  cpu time    3.7307: real time    3.7333
  RMM-DIIS:  cpu time   13.1124: real time   13.1383
    ORTHCH:  cpu time    1.1409: real time    1.1431
       DOS:  cpu time    0.0010: real time    0.0010
    CHARGE:  cpu time    1.3444: real time    1.3448
    MIXING:  cpu time    0.0009: real time    0.0009
    --------------------------------------------
      LOOP:  cpu time   22.8598: real time   22.8923

 eigenvalue-minimisations  : 17421
 total energy-change (2. order) :-0.1563066E+01  (-0.6877231E+00)
 number of electron     671.9999936 magnetization      48.0000063
 augmentation part      251.1469288 magnetization      33.9349863

 Broyden mixing:
  rms(total) = 0.14745E+01    rms(broyden)= 0.14740E+01
  rms(prec ) = 0.15639E+01
  weight for this iteration     100.00

 eigenvalues of (default mixing * dielectric matrix)
  average eigenvalue GAMMA=   0.9623
  2.0509  0.8980  0.3865  0.5137

 Free energy of the ion-electron system (eV)
  ---------------------------------------------------
  alpha Z        PSCENC =      2652.81237852
  Ewald energy   TEWEN  =    -42082.57287051
  -Hartree energ DENC   =    -25340.43881154
  -exchange      EXHF   =         0.00000000
  -V(xc)+E(xc)   XCENC  =      3706.18242287
  PAW double counting   =     70056.58074357   -73607.15147619
  entropy T*S    EENTRO =        -0.00000000
  eigenvalues    EBANDS =    -10150.08138385
  atomic energy  EATOM  =     73862.19814772
  Solvation  Ediel_sol  =         0.00000000
  ---------------------------------------------------
  free energy    TOTEN  =      -902.47084940 eV

  energy without entropy =     -902.47084940  energy(sigma->0) =     -902.47084940


--------------------------------------------------------------------------------------------------------




--------------------------------------- Iteration      1(  17)  ---------------------------------------


    POTLOK:  cpu time    0.2110: real time    0.2113
    SETDIJ:  cpu time    3.3252: real time    3.3257
    EDDIAG:  cpu time    3.7287: real time    3.7334
  RMM-DIIS:  cpu time   13.7555: real time   13.7634
    ORTHCH:  cpu time    1.1457: real time    1.1480
       DOS:  cpu time    0.0010: real time    0.0010
    CHARGE:  cpu time    1.3466: real time    1.3471
    MIXING:  cpu time    0.0016: real time    0.0016
    --------------------------------------------
      LOOP:  cpu time   23.5152: real time   23.5314

 eigenvalue-minimisations  : 18412
 total energy-change (2. order) : 0.1512521E+00  (-0.7934675E-01)
 number of electron     671.9999937 magnetization      48.0000065
 augmentation part      251.0900481 magnetization      33.9385558

 Broyden mixing:
  rms(total) = 0.78268E+00    rms(broyden)= 0.78254E+00
  rms(prec ) = 0.88338E+00
  weight for this iteration     100.00

 eigenvalues of (default mixing * dielectric matrix)
  average eigenvalue GAMMA=   0.9891
  2.2160  1.1127  0.3767  0.6898  0.5501

 Free energy of the ion-electron system (eV)
  ---------------------------------------------------
  alpha Z        PSCENC =      2652.81237852
  Ewald energy   TEWEN  =    -42082.57287051
  -Hartree energ DENC   =    -25332.30401436
  -exchange      EXHF   =         0.00000000
  -V(xc)+E(xc)   XCENC  =      3703.63820929
  PAW double counting   =     70933.67964912   -74492.85246210
  entropy T*S    EENTRO =        -0.00000000
  eigenvalues    EBANDS =    -10146.91863499
  atomic energy  EATOM  =     73862.19814772
  Solvation  Ediel_sol  =         0.00000000
  ---------------------------------------------------
  free energy    TOTEN  =      -902.31959730 eV

  energy without entropy =     -902.31959730  energy(sigma->0) =     -902.31959730


--------------------------------------------------------------------------------------------------------




--------------------------------------- Iteration      1(  18)  ---------------------------------------


    POTLOK:  cpu time    0.1994: real time    0.2004
    SETDIJ:  cpu time    3.3283: real time    3.3400
    EDDIAG:  cpu time    3.7261: real time    3.7294
  RMM-DIIS:  cpu time   13.3063: real time   13.3136
    ORTHCH:  cpu time    1.1566: real time    1.1591
       DOS:  cpu time    0.0013: real time    0.0013
    CHARGE:  cpu time    1.3450: real time    1.3454
    MIXING:  cpu time    0.0010: real time    0.0010
    --------------------------------------------
      LOOP:  cpu time   23.0640: real time   23.0902

 eigenvalue-minimisations  : 17707
 total energy-change (2. order) : 0.4090161E+00  (-0.7104880E-01)
 number of electron     671.9999938 magnetization      48.0000066
 augmentation part      250.5858630 magnetization      33.9020813

 Broyden mixing:
  rms(total) = 0.28602E+00    rms(broyden)= 0.28574E+00
  rms(prec ) = 0.30285E+00
  weight for this iteration     100.00

 eigenvalues of (default mixing * dielectric matrix)
  average eigenvalue GAMMA=   1.0174
  2.4627  1.3498  0.8550  0.3784  0.5816  0.4768

[...]
   4      -0.682    -0.743     1.425    -0.124    -0.446    -0.058
   5      -0.847    -0.974     1.821    -0.020    -0.054     0.052
   6      -0.700    -0.585     1.284    -0.082     0.364     0.158
   7      -0.866    -0.697     1.563     0.081     0.502    -0.306
   8      -0.816    -0.557     1.374    -0.064    -0.383    -0.366
   9      -0.873    -0.715     1.588     0.124    -0.464     0.250
  10      -0.617    -0.757     1.374    -0.027     0.018    -0.167
  11      -0.553    -0.818     1.371    -0.039     0.083    -0.414
  12      -0.931    -0.932     1.863    -0.044     0.020     0.132
  13      -0.592    -0.814     1.406    -0.028     0.005     0.499
  14      -0.925    -0.878     1.803    -0.075     0.103    -0.008
  15      -0.873    -0.826     1.698    -0.151     0.470     0.253
  16      -0.908    -0.967     1.875    -0.054     0.012    -0.032
  17       1.483     1.423    -2.906    -0.101     0.156    -0.131
  18       1.548     1.394    -2.943    -0.025    -0.097    -0.056
  19       1.460     1.341    -2.801    -0.032    -0.165     0.047
  20       1.519     1.327    -2.846    -0.066     0.135    -0.013
  21       1.511     1.499    -3.010     0.022     0.137    -0.009
  22       1.442     1.436    -2.878     0.052     0.019     0.019
  23       1.330     1.484    -2.814    -0.110    -0.094     0.165
  24       1.209     1.658    -2.867    -0.096    -0.108    -0.065
  25      -1.234     0.815     0.419     0.166    -0.161     1.681
  26       0.179     0.718    -0.898    -0.059     0.813     0.362
  27      -0.532    -0.346     0.878    -0.356     0.738    -0.335
  28       0.564    -0.249    -0.315    -0.382    -0.504     0.559
  29      -0.474    -0.444     0.918     0.448    -1.018    -0.242
  30      -0.255    -1.391     1.646     0.423    -0.188    -0.929
  31       1.606    -0.716    -0.890    -0.381    -0.875    -0.127
  32      -0.594     1.023    -0.429    -1.569     0.802    -0.450
  33      -1.100     1.207    -0.107     0.989    -0.460    -0.479
  34      -1.397     1.421    -0.024    -0.379    -0.297     1.068
  35       0.398     0.131    -0.529    -0.633     0.066     0.029
  36      -1.116     0.779     0.337    -0.266    -0.469    -1.986
  37      -0.306    -0.210     0.516     1.141    -0.585     0.362
  38       0.604     0.017    -0.620     1.543    -0.103     0.193
  39      -0.249     1.179    -0.930    -0.091    -0.146    -1.527
  40      -0.635     0.101     0.534    -0.536     1.162    -0.604
  41      -1.516     2.506    -0.990    -7.121     2.488    -4.098
  42      -4.761     3.006     1.755     4.593     2.668     4.492
  43       5.645    -4.572    -1.073    -1.954    -3.485    -0.019
  44      -4.238     2.371     1.867     5.826    -3.405    -2.619
  45      -4.194     3.194     1.001    -4.642    -3.602     2.657
  46       6.947    -5.766    -1.181    -0.555     3.868     0.442
  47      -3.605     2.307     1.297    -3.526     3.632    -3.574
  48       4.092    -5.677     1.585    -0.088    -3.786     0.541
  49      -2.706     2.194     0.512     5.112     1.108     4.814
  50       6.241    -6.150    -0.092    -1.444     5.198    -1.093
  51      -2.632     3.377    -0.745    -5.812    -2.047     3.626
  52      -2.395     0.843     1.552     4.383    -2.076    -3.848
  53      -3.754     1.814     1.941    -4.505     2.453    -3.695
  54      -3.458     0.757     2.701     4.313     2.615     5.774
  55       5.027    -6.652     1.624    -2.008    -5.161    -0.481
  56       0.124    -0.160     0.036     7.409    -0.938    -5.300
  57      -4.276     3.940     0.336    -5.899    -2.507     5.742
  58       2.521    -5.844     3.323    -2.152     5.780    -0.483
  59      -0.948     2.281    -1.333    -4.211     2.356    -3.082
  60       4.351    -6.260     1.909    -0.635    -6.265     0.865
  61      -3.529     4.007    -0.478     5.595     1.839     3.069
  62       5.570    -5.406    -0.164    -0.675     4.459    -0.374
  63      -2.820     4.550    -1.730    -5.659    -1.671     2.293
  64      -2.259     2.928    -0.669     4.885     0.088    -3.955
  65      -3.127     4.992    -1.865    -4.534     2.585    -4.245
  66      -5.225     5.631    -0.406     3.223     2.061     4.467
  67       4.320    -4.911     0.591    -0.825    -2.929     2.109
  68      -2.541     0.953     1.588     4.194    -2.449    -3.456
  69      -3.093     2.947     0.146    -4.906    -2.163     4.309
  70       5.060    -6.284     1.224    -1.751     4.367    -0.873
  71      -4.379     2.682     1.697    -4.664     0.644    -4.987
  72       4.053    -5.377     1.324     0.353    -3.378     1.198
  73      -5.187     2.772     2.415     4.260    -0.489     5.800
  74       3.580    -4.568     0.988    -1.778     4.927     1.875
  75      -4.748     3.797     0.951    -3.460    -2.601     4.115
  76      -2.238     2.709    -0.472     5.680    -2.019    -5.485
  77      -3.813     3.771     0.042    -4.833     1.227    -3.590
  78      -1.300     1.678    -0.378     6.180     3.477     3.424
  79       4.146    -6.849     2.703    -0.372    -6.372    -0.950
  80      -3.969     1.943     2.027     4.127    -2.241    -4.182
  81      -5.385     2.349     3.036    -4.014    -3.131     3.983
  82       5.102    -6.012     0.910     0.472     4.151    -0.524
  83      -3.002     3.097    -0.095    -3.216     3.211    -3.456
  84       6.872    -6.597    -0.276    -0.327    -5.131     0.380
  85      -1.634     1.439     0.195     7.101     2.202     3.170
  86       8.072    -4.878    -3.194    -0.795     2.695    -2.526
  87      -2.185     1.835     0.350    -3.487    -2.843     3.953
  88      -2.650    -0.026     2.676     4.000    -4.862    -2.689
 ---------------------------------------------------------------------


 Total hyperfine coupling parameters after diagonalization (MHz)
 (convention: |A_zz| > |A_xx| > |A_yy|)
 ----------------------------------------------------------------------
  ion      A_xx      A_yy      A_zz     asymmetry (A_yy - A_xx)/ A_zz 
 ----------------------------------------------------------------------
   1       1.992     1.648     4.304      -0.080
   2       2.570     2.205     4.916      -0.074
   3       1.737     1.371     3.715      -0.098
   4       1.265     0.997     3.405      -0.078
   5      -0.294    -0.162     2.507       0.053
   6       1.713     1.438     3.614      -0.076
   7       2.539     2.176     4.903      -0.074
   8       1.758     1.397     3.825      -0.094
   9       1.831     1.432     4.173      -0.096
  10       0.179     0.018     2.180      -0.074
  11       1.193     0.853     3.199      -0.106
  12       0.258     0.168     3.017      -0.030
  13       2.217     1.884     4.319      -0.077
  14       1.009     0.852     3.641      -0.043
  15       2.591     2.192     5.092      -0.078
  16       0.662     0.539     3.413      -0.036
  17      13.781     9.518    14.000      -0.305
  18      13.836     9.499    13.998      -0.310
  19      13.856     9.715    13.998      -0.296
  20      13.376     9.219    13.612      -0.305
  21      14.821    10.323    14.867      -0.303
  22      14.060     9.796    14.165      -0.301
  23      13.241     9.146    13.518      -0.303
  24      12.976     8.912    13.461      -0.302
  25      95.118    94.631    98.338      -0.005
  26      95.692    93.747    95.976      -0.020
  27      98.693    98.155   100.398      -0.005
  28     101.077   100.436   102.353      -0.006
  29      96.104    95.372    98.057      -0.007
  30      95.430    93.899    97.586      -0.016
  31      94.451    93.828    97.023      -0.006
  32      92.589    91.355    95.311      -0.013
  33      99.370    98.102   101.394      -0.013
  34      93.148    92.262    95.785      -0.009
  35      91.347    91.151    92.617      -0.002
  36      96.948    95.847   100.238      -0.011
  37      98.775    96.512    99.090      -0.023
  38      96.615    95.845    99.052      -0.008
  39      96.153    94.631    98.362      -0.015
  40      96.362    95.285    98.311      -0.011
  41       5.876     1.931    18.862      -0.209
  42       3.007    -1.946    13.908      -0.356
  43       5.112     2.354    14.827      -0.186
  44       8.342     0.761    16.989      -0.446
  45       7.729     1.415    16.320      -0.387
  46       8.166     4.879    19.276      -0.171
  47       6.817     2.691    16.262      -0.254
  48       8.368     3.762    16.323      -0.282
  49       4.546    -0.057    14.666      -0.314
  50       6.475     3.095    18.838      -0.179
  51       3.598    -0.010    14.905      -0.242
  52       6.001     2.238    14.966      -0.251
  53       6.522     1.669    15.669      -0.310
  54       2.924    -0.272    15.411      -0.207
  55       5.818     0.211    16.332      -0.343
  56       8.095     0.196    18.458      -0.428
  57       5.279     1.260    19.422      -0.207
  58       7.445     3.408    18.841      -0.214
  59       3.185     2.395    13.264      -0.060
  60       2.656    -0.464    15.468      -0.202
  61       5.795     1.189    16.122      -0.286
  62       7.565     4.713    18.212      -0.157
  63       5.408     1.954    16.280      -0.212
  64       5.592     0.575    14.077      -0.356
  65       5.869     4.281    18.901      -0.084
  66       3.784     0.266    15.562      -0.226
  67       4.091    -0.962    10.874      -0.465
  68       4.277     0.635    13.014      -0.280
  69       3.873     0.655    14.976      -0.215
  70       2.595    -2.343    12.386      -0.399
  71       7.676     1.940    17.469      -0.328
  72       3.731    -1.301    10.731      -0.469
  73       7.965     1.007    17.918      -0.388
  74       6.386     0.952    14.746      -0.369
  75       5.998     1.777    16.153      -0.261
  76      -2.370     0.883    13.754       0.237
  77       7.688     3.198    17.331      -0.259
  78       5.361     1.880    17.181      -0.203
  79       4.107    -0.208    16.718      -0.258
  80       4.522     0.237    14.224      -0.301
  81       6.099     0.005    15.822      -0.385
  82       5.774     1.190    14.968      -0.306
  83       5.169     2.012    14.464      -0.218
  84       6.380     2.705    18.889      -0.195
  85       6.983     1.110    17.360      -0.338
  86       2.515    -2.192    13.388      -0.352
  87       4.445     3.043    14.631      -0.096
  88       4.445    -0.386    14.045      -0.344
 ---------------------------------------------------------------------



--------------------------------------------------------------------------------------------------------


 stress matrix after NEB project (eV)
    -48.97935      0.09948     -3.89620
      0.08297    -47.66375     -5.63398
     -3.87849     -5.61071    -68.02119
  FORCES: max atom, RMS     3.276314    1.238454
  FORCE total and by dimension   11.617732    3.173674
  Stress total and by dimension   96.907967   68.021189
     LOOP+:  cpu time  629.0376: real time  630.1281
    4ORBIT:  cpu time    0.0000: real time    0.0000
 


 total charge     
 
# of ion       s       p       d       tot
------------------------------------------
    1        0.051   5.994   0.000   6.045
    2        0.053   5.995   0.000   6.048
    3        0.050   5.993   0.000   6.043
    4        0.051   5.993   0.000   6.044
    5        0.048   5.992   0.000   6.040
    6        0.049   5.991   0.000   6.040
    7        0.053   5.995   0.000   6.048
    8        0.049   5.989   0.000   6.038
    9        0.051   5.994   0.000   6.045
   10        0.050   5.993   0.000   6.042
   11        0.052   5.995   0.000   6.047
   12        0.049   5.993   0.000   6.042
   13        0.054   5.997   0.000   6.051
   14        0.052   5.996   0.000   6.048
   15        0.049   5.991   0.000   6.040
   16        0.050   5.994   0.000   6.044
   17        0.152   6.132   0.087   6.370
   18        0.149   6.128   0.084   6.361
   19        0.145   6.120   0.077   6.342
   20        0.145   6.122   0.079   6.347
   21        0.150   6.131   0.087   6.368
   22        0.148   6.125   0.081   6.354
   23        0.148   6.126   0.082   6.355
   24        0.150   6.130   0.086   6.367
   25        0.377   6.460   4.839  11.676
   26        0.382   6.471   4.847  11.700
   27        0.367   6.435   4.809  11.612
   28        0.368   6.440   4.825  11.632
   29        0.367   6.437   4.807  11.611
   30        0.364   6.432   4.796  11.592
   31        0.394   6.494   4.880  11.768
   32        0.379   6.459   4.845  11.682
   33        0.382   6.471   4.856  11.709
   34        0.388   6.479   4.863  11.730
   35        0.387   6.482   4.855  11.724
   36        0.352   6.405   4.778  11.535
   37        0.366   6.432   4.815  11.613
   38        0.365   6.436   4.810  11.611
   39        0.364   6.430   4.807  11.602
   40        0.373   6.441   4.830  11.645
   41        1.605   3.488   0.000   5.093
   42        1.599   3.486   0.000   5.085
   43        1.600   3.503   0.000   5.103
   44        1.595   3.494   0.000   5.089
   45        1.599   3.509   0.000   5.109
   46        1.602   3.509   0.000   5.112
   47        1.599   3.504   0.000   5.103
   48        1.597   3.535   0.000   5.132
   49        1.597   3.505   0.000   5.102
   50        1.603   3.496   0.000   5.099
   51        1.601   3.500   0.000   5.101
   52        1.599   3.526   0.000   5.125
   53        1.596   3.500   0.000   5.096
   54        1.598   3.484   0.000   5.082
   55        1.598   3.501   0.000   5.099
   56        1.603   3.502   0.000   5.105
   57        1.605   3.480   0.000   5.085
   58        1.601   3.517   0.000   5.118
   59        1.597   3.502   0.000   5.099
   60        1.600   3.485   0.000   5.085
   61        1.598   3.513   0.000   5.111
   62        1.601   3.507   0.000   5.108
   63        1.599   3.504   0.000   5.104
   64        1.596   3.494   0.000   5.090
   65        1.604   3.478   0.000   5.082
   66        1.598   3.482   0.000   5.081
   67        1.597   3.511   0.000   5.107
   68        1.597   3.503   0.000   5.101
   69        1.596   3.480   0.000   5.076
   70        1.596   3.487   0.000   5.083
   71        1.601   3.538   0.000   5.139
   72        1.596   3.505   0.000   5.101
   73        1.601   3.554   0.000   5.155
   74        1.598   3.499   0.000   5.097
   75        1.600   3.511   0.000   5.111
   76        1.599   3.491   0.000   5.090
   77        1.599   3.483   0.000   5.081
   78        1.598   3.510   0.000   5.109
   79        1.599   3.473   0.000   5.071
   80        1.598   3.497   0.000   5.095
   81        1.602   3.507   0.000   5.110
   82        1.599   3.518   0.000   5.116
   83        1.598   3.482   0.000   5.080
   84        1.605   3.507   0.000   5.112
   85        1.599   3.502   0.000   5.101
   86        1.599   3.453   0.000   5.052
   87        1.598   3.502   0.000   5.100
   88        1.598   3.517   0.000   5.115
--------------------------------------------------
tot         84.737 416.146  77.926 578.809
 


 magnetization (x)
 
# of ion       s       p       d       tot
------------------------------------------
    1        0.002   0.000   0.000   0.002
    2        0.002   0.000   0.000   0.002
    3        0.002   0.001   0.000   0.002
    4        0.001  -0.000   0.000   0.001
    5        0.001   0.000   0.000   0.001
    6        0.002   0.000   0.000   0.002
    7        0.002   0.000   0.000   0.002
    8        0.002   0.000   0.000   0.002
    9        0.002   0.000   0.000   0.002
   10        0.001   0.000   0.000   0.001
   11        0.001   0.000   0.000   0.002
   12        0.001   0.000   0.000   0.001
   13        0.002   0.000   0.000   0.002
   14        0.001   0.001   0.000   0.002
   15        0.002   0.000   0.000   0.003
   16        0.001   0.001   0.000   0.002
   17        0.007   0.002   0.001   0.010
   18        0.007   0.002   0.001   0.010
   19        0.007   0.002   0.001   0.010
   20        0.007   0.002   0.001   0.010
   21        0.008   0.003   0.001   0.012
   22        0.007   0.003   0.001   0.011
   23        0.007   0.002   0.001   0.010
   24        0.007   0.002   0.001   0.010
   25        0.015   0.030   2.745   2.790
   26        0.015   0.031   2.733   2.780
   27        0.016   0.030   2.784   2.830
   28        0.016   0.030   2.769   2.815
   29        0.015   0.030   2.778   2.823
   30        0.015   0.028   2.785   2.828
   31        0.015   0.031   2.706   2.753
   32        0.014   0.027   2.735   2.777
   33        0.016   0.032   2.734   2.782
   34        0.014   0.030   2.721   2.765
   35        0.014   0.029   2.731   2.774
   36        0.015   0.030   2.806   2.851
   37        0.015   0.030   2.781   2.826
   38        0.016   0.030   2.771   2.816
   39        0.015   0.029   2.778   2.823
   40        0.015   0.029   2.753   2.796
   41        0.002   0.035   0.000   0.037
   42        0.001   0.011   0.000   0.012
   43        0.002   0.028   0.000   0.030
   44        0.002   0.045   0.000   0.047
   45        0.002   0.044   0.000   0.046
   46        0.003   0.057   0.000   0.060
   47        0.002   0.041   0.000   0.043
   48        0.002   0.051   0.000   0.053
   49        0.002   0.033   0.000   0.035
   50        0.002   0.042   0.000   0.044
   51        0.002   0.018   0.000   0.020
   52        0.002   0.040   0.000   0.042
   53        0.002   0.033   0.000   0.035
   54        0.002   0.022   0.000   0.024
   55        0.002   0.039   0.000   0.041
   56        0.002   0.048   0.000   0.050
   57        0.002   0.033   0.000   0.035
   58        0.002   0.056   0.000   0.058
   59        0.002   0.018   0.000   0.020
   60        0.002   0.011   0.000   0.013
   61        0.002   0.039   0.000   0.041
   62        0.003   0.051   0.000   0.053
   63        0.002   0.028   0.000   0.031
   64        0.002   0.023   0.000   0.025
   65        0.003   0.040   0.000   0.043
   66        0.002   0.017   0.000   0.019
   67        0.001   0.015   0.000   0.017
   68        0.002   0.017   0.000   0.019
   69        0.002   0.024   0.000   0.026
   70        0.001   0.009   0.000   0.010
   71        0.002   0.056   0.000   0.058
   72        0.001   0.009   0.000   0.010
   73        0.002   0.061   0.000   0.063
   74        0.002   0.033   0.000   0.035
   75        0.002   0.034   0.000   0.036
   76        0.001   0.002   0.000   0.004
   77        0.003   0.041   0.000   0.044
   78        0.002   0.040   0.000   0.042
   79        0.002   0.025   0.000   0.027
   80        0.002   0.032   0.000   0.033
   81        0.002   0.032   0.000   0.034
   82        0.002   0.033   0.000   0.035
   83        0.002   0.022   0.000   0.024
   84        0.002   0.047   0.000   0.049
   85        0.002   0.039   0.000   0.041
   86        0.002  -0.006   0.000  -0.004
   87        0.002   0.037   0.000   0.039
   88        0.002   0.026   0.000   0.028
--------------------------------------------------
tot          0.419   2.027  44.121  46.567
 

 total amount of memory used by VASP MPI-rank0    88189. kBytes
=======================================================================

   base      :      30000. kBytes
   nonlr-proj:      13680. kBytes
   fftplans  :        992. kBytes
   grid      :      21513. kBytes
   one-center:       2737. kBytes
   wavefun   :      19267. kBytes
 
  
  
 General timing and accounting informations for this job:
 ========================================================
  
                  Total CPU time used (sec):      649.103
                            User time (sec):      643.015
                          System time (sec):        6.088
                         Elapsed time (sec):      652.489
  
                   Maximum memory used (kb):      182300.
                   Average memory used (kb):           0.
  
                          Minor page faults:       317965
                          Major page faults:            0
                 Voluntary context switches:         3270
