 vasp.5.4.4.18Apr17-6-g9f103f2a35 (build Dec 02 2020 12:53:39) complex          
  
 executed on             LinuxIFC date 2021.07.31  12:37:16
 running on  112 total cores
 distrk:  each k-point on  112 cores,    1 groups
 distr:  one band on NCORES_PER_BAND=   1 cores,  112 groups


--------------------------------------------------------------------------------------------------------


 INCAR:
 POTCAR:    PAW_PBE Na_pv 19Sep2006               
 POTCAR:    PAW_PBE Mg_pv 13Apr2007               
 POTCAR:    PAW_PBE Mn_pv 02Aug2007               
 POTCAR:    PAW_PBE O 08Apr2002                   

 ----------------------------------------------------------------------------- 
|                                                                             |
|           W    W    AA    RRRRR   N    N  II  N    N   GGGG   !!!           |
|           W    W   A  A   R    R  NN   N  II  NN   N  G    G  !!!           |
|           W    W  A    A  R    R  N N  N  II  N N  N  G       !!!           |
|           W WW W  AAAAAA  RRRRR   N  N N  II  N  N N  G  GGG   !            |
|           WW  WW  A    A  R   R   N   NN  II  N   NN  G    G                |
|           W    W  A    A  R    R  N    N  II  N    N   GGGG   !!!           |
|                                                                             |
|      For optimal performance we recommend to set                            |
|        NCORE= 4 - approx SQRT( number of cores)                             |
|      NCORE specifies how many cores store one orbital (NPAR=cpu/NCORE).     |
|      This setting can  greatly improve the performance of VASP for DFT.     |
|      The default,   NCORE=1            might be grossly inefficient         |
|      on modern multi-core architectures or massively parallel machines.     |
|      Do your own testing !!!!                                               |
|      Unfortunately you need to use the default for GW and RPA calculations. |
|      (for HF NCORE is supported but not extensively tested yet)             |
|                                                                             |
 ----------------------------------------------------------------------------- 

 POTCAR:    PAW_PBE Na_pv 19Sep2006               
   VRHFIN =Na: p6s1                                                             
   LEXCH  = PE                                                                  
   EATOM  =   766.0439 eV,   56.3026 Ry                                         
                                                                                
   TITEL  = PAW_PBE Na_pv 19Sep2006                                             
   LULTRA =        F    use ultrasoft PP ?                                      
   IUNSCR =        1    unscreen: 0-lin 1-nonlin 2-no                           
   RPACOR =    1.800    partial core radius                                     
   POMASS =   22.990; ZVAL   =    7.000    mass and valenz                      
   RCORE  =    2.200    outmost cutoff radius                                   
   RWIGS  =    2.200; RWIGS  =    1.164    wigner-seitz radius (au A)           
   ENMAX  =  259.561; ENMIN  =  194.671 eV                                      
   ICORE  =        2    local potential                                         
   LCOR   =        T    correct aug charges                                     
   LPAW   =        T    paw PP                                                  
   EAUG   =  368.056                                                            
   DEXC   =    0.000                                                            
   RMAX   =    2.245    core radius for proj-oper                               
   RAUG   =    1.300    factor for augmentation sphere                          
   RDEP   =    2.259    radius for radial grids                                 
   RDEPT  =    1.738    core radius for aug-charge                              
                                                                                
   Atomic configuration                                                         
    5 entries                                                                   
     n  l   j            E        occ.                                          
     1  0  0.50     -1033.6933   2.0000                                         
     2  0  0.50       -56.7526   2.0000                                         
     2  1  1.50       -28.6721   6.0000                                         
     3  0  0.50        -2.7440   1.0000                                         
     3  2  1.50        -1.3606   0.0000                                         
   Description                                                                  
     l       E           TYP  RCUT    TYP  RCUT                                 
     1    -28.6720912     23  2.000                                             
     1      6.8029130     23  2.000                                             
     0     -2.7439560     23  2.200                                             
     0     34.0145650     23  2.200                                             
     2     -1.3605826     23  2.200                                             
  local pseudopotential read in
  partial core-charges read in
  partial kinetic energy density read in
  atomic valenz-charges read in
  non local Contribution for L=           1  read in
    real space projection operators read in
  non local Contribution for L=           1  read in
    real space projection operators read in
  non local Contribution for L=           0  read in
    real space projection operators read in
  non local Contribution for L=           0  read in
    real space projection operators read in
    PAW grid and wavefunctions read in
 
   number of l-projection  operators is LMAX  =           4
   number of lm-projection operators is LMMAX =           8
 
 POTCAR:    PAW_PBE Mg_pv 13Apr2007               
   VRHFIN =Mg: p6s2                                                             
   LEXCH  = PE                                                                  
   EATOM  =  1056.7344 eV,   77.6678 Ry                                         
                                                                                
   TITEL  = PAW_PBE Mg_pv 13Apr2007                                             
   LULTRA =        F    use ultrasoft PP ?                                      
   IUNSCR =        1    unscreen: 0-lin 1-nonlin 2-no                           
   RPACOR =    1.500    partial core radius                                     
   POMASS =   24.305; ZVAL   =    8.000    mass and valenz                      
   RCORE  =    2.000    outmost cutoff radius                                   
   RWIGS  =    2.000; RWIGS  =    1.058    wigner-seitz radius (au A)           
   ENMAX  =  403.929; ENMIN  =  302.947 eV                                      
   RCLOC  =    1.506    cutoff for local pot                                    
   LCOR   =        T    correct aug charges                                     
   LPAW   =        T    paw PP                                                  
   EAUG   =  758.780                                                            
   DEXC   =    0.000                                                            
   RMAX   =    2.045    core radius for proj-oper                               
   RAUG   =    1.300    factor for augmentation sphere                          
   RDEP   =    2.025    radius for radial grids                                 
   RDEPT  =    1.557    core radius for aug-charge                              
                                                                                
   Atomic configuration                                                         
    5 entries                                                                   
     n  l   j            E        occ.                                          
     1  0  0.50     -1259.6230   2.0000                                         
     2  0  0.50       -79.8442   2.0000                                         
     2  1  1.50       -46.6121   6.0000                                         
     3  0  0.50        -4.7055   2.0000                                         
     3  2  1.50        -1.3606   0.0000                                         
   Description                                                                  
     l       E           TYP  RCUT    TYP  RCUT                                 
     1    -46.6121073     23  1.600                                             
     1      2.7211652     23  1.600                                             
     0     -4.7054661     23  2.000                                             
     0     61.2262170     23  2.000                                             
     2     -1.3605826     23  2.000                                             
  local pseudopotential read in
  partial core-charges read in
  partial kinetic energy density read in
  atomic valenz-charges read in
  non local Contribution for L=           1  read in
    real space projection operators read in
  non local Contribution for L=           1  read in
    real space projection operators read in
  non local Contribution for L=           0  read in
    real space projection operators read in
  non local Contribution for L=           0  read in
    real space projection operators read in
  non local Contribution for L=           2  read in
    real space projection operators read in
    PAW grid and wavefunctions read in
 
   number of l-projection  operators is LMAX  =           5
   number of lm-projection operators is LMMAX =          13
 
 POTCAR:    PAW_PBE Mn_pv 02Aug2007               
   VRHFIN =Mn: 3p4s3d                                                           
   LEXCH  = PE                                                                  
   EATOM  =  2025.2664 eV,  148.8529 Ry                                         
                                                                                
   TITEL  = PAW_PBE Mn_pv 02Aug2007                                             
   LULTRA =        F    use ultrasoft PP ?                                      
   IUNSCR =        1    unscreen: 0-lin 1-nonlin 2-no                           
   RPACOR =    2.080    partial core radius                                     
   POMASS =   54.938; ZVAL   =   13.000    mass and valenz                      
   RCORE  =    2.300    outmost cutoff radius                                   
   RWIGS  =    2.500; RWIGS  =    1.323    wigner-seitz radius (au A)           
   ENMAX  =  269.864; ENMIN  =  202.398 eV                                      
   ICORE  =        3    local potential                                         
   LCOR   =        T    correct aug charges                                     
   LPAW   =        T    paw PP                                                  
   EAUG   =  569.085                                                            
   DEXC   =    0.000                                                            
   RMAX   =    2.343    core radius for proj-oper                               
   RAUG   =    1.300    factor for augmentation sphere                          
   RDEP   =    2.338    radius for radial grids                                 
   RDEPT  =    1.798    core radius for aug-charge                              
                                                                                
   Atomic configuration                                                         
    8 entries                                                                   
     n  l   j            E        occ.                                          
     1  0  0.50     -6424.8287   2.0000                                         
     2  0  0.50      -739.1154   2.0000                                         
     2  1  1.50      -625.3949   6.0000                                         
     3  0  0.50       -81.6100   2.0000                                         
     3  1  1.50       -50.4667   6.0000                                         
     3  2  2.50        -3.3745   6.0000                                         
     4  0  0.50        -4.1331   1.0000                                         
     4  3  2.50        -1.3606   0.0000                                         
   Description                                                                  
     l       E           TYP  RCUT    TYP  RCUT                                 
     1    -50.4666628     23  2.000                                             
     1     -1.3605826     23  2.000                                             
     2     -3.3744729     23  2.300                                             
     2     -4.7350555     23  2.300                                             
     0     -4.1331431     23  2.300                                             
     0      7.6656591     23  2.300                                             
     3      9.5240782     23  2.300                                             
  local pseudopotential read in
  partial core-charges read in
  partial kinetic energy density read in
  atomic valenz-charges read in
  non local Contribution for L=           1  read in
    real space projection operators read in
  non local Contribution for L=           1  read in
    real space projection operators read in
  non local Contribution for L=           2  read in
    real space projection operators read in
  non local Contribution for L=           2  read in
    real space projection operators read in
  non local Contribution for L=           0  read in
    real space projection operators read in
  non local Contribution for L=           0  read in
    real space projection operators read in
    PAW grid and wavefunctions read in
 
   number of l-projection  operators is LMAX  =           6
   number of lm-projection operators is LMMAX =          18
 
 POTCAR:    PAW_PBE O 08Apr2002                   
   VRHFIN =O: s2p4                                                              
   LEXCH  = PE                                                                  
   EATOM  =   432.3788 eV,   31.7789 Ry                                         
                                                                                
   TITEL  = PAW_PBE O 08Apr2002                                                 
   LULTRA =        F    use ultrasoft PP ?                                      
   IUNSCR =        1    unscreen: 0-lin 1-nonlin 2-no                           
   RPACOR =    1.200    partial core radius                                     
   POMASS =   16.000; ZVAL   =    6.000    mass and valenz                      
   RCORE  =    1.520    outmost cutoff radius                                   
   RWIGS  =    1.550; RWIGS  =    0.820    wigner-seitz radius (au A)           
   ENMAX  =  400.000; ENMIN  =  300.000 eV                                      
   ICORE  =        2    local potential                                         
   LCOR   =        T    correct aug charges                                     
   LPAW   =        T    paw PP                                                  
   EAUG   =  605.392                                                            
   DEXC   =    0.000                                                            
   RMAX   =    1.553    core radius for proj-oper                               
   RAUG   =    1.300    factor for augmentation sphere                          
   RDEP   =    1.550    radius for radial grids                                 
   RDEPT  =    1.329    core radius for aug-charge                              
                                                                                
   Atomic configuration                                                         
    4 entries                                                                   
     n  l   j            E        occ.                                          
     1  0  0.50      -514.6923   2.0000                                         
     2  0  0.50       -23.9615   2.0000                                         
     2  1  0.50        -9.0305   4.0000                                         
     3  2  1.50        -9.5241   0.0000                                         
   Description                                                                  
     l       E           TYP  RCUT    TYP  RCUT                                 
     0    -23.9615318     23  1.200                                             
     0     -9.5240782     23  1.200                                             
     1     -9.0304911     23  1.520                                             
     1      8.1634956     23  1.520                                             
     2     -9.5240782      7  1.500                                             
  local pseudopotential read in
  partial core-charges read in
  partial kinetic energy density read in
  kinetic energy density of atom read in
  atomic valenz-charges read in
  non local Contribution for L=           0  read in
    real space projection operators read in
  non local Contribution for L=           0  read in
    real space projection operators read in
  non local Contribution for L=           1  read in
    real space projection operators read in
  non local Contribution for L=           1  read in
    real space projection operators read in
    PAW grid and wavefunctions read in
 
   number of l-projection  operators is LMAX  =           4
   number of lm-projection operators is LMMAX =           8
 
 Optimization of the real space projectors (new method)

 maximal supplied QI-value         = 17.01
 optimisation between [QCUT,QGAM] = [ 10.20, 20.41] = [ 29.16,116.64] Ry 
 Optimized for a Real-space Cutoff    1.30 Angstroem

   l    n(q)    QCUT    max X(q) W(low)/X(q) W(high)/X(q)  e(spline) 
   1      7    10.205     4.940    0.23E-03    0.84E-03    0.11E-06
   1      7    10.205     6.253    0.40E-03    0.13E-02    0.18E-06
   0      8    10.205    37.438    0.23E-03    0.37E-03    0.42E-07
   0      8    10.205     9.606    0.16E-03    0.26E-03    0.31E-07
 Optimization of the real space projectors (new method)

 maximal supplied QI-value         = 18.90
 optimisation between [QCUT,QGAM] = [ 10.20, 20.41] = [ 29.16,116.64] Ry 
 Optimized for a Real-space Cutoff    1.26 Angstroem

   l    n(q)    QCUT    max X(q) W(low)/X(q) W(high)/X(q)  e(spline) 
   1      7    10.205     2.974    0.63E-04    0.14E-03    0.13E-06
   1      7    10.205     4.279    0.11E-03    0.45E-03    0.24E-06
   0      8    10.205    16.381    0.44E-03    0.15E-03    0.55E-07
   0      8    10.205     5.611    0.31E-03    0.11E-03    0.40E-07
   2      7    10.205     4.652    0.50E-03    0.47E-03    0.57E-07
 Optimization of the real space projectors (new method)

 maximal supplied QI-value         = 16.25
 optimisation between [QCUT,QGAM] = [ 10.24, 20.48] = [ 29.35,117.42] Ry 
 Optimized for a Real-space Cutoff    1.34 Angstroem

   l    n(q)    QCUT    max X(q) W(low)/X(q) W(high)/X(q)  e(spline) 
   1      8    10.239     3.658    0.23E-03    0.30E-03    0.98E-07
   1      8    10.239     5.612    0.32E-03    0.65E-03    0.21E-06
   2      7    10.239    55.373    0.42E-03    0.45E-03    0.65E-07
   2      7    10.239    50.863    0.43E-03    0.48E-03    0.67E-07
   0      8    10.239    79.536    0.11E-03    0.21E-03    0.56E-07
   0      8    10.239    38.668    0.96E-04    0.19E-03    0.52E-07
 Optimization of the real space projectors (new method)

 maximal supplied QI-value         = 24.76
 optimisation between [QCUT,QGAM] = [ 10.15, 20.30] = [ 28.85,115.39] Ry 
 Optimized for a Real-space Cutoff    1.38 Angstroem

   l    n(q)    QCUT    max X(q) W(low)/X(q) W(high)/X(q)  e(spline) 
   0      8    10.150    20.381    0.22E-03    0.32E-03    0.29E-06
   0      8    10.150    15.268    0.23E-03    0.35E-03    0.30E-06
   1      8    10.150     5.964    0.46E-03    0.53E-03    0.21E-06
   1      8    10.150     5.382    0.38E-03    0.45E-03    0.19E-06
  PAW_PBE Na_pv 19Sep2006               :
 energy of atom  1       EATOM= -766.0439
 kinetic energy error for atom=    0.0103 (will be added to EATOM!!)
  PAW_PBE Mg_pv 13Apr2007               :
 energy of atom  2       EATOM=-1056.7344
 kinetic energy error for atom=    0.0820 (will be added to EATOM!!)
  PAW_PBE Mn_pv 02Aug2007               :
 energy of atom  3       EATOM=-2025.2664
 kinetic energy error for atom=    0.0284 (will be added to EATOM!!)
  PAW_PBE O 08Apr2002                   :
 energy of atom  4       EATOM= -432.3788
 kinetic energy error for atom=    0.1156 (will be added to EATOM!!)
 
 
 POSCAR: Na Mg Mn  O                             
  positions in cartesian coordinates
  No initial velocities read in

 METAGGA = SCAN     LMAXTAU =  6    LMIXTAU =  F

 exchange correlation table for  LEXCH =        8
   RHO(1)=    0.500       N(1)  =     2000
   RHO(2)=  100.500       N(2)  =     4000

 VTST: version 3.2, (02/03/18)

 CHAIN: initializing optimizer
 
 OPT: Using VASP Dynamics algorithm
 CHAIN: Read ICHAIN            0
 
 POSCAR: Na Mg Mn  O                             
  positions in cartesian coordinates
  No initial velocities read in
 


--------------------------------------------------------------------------------------------------------


 ion  position               nearest neighbor table
   1  0.948  0.219  0.251-  54 2.31  55 2.35  63 2.36  64 2.36
   2  0.467  0.877  0.757-  84 2.35  85 2.36  82 2.38
   3  0.209  0.969  0.747-  81 2.27  44 2.32  84 2.33  36 2.91
   4  0.696  0.719  0.751-  68 2.15  71 2.24  72 2.33
   5  0.989  0.722  0.252-  86 2.27  77 2.30
   6  0.162  0.079  0.246-  41 2.24  42 2.35
   7  0.961  0.065  0.762-  61 2.24  47 2.28  58 2.33  25 2.69  27 2.96
   8  0.970  0.561  0.753-  70 2.35  83 2.37  37 2.88  39 2.92
   9  0.739  0.864  0.249-  63 2.23  65 2.25  74 2.26  40 2.95
  10  0.457  0.016  0.250-  79 2.21  88 2.23  51 2.37  31 2.83  29 2.93
  11  0.437  0.500  0.241-  43 2.15  52 2.30  78 2.37  87 2.37  33 2.82
  12  0.707  0.224  0.735-  57 2.23  59 2.32  56 2.34
  13  0.477  0.380  0.748-  48 2.37  68 2.38
  14  0.264  0.512  0.761-  48 2.29  83 2.35
  15  0.735  0.387  0.250-  75 2.21  66 2.26  62 2.29  53 2.34  28 2.96
  16  0.247  0.649  0.241-  78 2.19  77 2.30  87 2.34  86 2.35  38 2.82
  17  0.631  0.376  0.003-  60 2.01  43 2.02  66 2.08  53 2.09  49 2.12  71 2.14  30 2.71  29 2.82

  18  0.316  0.229  0.484-  51 2.01  50 2.05  52 2.06  45 2.10  44 2.10  46 2.21
  19  0.128  0.383  0.999-  83 2.01  61 2.06  78 2.06  41 2.07  55 2.15  48 2.18  25 2.83
  20  0.811  0.220  0.501-  62 1.96  56 1.96  57 2.04  58 2.12  64 2.12  63 2.17  40 2.83  27 2.85
                            32 2.85
  21  0.118  0.883  0.002-  73 1.97  42 2.01  77 2.07  67 2.07  47 2.11  84 2.15  34 2.79  37 2.85

  22  0.813  0.717  0.496-  75 2.01  68 2.04  70 2.04  74 2.05  76 2.10  69 2.15  28 2.83  39 2.86

  23  0.627  0.889  0.010-  54 2.00  79 2.02  65 2.06  72 2.10  85 2.10  59 2.15
  24  0.312  0.715  0.509-  82 1.98  81 2.05  80 2.07  87 2.11  86 2.12  88 2.13  35 2.81  32 2.85

  25  0.958  0.057  0.002-  61 1.85  72 1.92  47 1.92  54 1.94  41 1.94  67 1.97   7 2.69  19 2.83
                            26 2.89  30 2.90  34 2.97
  26  0.291  0.216  0.005-  49 1.85  43 1.89  48 1.90  47 1.94  41 1.95  42 1.96  29 2.87  33 2.87
                            25 2.89
  27  0.981  0.063  0.499-  44 1.84  69 1.91  58 1.92  50 1.94  76 1.96  63 2.02  32 2.82  20 2.85
                            40 2.93  36 2.94   7 2.96
  28  0.648  0.391  0.502-  52 1.88  46 1.89  57 1.94  75 1.98  62 2.04  68 2.09  22 2.83  39 2.84
                            35 2.92  31 2.96  15 2.96
  29  0.457  0.052  0.991-  49 1.87  42 1.90  59 1.92  84 1.93  79 1.95  53 2.02  17 2.82  26 2.87
                            38 2.88  30 2.91  10 2.93
  30  0.791  0.224  0.005-  54 1.89  60 1.89  53 1.90  55 1.90  61 1.96  59 1.98  17 2.71  37 2.87
                            25 2.90  29 2.91
  31  0.478  0.050  0.501-  56 1.85  46 1.86  51 1.94  88 1.96  81 1.98  62 1.98  40 2.79  10 2.83
                            36 2.90  28 2.96
  32  0.139  0.388  0.500-  80 1.85  50 1.89  58 1.93  87 1.95  64 1.95  45 2.01  27 2.82  39 2.83
                            24 2.85  20 2.85  35 2.95
  33  0.464  0.546  0.993-  71 1.81  48 1.91  78 1.91  85 1.93  43 1.93  65 1.97  11 2.82  26 2.87
                            34 2.88  38 2.96
  34  0.796  0.715  0.010-  73 1.83  65 1.88  66 1.93  67 1.94  72 2.00  71 2.04  21 2.79  37 2.86
                            33 2.88  25 2.97
  35  0.478  0.558  0.510-  45 1.87  74 1.92  68 1.94  82 1.96  52 1.98  87 2.03  24 2.81  28 2.92
                            40 2.93  32 2.95
  36  0.144  0.888  0.496-  44 1.89  76 1.91  81 1.94  51 1.95  70 1.96  86 2.07  31 2.90   3 2.91
                            39 2.93  27 2.94
  37  0.965  0.555  0.009-  77 1.84  66 1.86  55 1.95  83 1.96  73 1.96  60 1.98  21 2.85  34 2.86
                            30 2.87   8 2.88  38 2.88
  38  0.297  0.719  0.996-  79 1.86  85 1.88  84 1.91  83 1.93  78 1.98  77 1.98  16 2.82  37 2.88
                            29 2.88  33 2.96
  39  0.975  0.550  0.493-  86 1.86  64 1.87  75 1.88  57 1.90  80 1.97  70 2.02  32 2.83  28 2.84
                            22 2.86   8 2.92  36 2.93
  40  0.644  0.894  0.491-  63 1.83  56 1.83  88 1.84  74 1.89  69 1.94  82 2.02  31 2.79  20 2.83
                            27 2.93  35 2.93   9 2.95
  41  0.125  0.209  0.100-  25 1.94  26 1.95  19 2.07   6 2.24
  42  0.301  0.050  0.089-  29 1.90  26 1.96  21 2.01   6 2.35
  43  0.455  0.381  0.088-  26 1.89  33 1.93  17 2.02  11 2.15
  44  0.134  0.048  0.578-  27 1.84  36 1.89  18 2.10   3 2.32
  45  0.314  0.397  0.594-  35 1.87  32 2.01  18 2.10
  46  0.498  0.217  0.587-  31 1.86  28 1.89  18 2.21
  47  0.122  0.068  0.907-  25 1.92  26 1.94  21 2.11   7 2.28
  48  0.313  0.377  0.902-  26 1.90  33 1.91  19 2.18  14 2.29  13 2.37
  49  0.436  0.204  0.910-  26 1.85  29 1.87  17 2.12
  50  0.134  0.231  0.402-  32 1.89  27 1.94  18 2.05
  51  0.315  0.048  0.406-  31 1.94  36 1.95  18 2.01  10 2.37
  52  0.506  0.413  0.407-  28 1.88  35 1.98  18 2.06  11 2.30
  53  0.624  0.197  0.103-  30 1.90  29 2.02  17 2.09  15 2.34
  54  0.800  0.069  0.094-  30 1.89  25 1.94  23 2.00   1 2.31
  55  0.946  0.381  0.102-  30 1.90  37 1.95  19 2.15   1 2.35
  56  0.637  0.043  0.580-  40 1.83  31 1.85  20 1.96  12 2.34
  57  0.818  0.400  0.592-  39 1.90  28 1.94  20 2.04  12 2.23
  58  0.992  0.223  0.600-  27 1.92  32 1.93  20 2.12   7 2.33
  59  0.627  0.067  0.902-  29 1.92  30 1.98  23 2.15  12 2.32
  60  0.807  0.387  0.910-  30 1.89  37 1.98  17 2.01
  61  0.945  0.205  0.912-  25 1.85  30 1.96  19 2.06   7 2.24
  62  0.645  0.216  0.406-  20 1.96  31 1.98  28 2.04  15 2.29
  63  0.802  0.033  0.398-  40 1.83  27 2.02  20 2.17   9 2.23   1 2.36
  64  0.986  0.401  0.400-  39 1.87  32 1.95  20 2.12   1 2.36
  65  0.628  0.705  0.093-  34 1.88  33 1.97  23 2.06   9 2.25
  66  0.808  0.556  0.097-  37 1.86  34 1.93  17 2.08  15 2.26
  67  0.947  0.889  0.102-  34 1.94  25 1.97  21 2.07
  68  0.642  0.562  0.605-  35 1.94  22 2.04  28 2.09   4 2.15  13 2.38
  69  0.811  0.906  0.586-  27 1.91  40 1.94  22 2.15
  70  0.987  0.722  0.594-  36 1.96  39 2.02  22 2.04   8 2.35
  71  0.621  0.556  0.906-  33 1.81  34 2.04  17 2.14   4 2.24
  72  0.805  0.886  0.912-  25 1.92  34 2.00  23 2.10   4 2.33
  73  0.945  0.711  0.918-  34 1.83  37 1.96  21 1.97
  74  0.632  0.721  0.414-  40 1.89  35 1.92  22 2.05   9 2.26
  75  0.817  0.548  0.403-  39 1.88  28 1.98  22 2.01  15 2.21
  76  0.993  0.904  0.405-  36 1.91  27 1.96  22 2.10
  77  0.126  0.708  0.093-  37 1.84  38 1.98  21 2.07   5 2.30  16 2.30
  78  0.312  0.559  0.087-  33 1.91  38 1.98  19 2.06  16 2.19  11 2.37
  79  0.442  0.884  0.087-  38 1.86  29 1.95  23 2.02  10 2.21
  80  0.128  0.534  0.594-  32 1.85  39 1.97  24 2.07
  81  0.305  0.892  0.596-  36 1.94  31 1.98  24 2.05   3 2.27
  82  0.488  0.729  0.600-  35 1.96  24 1.98  40 2.02   2 2.38
  83  0.126  0.557  0.910-  38 1.93  37 1.96  19 2.01  14 2.35   8 2.37
  84  0.300  0.880  0.902-  38 1.91  29 1.93  21 2.15   3 2.33   2 2.35
  85  0.453  0.709  0.910-  38 1.88  33 1.93  23 2.10   2 2.36
  86  0.132  0.704  0.402-  39 1.86  36 2.07  24 2.12   5 2.27  16 2.35
  87  0.307  0.539  0.402-  32 1.95  35 2.03  24 2.11  16 2.34  11 2.37
  88  0.489  0.892  0.403-  40 1.84  31 1.96  24 2.13  10 2.23
 
  LATTYP: Found a hexagonal cell.
 ALAT       =    10.0190000534
 C/A-ratio  =     1.1196726572
  
  Lattice vectors:
  
 A1 = (  10.0190000534,   0.0000000000,   0.0000000000)
 A2 = (  -5.0095000267,   8.6767085668,   0.0000000000)
 A3 = (   0.0000000000,   0.0000000000,  11.2180004120)


Analysis of symmetry for initial positions (statically):
=====================================================================
 Subroutine PRICEL returns:
 Original cell was already a primitive cell.
 

 Routine SETGRP: Setting up the symmetry group for a 
 hexagonal supercell.


 Subroutine GETGRP returns: Found  1 space group operations
 (whereof  1 operations were pure point group operations)
 out of a pool of 24 trial point group operations.


The static configuration has the point symmetry C_1 .


Analysis of symmetry for dynamics (positions and initial velocities):
=====================================================================
 Subroutine PRICEL returns:
 Original cell was already a primitive cell.
 

 Routine SETGRP: Setting up the symmetry group for a 
 hexagonal supercell.


 Subroutine GETGRP returns: Found  1 space group operations
 (whereof  1 operations were pure point group operations)
 out of a pool of 24 trial point group operations.


The dynamic configuration has the point symmetry C_1 .


Analysis of structural, dynamic, and magnetic symmetry:
=====================================================================
 Subroutine PRICEL returns:
 Original cell was already a primitive cell.
 

 Routine SETGRP: Setting up the symmetry group for a 
 hexagonal supercell.


 Subroutine GETGRP returns: Found  1 space group operations
 (whereof  1 operations were pure point group operations)
 out of a pool of 24 trial point group operations.


The magnetic configuration has the point symmetry C_1 .


 Subroutine INISYM returns: Found  1 space group operations
 (whereof  1 operations are pure point group operations),
 and found     1 'primitive' translations

 
 

Automatic generation of k-mesh.
 generate k-points for:    2    2    2
Space group operators:
 irot       det(A)        alpha          n_x          n_y          n_z        tau_x        tau_y        tau_z
    1     1.000000     0.000000     1.000000     0.000000     0.000000     0.000000     0.000000     0.000000
 
 Subroutine IBZKPT returns following result:
 ===========================================
 
 Found      8 irreducible k-points:
 
 Following reciprocal coordinates:
            Coordinates               Weight
  0.000000  0.000000  0.000000      1.000000
  0.500000 -0.000000 -0.000000      1.000000
  0.000000  0.500000  0.000000      1.000000
  0.500000  0.500000 -0.000000      1.000000
  0.000000  0.000000  0.500000      1.000000
  0.500000 -0.000000  0.500000      1.000000
  0.000000  0.500000  0.500000      1.000000
  0.500000  0.500000  0.500000      1.000000
 
 Following cartesian coordinates:
            Coordinates               Weight
  0.000000  0.000000  0.000000      1.000000
  0.049905  0.028813 -0.000000      1.000000
  0.000000  0.057626  0.000000      1.000000
  0.049905  0.086438 -0.000000      1.000000
  0.000000  0.000000  0.044571      1.000000
  0.049905  0.028813  0.044571      1.000000
  0.000000  0.057626  0.044571      1.000000
  0.049905  0.086438  0.044571      1.000000
 


--------------------------------------------------------------------------------------------------------




 Dimension of arrays:
   k-points           NKPTS =      8   k-points in BZ     NKDIM =      8   number of bands    NBANDS=    448
   number of dos      NEDOS =    301   number of ions     NIONS =     88
   non local maximal  LDIM  =      6   non local SUM 2l+1 LMDIM =     18
   total plane-waves  NPLWV = 140000
   max r-space proj   IRMAX =   1632   max aug-charges    IRDMAX=   4555
   dimension x,y,z NGX =    50 NGY =   50 NGZ =   56
   dimension x,y,z NGXF=   100 NGYF=  100 NGZF=  112
   support grid    NGXF=   100 NGYF=  100 NGZF=  112
   ions per type =              16   8  16  48
   NGX,Y,Z   is equivalent  to a cutoff of   8.30,  8.30,  8.30 a.u.
   NGXF,Y,Z  is equivalent  to a cutoff of  16.59, 16.59, 16.60 a.u.

 SYSTEM =  unknown system                          
 POSCAR =  Na Mg Mn  O                             

 Startparameter for this run:
   NWRITE =      2    write-flag & timer
   PREC   = normal    normal or accurate (medium, high low for compatibility)
   ISTART =      0    job   : 0-new  1-cont  2-samecut
   ICHARG =      1    charge: 1-file 2-atom 10-const
   ISPIN  =      2    spin polarized calculation?
   LNONCOLLINEAR =      F non collinear calculations
   LSORBIT =      F    spin-orbit coupling
   INIWAV =      1    electr: 0-lowe 1-rand  2-diag
   LASPH  =      T    aspherical Exc in radial PAW
   METAGGA=      F    non-selfconsistent MetaGGA calc.

 Electronic Relaxation 1
   ENCUT  =  400.0 eV  29.40 Ry    5.42 a.u.  16.34 16.34 18.29*2*pi/ulx,y,z
   ENINI  =  400.0     initial cutoff
   ENAUG  =  758.8 eV  augmentation charge cutoff
   NELM   =    200;   NELMIN=  6; NELMDL=-12     # of ELM steps 
   EDIFF  = 0.1E-04   stopping-criterion for ELM
   LREAL  =      T    real-space projection
   NLSPLINE    = F    spline interpolate recip. space projectors
   LCOMPAT=      F    compatible to vasp.4.4
   GGA_COMPAT  = T    GGA compatible to vasp.4.4-vasp.4.6
   LMAXPAW     = -100 max onsite density
   LMAXMIX     =    4 max onsite mixed and CHGCAR
   VOSKOWN=      0    Vosko Wilk Nusair interpolation
   ROPT   =   -0.00050  -0.00050  -0.00050  -0.00050
 Ionic relaxation
   EDIFFG = 0.1E-03   stopping-criterion for IOM
   NSW    =      1    number of steps for IOM
   NBLOCK =      1;   KBLOCK =      1    inner block; outer block 
   IBRION =     -1    ionic relax: 0-MD 1-quasi-New 2-CG
   NFREE  =      0    steps in history (QN), initial steepest desc. (CG)
   ISIF   =      2    stress and relaxation
   IWAVPR =     10    prediction:  0-non 1-charg 2-wave 3-comb
   ISYM   =      2    0-nonsym 1-usesym 2-fastsym
   LCORR  =      T    Harris-Foulkes like correction to forces

   POTIM  = 0.5000    time-step for ionic-motion
   TEIN   =    0.0    initial temperature
   TEBEG  =    0.0;   TEEND  =   0.0 temperature during run
   SMASS  =  -3.00    Nose mass-parameter (am)
   estimated Nose-frequenzy (Omega)   =  0.10E-29 period in steps =****** mass=  -0.229E-26a.u.
   SCALEE = 1.0000    scale energy and forces
   NPACO  =    256;   APACO  = 16.0  distance and # of slots for P.C.
   PSTRESS=    0.0 pullay stress

  Mass of Ions in am
   POMASS =  22.99 24.30 54.94 16.00
  Ionic Valenz
   ZVAL   =   7.00  8.00 13.00  6.00
  Atomic Wigner-Seitz radii
   RWIGS  =  -1.00 -1.00 -1.00 -1.00
  virtual crystal weights 
   VCA    =   1.00  1.00  1.00  1.00
   NELECT =     672.0000    total number of electrons
   NUPDOWN=      48.0000    fix difference up-down

 DOS related values:
   EMIN   =  10.00;   EMAX   =-10.00  energy-range for DOS
   EFERMI =   0.00
   ISMEAR =     0;   SIGMA  =   0.05  broadening in eV -4-tet -1-fermi 0-gaus

 Electronic relaxation 2 (details)
   IALGO  =     48    algorithm
   LDIAG  =      T    sub-space diagonalisation (order eigenvalues)
   LSUBROT=      F    optimize rotation matrix (better conditioning)
   TURBO    =      0    0=normal 1=particle mesh
   IRESTART =      0    0=no restart 2=restart with 2 vectors
   NREBOOT  =      0    no. of reboots
   NMIN     =      0    reboot dimension
   EREF     =   0.00    reference energy to select bands
   IMIX   =      4    mixing-type and parameters
     AMIX     =   0.40;   BMIX     =  1.00
     AMIX_MAG =   1.60;   BMIX_MAG =  1.00
     AMIN     =   0.10
     WC   =   100.;   INIMIX=   1;  MIXPRE=   1;  MAXMIX= -45

 Intra band minimization:
   WEIMIN = 0.0000     energy-eigenvalue tresh-hold
   EBREAK =  0.56E-08  absolut break condition
   DEPER  =   0.30     relativ break condition  

   TIME   =   0.40     timestep for ELM

  volume/ion in A,a.u.               =      11.08        74.78
  Fermi-wavevector in a.u.,A,eV,Ry     =   1.445993  2.732531 28.448379  2.090897
  Thomas-Fermi vector in A             =   2.564112
 
 Write flags
   LWAVE        =      F    write WAVECAR
   LDOWNSAMPLE  =      F    k-point downsampling of WAVECAR
   LCHARG       =      F    write CHGCAR
   LVTOT        =      F    write LOCPOT, total local potential
   LVHAR        =      F    write LOCPOT, Hartree potential only
   LELF         =      F    write electronic localiz. function (ELF)
   LORBIT       =     11    0 simple, 1 ext, 2 COOP (PROOUT), +10 PAW based schemes


 Dipole corrections
   LMONO  =      F    monopole corrections only (constant potential shift)
   LDIPOL =      F    correct potential (dipole corrections)
   IDIPOL =      0    1-x, 2-y, 3-z, 4-all directions 
   EPSILON=  1.0000000 bulk dielectric constant

 Exchange correlation treatment:
   GGA     =    --    GGA type
   LEXCH   =     8    internal setting for exchange type
   VOSKOWN=      0    Vosko Wilk Nusair interpolation
   LHFCALC =     F    Hartree Fock is set to
   LHFONE  =     F    Hartree Fock one center treatment
   AEXX    =    0.0000 exact exchange contribution

 Linear response parameters
   LEPSILON=     F    determine dielectric tensor
   LRPA    =     F    only Hartree local field effects (RPA)
   LNABLA  =     F    use nabla operator in PAW spheres
   LVEL    =     F    velocity operator in full k-point grid
   LINTERFAST=   F  fast interpolation
   KINTER  =     0    interpolate to denser k-point grid
   CSHIFT  =0.1000    complex shift for real part using Kramers Kronig
   OMEGAMAX=  -1.0    maximum frequency
   DEG_THRESHOLD= 0.2000000E-02 threshold for treating states as degnerate
   RTIME   =   -0.100 relaxation time in fs
  (WPLASMAI=    0.000 imaginary part of plasma frequency in eV, 0.658/RTIME)
   DFIELD  = 0.0000000 0.0000000 0.0000000 field for delta impulse in time
 
 Orbital magnetization related:
   ORBITALMAG=     F  switch on orbital magnetization
   LCHIMAG   =     F  perturbation theory with respect to B field
   DQ        =  0.001000  dq finite difference perturbation B field
   LLRAUG    =     F  two centre corrections for induced B field



--------------------------------------------------------------------------------------------------------


 Static calculation
 charge density and potential will be updated during run
 spin polarized calculation
 RMM-DIIS sequential band-by-band
 perform sub-space diagonalisation
    before iterative eigenvector-optimisation
 modified Broyden-mixing scheme, WC =      100.0
 initial mixing is a Kerker type mixing with AMIX =  0.4000 and BMIX =      1.0000
 Hartree-type preconditioning will be used
 using additional bands          112
 real space projection scheme for non local part
 use partial core corrections
 calculate Harris-corrections to forces 
   (improved forces if not selfconsistent)
 use gradient corrections 
 use of overlap-Matrix (Vanderbilt PP)
 Gauss-broadening in eV      SIGMA  =   0.05


--------------------------------------------------------------------------------------------------------


  energy-cutoff  :      400.00
  volume of cell :      975.20
      direct lattice vectors                 reciprocal lattice vectors
    10.019000053  0.000000000  0.000000000     0.099810360  0.057625538 -0.000000000
    -5.009500027  8.676708567  0.000000000     0.000000000  0.115251076  0.000000000
     0.000000000  0.000000000 11.218000412     0.000000000  0.000000000  0.089142446

  length of vectors
    10.019000053 10.019000053 11.218000412     0.115251076  0.115251076  0.089142446


 
 k-points in units of 2pi/SCALE and weight: read from INCAR                         
   0.00000000  0.00000000  0.00000000       0.125
   0.04990518  0.02881277 -0.00000000       0.125
   0.00000000  0.05762554  0.00000000       0.125
   0.04990518  0.08643831 -0.00000000       0.125
   0.00000000  0.00000000  0.04457122       0.125
   0.04990518  0.02881277  0.04457122       0.125
   0.00000000  0.05762554  0.04457122       0.125
   0.04990518  0.08643831  0.04457122       0.125
 
 k-points in reciprocal lattice and weights: read from INCAR                         
   0.00000000  0.00000000  0.00000000       0.125
   0.50000000 -0.00000000 -0.00000000       0.125
   0.00000000  0.50000000  0.00000000       0.125
   0.50000000  0.50000000 -0.00000000       0.125
   0.00000000  0.00000000  0.50000000       0.125
   0.50000000 -0.00000000  0.50000000       0.125
   0.00000000  0.50000000  0.50000000       0.125
   0.50000000  0.50000000  0.50000000       0.125
 
 position of ions in fractional coordinates (direct lattice) 
   0.94799306  0.21861318  0.25136030
   0.46680822  0.87746308  0.75676856
   0.20903397  0.96905706  0.74687820
   0.69574406  0.71886607  0.75126045
   0.98947532  0.72235818  0.25243358
   0.16226351  0.07907538  0.24607594
   0.96103901  0.06462721  0.76219555
   0.96984184  0.56076366  0.75272951
   0.73868925  0.86382426  0.24861917
   0.45670482  0.01559150  0.24969958
   0.43693127  0.49978530  0.24105900
   0.70676349  0.22359565  0.73477979
   0.47650692  0.38006249  0.74825991
   0.26448128  0.51211453  0.76104740
   0.73480835  0.38738093  0.25021482
   0.24687571  0.64891262  0.24090924
   0.63062929  0.37611036  0.00292385
   0.31608464  0.22861203  0.48399000
   0.12753764  0.38338270  0.99914420
   0.81052441  0.21995092  0.50146994
   0.11778425  0.88346750  0.00155657
   0.81301875  0.71728812  0.49628274
   0.62737995  0.88940408  0.01023266
   0.31212274  0.71529428  0.50927169
   0.95786615  0.05699989  0.00202976
   0.29117629  0.21610845  0.00479042
   0.98114006  0.06271249  0.49881884
   0.64792560  0.39090860  0.50211979
   0.45663016  0.05183203  0.99094634
   0.79089923  0.22397433  0.00537525
   0.47836047  0.04972623  0.50073897
   0.13866101  0.38777377  0.49995452
   0.46445071  0.54615065  0.99267762
   0.79596607  0.71499232  0.00984685
   0.47796888  0.55757664  0.50990995
   0.14432227  0.88766840  0.49635940
   0.96499893  0.55484865  0.00911794
   0.29660540  0.71948827  0.99624457
   0.97531082  0.55043799  0.49305044
   0.64409013  0.89439445  0.49134603
   0.12485358  0.20934205  0.09974059
   0.30074261  0.04971759  0.08902799
   0.45535692  0.38067891  0.08777973
   0.13375997  0.04771757  0.57797110
   0.31418680  0.39748828  0.59353982
   0.49841527  0.21683453  0.58701816
   0.12241914  0.06779725  0.90704222
   0.31320023  0.37688254  0.90223744
   0.43572760  0.20364404  0.91017112
   0.13391572  0.23116830  0.40246299
   0.31529504  0.04788122  0.40573630
   0.50589877  0.41282359  0.40713851
   0.62445266  0.19706782  0.10333392
   0.79993911  0.06859767  0.09386076
   0.94576275  0.38146262  0.10169727
   0.63690909  0.04342792  0.58020768
   0.81808872  0.40036149  0.59208680
   0.99215099  0.22308229  0.59987340
   0.62718251  0.06678143  0.90235333
   0.80661119  0.38670078  0.90987695
   0.94549030  0.20452686  0.91168654
   0.64483454  0.21614878  0.40592796
   0.80197160  0.03277642  0.39766980
   0.98602565  0.40130770  0.39999375
   0.62770763  0.70520866  0.09251292
   0.80836912  0.55582598  0.09722856
   0.94660844  0.88927039  0.10160634
   0.64242528  0.56211177  0.60461399
   0.81149649  0.90573977  0.58619716
   0.98731832  0.72229809  0.59442055
   0.62131506  0.55562544  0.90610622
   0.80456410  0.88616783  0.91241751
   0.94462403  0.71070729  0.91817611
   0.63235115  0.72117900  0.41416472
   0.81670432  0.54816063  0.40266267
   0.99272244  0.90398565  0.40473077
   0.12608708  0.70828356  0.09324924
   0.31225462  0.55863580  0.08725227
   0.44178724  0.88352628  0.08733000
   0.12759968  0.53376807  0.59391511
   0.30502004  0.89166300  0.59555890
   0.48801657  0.72925003  0.60044658
   0.12640837  0.55651172  0.90951147
   0.29958801  0.88033382  0.90203241
   0.45276099  0.70939342  0.91009089
   0.13227490  0.70422441  0.40170439
   0.30681637  0.53946147  0.40180155
   0.48861310  0.89217241  0.40324566
 
 position of ions in cartesian coordinates  (Angst):
   8.40279981  1.89684283  2.81976000
   0.28130024  7.61349143  8.48943000
  -2.76017997  8.40822570  8.37848000
   3.36950013  6.23739143  8.42764000
   6.29489992  6.26769143  2.83180000
   1.22959000  0.68611400  2.76048000
   9.30489987  0.56075143  8.55031000
   6.90769989  4.86558287  8.44412000
   3.07359995  7.49515140  2.78901000
   4.49762000  0.13528287  2.80113000
   1.87393997  4.33649143  2.70420000
   5.96096103  1.94007430  8.24276000
   2.87019987  3.29769143  8.39398000
   0.08440019  4.44346857  8.53743000
   5.42146008  3.36119143  2.80691000
  -0.77728003  5.63042570  2.70252000
   4.43415000  3.26340000  0.03279980
   2.02162000  1.98360000  5.42940000
  -0.64275600  3.32650000 11.20840000
   7.01880000  1.90845000  5.62549000
  -3.24565000  7.66559000  0.01746160
   4.55238000  6.22370000  5.56730000
   1.83025000  7.71710000  0.11479000
  -0.45610900  6.20640000  5.71301000
   9.31132003  0.49457143  0.02276990
   1.83470000  1.87511000  0.05373890
   9.51588405  0.54413800  5.59575000
   4.53331000  3.39180000  5.63278000
   4.31532503  0.44973143 11.11643641
   6.80202000  1.94336000  0.06029959
   4.54359000  0.43146000  5.61729000
  -0.55330800  3.36460000  5.60849000
   1.91739000  4.73879000 11.13585791
   4.39303000  6.20378000  0.11046200
   1.99559000  4.83793000  5.72017000
  -3.00081000  7.70204000  5.56816000
   6.88881005  4.81426000  0.10228500
  -0.63258700  6.24279000 11.17587201
   7.01422005  4.77599000  5.53104000
   1.97267000  7.76040000  5.51192000
   0.20220900  1.81640000  1.11889000
   2.76408000  0.43138500  0.99871600
   2.65521000  3.30304000  0.98471300
   1.10110003  0.41403143  6.48368000
   1.15662000  3.44889000  6.65833000
   3.90739000  1.88141000  6.58517000
   0.88688700  0.58825700 10.17520000
   1.24996000  3.27010000 10.12130000
   3.34540000  1.76696000 10.21030000
   0.18366400  2.00578000  4.51483000
   2.91908003  0.41545143  4.55155000
   3.00056000  3.58195000  4.56728000
   5.26918000  1.70990000  1.15920000
   7.67095000  0.59520200  1.05293000
   7.56466000  3.30984000  1.14084000
   6.16364003  0.37681143  6.50877000
   6.19082000  3.47382000  6.64203000
   8.82283005  1.93562000  6.72938000
   5.94920000  0.57944300 10.12260000
   6.14426000  3.35529000 10.20700000
   8.44829000  1.77462000 10.22730000
   5.37780000  1.87546000  4.55370000
   7.87076003  0.28439143  4.46106000
   7.86864005  3.48203000  4.48713000
   2.75626000  6.11889000  1.03781000
   5.31464000  4.82274000  1.09071000
   5.02927000  7.71594000  1.13982000
   3.62056000  4.87728000  6.78256000
   3.59308000  7.85884000  6.57596000
   6.27359005  6.26717000  6.66821000
   3.44155000  4.82100000 10.16470000
   3.62167000  7.68902000 10.23550000
   5.90390000  6.16660000 10.30010000
   2.72278000  6.25746000  4.64610000
   5.43655000  4.75623000  4.51707000
   5.41757005  7.84362000  4.54027000
  -2.28488000  6.14557000  1.04607000
   0.32999300  4.84712000  0.97879600
   0.00024146  7.66610000  0.97966800
  -1.39549000  4.63135000  6.66254000
  -1.41079000  7.73670000  6.68098000
   1.23626000  6.32749000  6.73581000
  -1.52136000  4.82869000 10.20290000
  -1.40846000  7.63840000 10.11900000
   0.98250600  6.15520000 10.20940000
  -2.20255000  6.11035000  4.50632000
   0.37156100  4.68075000  4.50741000
   0.42607700  7.74112000  4.52361000
 


--------------------------------------------------------------------------------------------------------


 k-point  1 :   0.0000 0.0000 0.0000  plane waves:   17725
 k-point  2 :   0.5000-0.0000-0.0000  plane waves:   17736
 k-point  3 :   0.0000 0.5000 0.0000  plane waves:   17736
 k-point  4 :   0.5000 0.5000-0.0000  plane waves:   17736
 k-point  5 :   0.0000 0.0000 0.5000  plane waves:   17676
 k-point  6 :   0.5000-0.0000 0.5000  plane waves:   17700
 k-point  7 :   0.0000 0.5000 0.5000  plane waves:   17700
 k-point  8 :   0.5000 0.5000 0.5000  plane waves:   17700

 maximum and minimum number of plane-waves per node :     17736    17676

 maximum number of plane-waves:     17736
 maximum index in each direction: 
   IXMAX=   16   IYMAX=   16   IZMAX=   18
   IXMIN=  -16   IYMIN=  -16   IZMIN=  -18


 serial   3D FFT for wavefunctions
 parallel 3D FFT for charge:
    minimum data exchange during FFTs selected (reduces bandwidth)


 total amount of memory used by VASP MPI-rank0    88191. kBytes
=======================================================================

   base      :      30000. kBytes
   nonlr-proj:      13682. kBytes
   fftplans  :        992. kBytes
   grid      :      21513. kBytes
   one-center:       2737. kBytes
   wavefun   :      19267. kBytes
 
     INWAV:  cpu time    0.0000: real time    0.0001
 Broyden mixing: mesh for mixing (old mesh)
   NGX = 33   NGY = 33   NGZ = 37
  (NGX  =100   NGY  =100   NGZ  =112)
  gives a total of  40293 points

 initial charge density was supplied:
 charge density of overlapping atoms calculated
 number of electron     672.0000000 magnetization      48.0000000
 keeping initial charge density in first step


--------------------------------------------------------------------------------------------------------


 Maximum index for non-local projection operator         1553
 Maximum index for augmentation-charges          280 (set IRDMAX)


--------------------------------------------------------------------------------------------------------


 First call to EWALD:  gamma=   0.179
 Maximum number of real-space cells 3x 3x 2
 Maximum number of reciprocal cells 3x 3x 3

    FEWALD:  cpu time    0.0023: real time    0.0029


--------------------------------------- Iteration      1(   1)  ---------------------------------------


    POTLOK:  cpu time    0.2042: real time    0.2059
    SETDIJ:  cpu time    3.0946: real time    3.0965
    EDDIAG:  cpu time    3.7282: real time    3.7367
  RMM-DIIS:  cpu time    6.6219: real time    6.6288
    ORTHCH:  cpu time    1.1581: real time    1.1615
       DOS:  cpu time    0.0017: real time    0.0018
    --------------------------------------------
      LOOP:  cpu time   14.8086: real time   14.8313

 eigenvalue-minimisations  :  7168
 total energy-change (2. order) : 0.1854487E+04  (-0.3593542E+05)
 number of electron     672.0000000 magnetization      48.0000000
 augmentation part      672.0000000 magnetization      48.0000000

 Free energy of the ion-electron system (eV)
  ---------------------------------------------------
  alpha Z        PSCENC =      2652.81237852
  Ewald energy   TEWEN  =    -41980.01315350
  -Hartree energ DENC   =    -25641.67354592
  -exchange      EXHF   =         0.00000000
  -V(xc)+E(xc)   XCENC  =      3605.60423634
  PAW double counting   =     55594.23204139   -59034.67079123
  entropy T*S    EENTRO =        -0.05534679
  eigenvalues    EBANDS =     -7203.94654122
  atomic energy  EATOM  =     73862.19814772
  Solvation  Ediel_sol  =         0.00000000
  ---------------------------------------------------
  free energy    TOTEN  =      1854.48742530 eV

  energy without entropy =     1854.54277209  energy(sigma->0) =     1854.51509870


--------------------------------------------------------------------------------------------------------




--------------------------------------- Iteration      1(   2)  ---------------------------------------


    EDDIAG:  cpu time    3.7047: real time    3.7109
  RMM-DIIS:  cpu time    6.6470: real time    6.6552
    ORTHCH:  cpu time    1.1405: real time    1.1429
       DOS:  cpu time    0.0015: real time    0.0015
    --------------------------------------------
      LOOP:  cpu time   11.4937: real time   11.5105

 eigenvalue-minimisations  :  7168
 total energy-change (2. order) :-0.2702467E+04  (-0.8684257E+04)
 number of electron     672.0000000 magnetization      48.0000000
 augmentation part      672.0000000 magnetization      48.0000000

 Free energy of the ion-electron system (eV)
  ---------------------------------------------------
  alpha Z        PSCENC =      2652.81237852
  Ewald energy   TEWEN  =    -41980.01315350
  -Hartree energ DENC   =    -25641.67354592
  -exchange      EXHF   =         0.00000000
  -V(xc)+E(xc)   XCENC  =      3605.60423634
  PAW double counting   =     55594.23204139   -59034.67079123
  entropy T*S    EENTRO =        -0.05383766
  eigenvalues    EBANDS =     -9906.41513689
  atomic energy  EATOM  =     73862.19814772
  Solvation  Ediel_sol  =         0.00000000
  ---------------------------------------------------
  free energy    TOTEN  =      -847.97966124 eV

  energy without entropy =     -847.92582357  energy(sigma->0) =     -847.95274240


--------------------------------------------------------------------------------------------------------




--------------------------------------- Iteration      1(   3)  ---------------------------------------


    EDDIAG:  cpu time    3.8196: real time    3.8378
  RMM-DIIS:  cpu time    6.5950: real time    6.6022
    ORTHCH:  cpu time    1.1560: real time    1.1584
       DOS:  cpu time    0.0015: real time    0.0015
    --------------------------------------------
      LOOP:  cpu time   11.5721: real time   11.5999

 eigenvalue-minimisations  :  7168
 total energy-change (2. order) : 0.3127958E+03  (-0.1557771E+04)
 number of electron     672.0000000 magnetization      48.0000000
 augmentation part      672.0000000 magnetization      48.0000000

 Free energy of the ion-electron system (eV)
  ---------------------------------------------------
  alpha Z        PSCENC =      2652.81237852
  Ewald energy   TEWEN  =    -41980.01315350
  -Hartree energ DENC   =    -25641.67354592
  -exchange      EXHF   =         0.00000000
  -V(xc)+E(xc)   XCENC  =      3605.60423634
  PAW double counting   =     55594.23204139   -59034.67079123
  entropy T*S    EENTRO =        -0.03614931
  eigenvalues    EBANDS =     -9593.63704588
  atomic energy  EATOM  =     73862.19814772
  Solvation  Ediel_sol  =         0.00000000
  ---------------------------------------------------
  free energy    TOTEN  =      -535.18388187 eV

  energy without entropy =     -535.14773257  energy(sigma->0) =     -535.16580722


--------------------------------------------------------------------------------------------------------




--------------------------------------- Iteration      1(   4)  ---------------------------------------


    EDDIAG:  cpu time    3.7463: real time    3.7510
  RMM-DIIS:  cpu time    6.6003: real time    6.6107
    ORTHCH:  cpu time    1.1444: real time    1.1467
       DOS:  cpu time    0.0012: real time    0.0012
    --------------------------------------------
      LOOP:  cpu time   11.4921: real time   11.5096

 eigenvalue-minimisations  :  7168
 total energy-change (2. order) :-0.5208147E+03  (-0.5050547E+03)
 number of electron     672.0000000 magnetization      48.0000000
 augmentation part      672.0000000 magnetization      48.0000000

 Free energy of the ion-electron system (eV)
  ---------------------------------------------------
  alpha Z        PSCENC =      2652.81237852
  Ewald energy   TEWEN  =    -41980.01315350
  -Hartree energ DENC   =    -25641.67354592
  -exchange      EXHF   =         0.00000000
  -V(xc)+E(xc)   XCENC  =      3605.60423634
  PAW double counting   =     55594.23204139   -59034.67079123
  entropy T*S    EENTRO =        -0.00315466
  eigenvalues    EBANDS =    -10114.48470476
  atomic energy  EATOM  =     73862.19814772
  Solvation  Ediel_sol  =         0.00000000
  ---------------------------------------------------
  free energy    TOTEN  =     -1055.99854610 eV

  energy without entropy =    -1055.99539145  energy(sigma->0) =    -1055.99696878


--------------------------------------------------------------------------------------------------------




--------------------------------------- Iteration      1(   5)  ---------------------------------------


    EDDIAG:  cpu time    3.7446: real time    3.7509
  RMM-DIIS:  cpu time    6.5810: real time    6.6063
    ORTHCH:  cpu time    1.1563: real time    1.1585
       DOS:  cpu time    0.0011: real time    0.0011
    --------------------------------------------
      LOOP:  cpu time   11.4829: real time   11.5167

 eigenvalue-minimisations  :  7168
 total energy-change (2. order) :-0.1482926E+03  (-0.2129932E+03)
 number of electron     672.0000000 magnetization      48.0000000
 augmentation part      672.0000000 magnetization      48.0000000

 Free energy of the ion-electron system (eV)
  ---------------------------------------------------
  alpha Z        PSCENC =      2652.81237852
  Ewald energy   TEWEN  =    -41980.01315350
  -Hartree energ DENC   =    -25641.67354592
  -exchange      EXHF   =         0.00000000
  -V(xc)+E(xc)   XCENC  =      3605.60423634
  PAW double counting   =     55594.23204139   -59034.67079123
  entropy T*S    EENTRO =        -0.00000000
  eigenvalues    EBANDS =    -10262.78049939
  atomic energy  EATOM  =     73862.19814772
  Solvation  Ediel_sol  =         0.00000000
  ---------------------------------------------------
  free energy    TOTEN  =     -1204.29118607 eV

  energy without entropy =    -1204.29118607  energy(sigma->0) =    -1204.29118607


--------------------------------------------------------------------------------------------------------




--------------------------------------- Iteration      1(   6)  ---------------------------------------


    EDDIAG:  cpu time    3.7804: real time    3.7844
  RMM-DIIS:  cpu time    6.5938: real time    6.5978
    ORTHCH:  cpu time    1.1548: real time    1.1582
       DOS:  cpu time    0.0012: real time    0.0012
    --------------------------------------------
      LOOP:  cpu time   11.5302: real time   11.5416

 eigenvalue-minimisations  :  7168
 total energy-change (2. order) :-0.2195097E+02  (-0.1154904E+03)
 number of electron     672.0000000 magnetization      48.0000000
 augmentation part      672.0000000 magnetization      48.0000000

 Free energy of the ion-electron system (eV)
  ---------------------------------------------------
  alpha Z        PSCENC =      2652.81237852
  Ewald energy   TEWEN  =    -41980.01315350
  -Hartree energ DENC   =    -25641.67354592
  -exchange      EXHF   =         0.00000000
  -V(xc)+E(xc)   XCENC  =      3605.60423634
  PAW double counting   =     55594.23204139   -59034.67079123
  entropy T*S    EENTRO =        -0.00000000
  eigenvalues    EBANDS =    -10284.73147157
  atomic energy  EATOM  =     73862.19814772
  Solvation  Ediel_sol  =         0.00000000
  ---------------------------------------------------
  free energy    TOTEN  =     -1226.24215826 eV

  energy without entropy =    -1226.24215826  energy(sigma->0) =    -1226.24215826


--------------------------------------------------------------------------------------------------------




--------------------------------------- Iteration      1(   7)  ---------------------------------------


    EDDIAG:  cpu time    3.7521: real time    3.7561
  RMM-DIIS:  cpu time    6.6064: real time    6.6123
    ORTHCH:  cpu time    1.1519: real time    1.1544
       DOS:  cpu time    0.0010: real time    0.0010
    --------------------------------------------
      LOOP:  cpu time   11.5115: real time   11.5238

 eigenvalue-minimisations  :  7168
 total energy-change (2. order) :-0.6804613E+01  (-0.7622416E+02)
 number of electron     672.0000000 magnetization      48.0000000
 augmentation part      672.0000000 magnetization      48.0000000

 Free energy of the ion-electron system (eV)
  ---------------------------------------------------
  alpha Z        PSCENC =      2652.81237852
  Ewald energy   TEWEN  =    -41980.01315350
  -Hartree energ DENC   =    -25641.67354592
  -exchange      EXHF   =         0.00000000
  -V(xc)+E(xc)   XCENC  =      3605.60423634
  PAW double counting   =     55594.23204139   -59034.67079123
  entropy T*S    EENTRO =        -0.00000000
  eigenvalues    EBANDS =    -10291.53608439
  atomic energy  EATOM  =     73862.19814772
  Solvation  Ediel_sol  =         0.00000000
  ---------------------------------------------------
  free energy    TOTEN  =     -1233.04677107 eV

  energy without entropy =    -1233.04677107  energy(sigma->0) =    -1233.04677107


--------------------------------------------------------------------------------------------------------




--------------------------------------- Iteration      1(   8)  ---------------------------------------


    EDDIAG:  cpu time    3.7431: real time    3.7621
  RMM-DIIS:  cpu time    6.5870: real time    6.5922
    ORTHCH:  cpu time    1.1550: real time    1.1579
       DOS:  cpu time    0.0016: real time    0.0016
    --------------------------------------------
      LOOP:  cpu time   11.4867: real time   11.5138

 eigenvalue-minimisations  :  7168
 total energy-change (2. order) : 0.4632118E+01  (-0.5263232E+02)
 number of electron     672.0000000 magnetization      48.0000000
 augmentation part      672.0000000 magnetization      48.0000000

 Free energy of the ion-electron system (eV)
  ---------------------------------------------------
  alpha Z        PSCENC =      2652.81237852
  Ewald energy   TEWEN  =    -41980.01315350
  -Hartree energ DENC   =    -25641.67354592
  -exchange      EXHF   =         0.00000000
  -V(xc)+E(xc)   XCENC  =      3605.60423634
  PAW double counting   =     55594.23204139   -59034.67079123
  entropy T*S    EENTRO =        -0.00000000
  eigenvalues    EBANDS =    -10286.90396636
  atomic energy  EATOM  =     73862.19814772
  Solvation  Ediel_sol  =         0.00000000
  ---------------------------------------------------
  free energy    TOTEN  =     -1228.41465305 eV

  energy without entropy =    -1228.41465305  energy(sigma->0) =    -1228.41465305


--------------------------------------------------------------------------------------------------------




--------------------------------------- Iteration      1(   9)  ---------------------------------------


    EDDIAG:  cpu time    3.7210: real time    3.7243
  RMM-DIIS:  cpu time   13.8391: real time   13.8535
    ORTHCH:  cpu time    1.1531: real time    1.1553
       DOS:  cpu time    0.0011: real time    0.0011
    --------------------------------------------
      LOOP:  cpu time   18.7143: real time   18.7342

 eigenvalue-minimisations  : 20259
 total energy-change (2. order) : 0.1795515E+02  (-0.2355398E+02)
 number of electron     672.0000000 magnetization      48.0000000
 augmentation part      672.0000000 magnetization      48.0000000

 Free energy of the ion-electron system (eV)
  ---------------------------------------------------
  alpha Z        PSCENC =      2652.81237852
  Ewald energy   TEWEN  =    -41980.01315350
  -Hartree energ DENC   =    -25641.67354592
  -exchange      EXHF   =         0.00000000
  -V(xc)+E(xc)   XCENC  =      3605.60423634
  PAW double counting   =     55594.23204139   -59034.67079123
  entropy T*S    EENTRO =        -0.00000000
  eigenvalues    EBANDS =    -10268.94881985
  atomic energy  EATOM  =     73862.19814772
  Solvation  Ediel_sol  =         0.00000000
  ---------------------------------------------------
  free energy    TOTEN  =     -1210.45950654 eV

  energy without entropy =    -1210.45950654  energy(sigma->0) =    -1210.45950654


--------------------------------------------------------------------------------------------------------




--------------------------------------- Iteration      1(  10)  ---------------------------------------


    EDDIAG:  cpu time    3.7337: real time    3.7543
  RMM-DIIS:  cpu time   15.7762: real time   15.7877
    ORTHCH:  cpu time    1.1547: real time    1.1571
       DOS:  cpu time    0.0011: real time    0.0011
    --------------------------------------------
      LOOP:  cpu time   20.6658: real time   20.7001

 eigenvalue-minimisations  : 20276
 total energy-change (2. order) :-0.3081921E+01  (-0.1042083E+01)
 number of electron     672.0000000 magnetization      48.0000000
 augmentation part      672.0000000 magnetization      48.0000000

 Free energy of the ion-electron system (eV)
  ---------------------------------------------------
  alpha Z        PSCENC =      2652.81237852
  Ewald energy   TEWEN  =    -41980.01315350
  -Hartree energ DENC   =    -25641.67354592
  -exchange      EXHF   =         0.00000000
  -V(xc)+E(xc)   XCENC  =      3605.60423634
  PAW double counting   =     55594.23204139   -59034.67079123
  entropy T*S    EENTRO =        -0.00000005
  eigenvalues    EBANDS =    -10272.03074084
  atomic energy  EATOM  =     73862.19814772
  Solvation  Ediel_sol  =         0.00000000
  ---------------------------------------------------
  free energy    TOTEN  =     -1213.54142758 eV

  energy without entropy =    -1213.54142753  energy(sigma->0) =    -1213.54142755


--------------------------------------------------------------------------------------------------------




--------------------------------------- Iteration      1(  11)  ---------------------------------------


    EDDIAG:  cpu time    3.7346: real time    3.7396
  RMM-DIIS:  cpu time   15.0129: real time   15.1266
    ORTHCH:  cpu time    1.1569: real time    1.1593
       DOS:  cpu time    0.0011: real time    0.0011
    --------------------------------------------
      LOOP:  cpu time   19.9056: real time   20.0266

 eigenvalue-minimisations  : 21686
 total energy-change (2. order) : 0.1018343E+00  (-0.9892258E-01)
 number of electron     672.0000000 magnetization      48.0000000
 augmentation part      672.0000000 magnetization      48.0000000

 Free energy of the ion-electron system (eV)
  ---------------------------------------------------
  alpha Z        PSCENC =      2652.81237852
  Ewald energy   TEWEN  =    -41980.01315350
  -Hartree energ DENC   =    -25641.67354592
  -exchange      EXHF   =         0.00000000
  -V(xc)+E(xc)   XCENC  =      3605.60423634
  PAW double counting   =     55594.23204139   -59034.67079123
  entropy T*S    EENTRO =        -0.00000011
  eigenvalues    EBANDS =    -10271.92890649
  atomic energy  EATOM  =     73862.19814772
  Solvation  Ediel_sol  =         0.00000000
  ---------------------------------------------------
  free energy    TOTEN  =     -1213.43959329 eV

  energy without entropy =    -1213.43959318  energy(sigma->0) =    -1213.43959323


--------------------------------------------------------------------------------------------------------




--------------------------------------- Iteration      1(  12)  ---------------------------------------


    EDDIAG:  cpu time    3.7188: real time    3.7225
  RMM-DIIS:  cpu time   16.0955: real time   16.1127
    ORTHCH:  cpu time    1.1481: real time    1.1505
       DOS:  cpu time    0.0013: real time    0.0013
    CHARGE:  cpu time    1.3251: real time    1.3577
    MIXING:  cpu time    0.0014: real time    0.0016
    --------------------------------------------
      LOOP:  cpu time   22.2902: real time   22.3462

 eigenvalue-minimisations  : 22809
 total energy-change (2. order) : 0.7427253E-02  (-0.6542292E-02)
 number of electron     672.0000009 magnetization      47.9999966
 augmentation part      239.0401461 magnetization      29.0277024

 Broyden mixing:
  rms(total) = 0.12566E+02    rms(broyden)= 0.12556E+02
  rms(prec ) = 0.14418E+02
  weight for this iteration     100.00

 Free energy of the ion-electron system (eV)
  ---------------------------------------------------
  alpha Z        PSCENC =      2652.81237852
  Ewald energy   TEWEN  =    -41980.01315350
  -Hartree energ DENC   =    -25641.67354592
  -exchange      EXHF   =         0.00000000
  -V(xc)+E(xc)   XCENC  =      3605.60423634
  PAW double counting   =     55594.23204139   -59034.67079123
  entropy T*S    EENTRO =        -0.00000010
  eigenvalues    EBANDS =    -10271.92147925
  atomic energy  EATOM  =     73862.19814772
  Solvation  Ediel_sol  =         0.00000000
  ---------------------------------------------------
  free energy    TOTEN  =     -1213.43216604 eV

  energy without entropy =    -1213.43216594  energy(sigma->0) =    -1213.43216599


--------------------------------------------------------------------------------------------------------




--------------------------------------- Iteration      1(  13)  ---------------------------------------


    POTLOK:  cpu time    0.1980: real time    0.1989
    SETDIJ:  cpu time    3.2673: real time    3.2682
    EDDIAG:  cpu time    3.8134: real time    3.8171
  RMM-DIIS:  cpu time   13.1186: real time   13.1291
    ORTHCH:  cpu time    1.1731: real time    1.1762
       DOS:  cpu time    0.0020: real time    0.0020
    CHARGE:  cpu time    1.3431: real time    1.3443
    MIXING:  cpu time    0.0007: real time    0.0008
    --------------------------------------------
      LOOP:  cpu time   22.9162: real time   22.9368

 eigenvalue-minimisations  : 17344
 total energy-change (2. order) : 0.2233992E+03  (-0.1384838E+03)
 number of electron     672.0000047 magnetization      47.9999956
 augmentation part      269.1915693 magnetization      26.3707353

 Broyden mixing:
  rms(total) = 0.14037E+02    rms(broyden)= 0.14034E+02
  rms(prec ) = 0.15794E+02
  weight for this iteration     100.00

 eigenvalues of (default mixing * dielectric matrix)
  average eigenvalue GAMMA=   0.3168
  0.3168

 Free energy of the ion-electron system (eV)
  ---------------------------------------------------
  alpha Z        PSCENC =      2652.81237852
  Ewald energy   TEWEN  =    -41980.01315350
  -Hartree energ DENC   =    -24967.48191412
  -exchange      EXHF   =         0.00000000
  -V(xc)+E(xc)   XCENC  =      3695.86812500
  PAW double counting   =     59884.08822282   -63309.08889686
  entropy T*S    EENTRO =        -0.08238514
  eigenvalues    EBANDS =    -10828.33352589
  atomic energy  EATOM  =     73862.19814772
  Solvation  Ediel_sol  =         0.00000000
  ---------------------------------------------------
  free energy    TOTEN  =      -990.03300144 eV

  energy without entropy =     -989.95061630  energy(sigma->0) =     -989.99180887


--------------------------------------------------------------------------------------------------------




--------------------------------------- Iteration      1(  14)  ---------------------------------------


    POTLOK:  cpu time    0.2054: real time    0.2064
    SETDIJ:  cpu time    3.2609: real time    3.2622
    EDDIAG:  cpu time    3.7514: real time    3.7728
  RMM-DIIS:  cpu time   13.7313: real time   13.7419
    ORTHCH:  cpu time    1.1689: real time    1.1712
       DOS:  cpu time    0.0010: real time    0.0010
    CHARGE:  cpu time    1.3665: real time    1.3672
    MIXING:  cpu time    0.0007: real time    0.0007
    --------------------------------------------
      LOOP:  cpu time   23.4862: real time   23.5233

 eigenvalue-minimisations  : 17752
 total energy-change (2. order) : 0.7512082E+02  (-0.1903203E+02)
 number of electron     672.0000018 magnetization      47.9999931
 augmentation part      246.5954324 magnetization      32.1715523

 Broyden mixing:
  rms(total) = 0.52614E+01    rms(broyden)= 0.52569E+01
  rms(prec ) = 0.56888E+01
  weight for this iteration     100.00

 eigenvalues of (default mixing * dielectric matrix)
  average eigenvalue GAMMA=   0.7284
  1.0987  0.3581

 Free energy of the ion-electron system (eV)
  ---------------------------------------------------
  alpha Z        PSCENC =      2652.81237852
  Ewald energy   TEWEN  =    -41980.01315350
  -Hartree energ DENC   =    -25580.55174271
  -exchange      EXHF   =         0.00000000
  -V(xc)+E(xc)   XCENC  =      3673.34186657
  PAW double counting   =     63299.30646642   -66781.30271847
  entropy T*S    EENTRO =        -0.00000000
  eigenvalues    EBANDS =    -10060.70343091
  atomic energy  EATOM  =     73862.19814772
  Solvation  Ediel_sol  =         0.00000000
  ---------------------------------------------------
  free energy    TOTEN  =      -914.91218636 eV

  energy without entropy =     -914.91218636  energy(sigma->0) =     -914.91218636


--------------------------------------------------------------------------------------------------------




--------------------------------------- Iteration      1(  15)  ---------------------------------------


    POTLOK:  cpu time    0.2003: real time    0.2021
    SETDIJ:  cpu time    3.2637: real time    3.2655
    EDDIAG:  cpu time    3.7417: real time    3.7446
  RMM-DIIS:  cpu time   13.6730: real time   13.7235
    ORTHCH:  cpu time    1.1540: real time    1.1563
       DOS:  cpu time    0.0012: real time    0.0012
    CHARGE:  cpu time    1.3392: real time    1.3404
    MIXING:  cpu time    0.0006: real time    0.0006
    --------------------------------------------
      LOOP:  cpu time   23.3737: real time   23.4342

 eigenvalue-minimisations  : 18444
 total energy-change (2. order) : 0.1384976E+02  (-0.2210883E+01)
 number of electron     672.0000026 magnetization      47.9999916
 augmentation part      249.6557843 magnetization      33.7978490

 Broyden mixing:
  rms(total) = 0.22043E+01    rms(broyden)= 0.22039E+01
  rms(prec ) = 0.22901E+01
  weight for this iteration     100.00

 eigenvalues of (default mixing * dielectric matrix)
  average eigenvalue GAMMA=   0.9278
  1.6623  0.3839  0.7372

 Free energy of the ion-electron system (eV)
  ---------------------------------------------------
  alpha Z        PSCENC =      2652.81237852
  Ewald energy   TEWEN  =    -41980.01315350
  -Hartree energ DENC   =    -25499.50231401
  -exchange      EXHF   =         0.00000000
  -V(xc)+E(xc)   XCENC  =      3706.07046184
  PAW double counting   =     67386.64583034   -70909.01903974
  entropy T*S    EENTRO =        -0.00000000
  eigenvalues    EBANDS =    -10120.25473987
  atomic energy  EATOM  =     73862.19814772
  Solvation  Ediel_sol  =         0.00000000
  ---------------------------------------------------
  free energy    TOTEN  =      -901.06242870 eV

  energy without entropy =     -901.06242870  energy(sigma->0) =     -901.06242870


--------------------------------------------------------------------------------------------------------




--------------------------------------- Iteration      1(  16)  ---------------------------------------


    POTLOK:  cpu time    0.2056: real time    0.2070
    SETDIJ:  cpu time    3.2950: real time    3.2968
    EDDIAG:  cpu time    3.7804: real time    3.7835
  RMM-DIIS:  cpu time   13.0175: real time   13.1029
    ORTHCH:  cpu time    1.1548: real time    1.1572
       DOS:  cpu time    0.0010: real time    0.0010
    CHARGE:  cpu time    1.3468: real time    1.3474
    MIXING:  cpu time    0.0009: real time    0.0009
    --------------------------------------------
      LOOP:  cpu time   22.8020: real time   22.8967

 eigenvalue-minimisations  : 17468
 total energy-change (2. order) :-0.1413356E+01  (-0.7005895E+00)
 number of electron     672.0000029 magnetization      47.9999912
 augmentation part      251.0893776 magnetization      33.9035484

 Broyden mixing:
  rms(total) = 0.14905E+01    rms(broyden)= 0.14900E+01
  rms(prec ) = 0.15735E+01
  weight for this iteration     100.00

 eigenvalues of (default mixing * dielectric matrix)
  average eigenvalue GAMMA=   0.9630
  2.0633  0.8912  0.3902  0.5075

 Free energy of the ion-electron system (eV)
  ---------------------------------------------------
  alpha Z        PSCENC =      2652.81237852
  Ewald energy   TEWEN  =    -41980.01315350
  -Hartree energ DENC   =    -25449.75129115
  -exchange      EXHF   =         0.00000000
  -V(xc)+E(xc)   XCENC  =      3707.08344596
  PAW double counting   =     70232.79968287   -73784.01068631
  entropy T*S    EENTRO =        -0.00000000
  eigenvalues    EBANDS =    -10143.59430865
  atomic energy  EATOM  =     73862.19814772
  Solvation  Ediel_sol  =         0.00000000
  ---------------------------------------------------
  free energy    TOTEN  =      -902.47578455 eV

  energy without entropy =     -902.47578455  energy(sigma->0) =     -902.47578455


--------------------------------------------------------------------------------------------------------




--------------------------------------- Iteration      1(  17)  ---------------------------------------


    POTLOK:  cpu time    0.2102: real time    0.2110
    SETDIJ:  cpu time    3.3069: real time    3.3086
    EDDIAG:  cpu time    3.7464: real time    3.7505
  RMM-DIIS:  cpu time   13.6690: real time   13.6794
    ORTHCH:  cpu time    1.1483: real time    1.1519
       DOS:  cpu time    0.0010: real time    0.0010
    CHARGE:  cpu time    1.3453: real time    1.3457
    MIXING:  cpu time    0.0015: real time    0.0015
    --------------------------------------------
      LOOP:  cpu time   23.4285: real time   23.4496

 eigenvalue-minimisations  : 18549
 total energy-change (2. order) : 0.1030768E+00  (-0.8524151E-01)
 number of electron     672.0000030 magnetization      47.9999910
 augmentation part      251.0962462 magnetization      33.9056304

 Broyden mixing:
  rms(total) = 0.78855E+00    rms(broyden)= 0.78836E+00
  rms(prec ) = 0.89101E+00
  weight for this iteration     100.00

 eigenvalues of (default mixing * dielectric matrix)
  average eigenvalue GAMMA=   0.9858
  2.2174  1.1058  0.3791  0.6769  0.5497

 Free energy of the ion-electron system (eV)
  ---------------------------------------------------
  alpha Z        PSCENC =      2652.81237852
  Ewald energy   TEWEN  =    -41980.01315350
  -Hartree energ DENC   =    -25439.37863015
  -exchange      EXHF   =         0.00000000
  -V(xc)+E(xc)   XCENC  =      3704.53811046
  PAW double counting   =     71145.91661020   -74706.09567526
  entropy T*S    EENTRO =        -0.00000000
  eigenvalues    EBANDS =    -10142.35049577
  atomic energy  EATOM  =     73862.19814772
  Solvation  Ediel_sol  =         0.00000000
  ---------------------------------------------------
  free energy    TOTEN  =      -902.37270778 eV

  energy without entropy =     -902.37270778  energy(sigma->0) =     -902.37270778


--------------------------------------------------------------------------------------------------------




--------------------------------------- Iteration      1(  18)  ---------------------------------------


    POTLOK:  cpu time    0.2011: real time    0.2021
    SETDIJ:  cpu time    3.2870: real time    3.3004
    EDDIAG:  cpu time    3.7498: real time    3.7531
  RMM-DIIS:  cpu time   13.3913: real time   13.4017
    ORTHCH:  cpu time    1.1694: real time    1.1728
       DOS:  cpu time    0.0013: real time    0.0013
    CHARGE:  cpu time    1.3478: real time    1.3486
    MIXING:  cpu time    0.0009: real time    0.0009
    --------------------------------------------
      LOOP:  cpu time   23.1484: real time   23.1808

 eigenvalue-minimisations  : 17689
 total energy-change (2. order) : 0.4106534E+00  (-0.7202630E-01)
 number of electron     672.0000028 magnetization      47.9999909
 augmentation part      250.6029053 magnetization      33.8741332

 Broyden mixing:
  rms(total) = 0.30209E+00    rms(broyden)= 0.30183E+00
  rms(prec ) = 0.31953E+00
  weight for this iteration     100.00

 eigenvalues of (default mixing * dielectric matrix)
  average eigenvalue GAMMA=   1.0139
[...]
   4      -0.732    -0.648     1.381     0.194     0.333    -0.240
   5      -0.922    -0.714     1.635    -0.070     0.442     0.265
   6      -0.652    -0.885     1.538     0.011     0.007    -0.510
   7      -0.908    -0.992     1.900     0.033    -0.016    -0.022
   8      -0.904    -0.957     1.861     0.078    -0.003     0.074
   9      -0.747    -0.673     1.421     0.111    -0.445     0.280
  10      -0.844    -1.021     1.865     0.042     0.154    -0.012
  11      -0.952    -0.804     1.757     0.085    -0.109     0.096
  12      -0.743    -0.691     1.434     0.124     0.313    -0.115
  13      -0.872    -0.716     1.588    -0.134    -0.421    -0.295
  14      -0.676    -0.838     1.513     0.022     0.045     0.464
  15      -0.778    -0.738     1.516     0.183    -0.339     0.219
  16      -0.507    -0.881     1.388     0.085     0.010    -0.324
  17       1.673     1.263    -2.937     0.067     0.146     0.101
  18       1.395     1.470    -2.865     0.021    -0.001     0.096
  19       1.298     1.525    -2.823    -0.009    -0.001    -0.088
  20       1.322     1.628    -2.950     0.251    -0.013    -0.015
  21       1.293     1.647    -2.940     0.225     0.001    -0.005
  22       1.502     1.366    -2.868    -0.064    -0.081    -0.022
  23       1.475     1.443    -2.918     0.064     0.139     0.051
  24       1.347     1.440    -2.787     0.150     0.071    -0.046
  25      -0.115    -0.047     0.162     0.652    -0.545    -0.070
  26       0.114    -0.087    -0.027    -0.890     0.551     0.639
  27      -0.806     0.430     0.376    -0.895     0.183    -0.462
  28      -0.027    -0.313     0.340     0.556    -1.898     2.271
  29      -0.579     0.457     0.122     0.458    -0.111     0.174
  30       1.363     0.316    -1.679    -0.438     0.181     1.635
  31      -1.921    -0.038     1.959    -0.033    -0.602    -0.980
  32       1.289     1.461    -2.750     1.257     1.809    -0.082
  33      -0.538    -0.500     1.038     0.698     1.571    -0.354
  34      -1.492     0.568     0.925     0.828     2.114    -0.474
  35       0.408    -0.665     0.257    -1.340     0.067    -0.112
  36      -0.831    -0.564     1.395     1.278    -0.797     1.563
  37      -0.956    -0.423     1.378    -0.640     0.391    -0.369
  38      -0.655    -0.988     1.643     0.715     0.424    -1.336
  39      -0.028     0.945    -0.917     0.092     0.674     0.671
  40      -1.164     0.498     0.666    -0.093     0.881    -0.104
  41      -3.468     3.631    -0.162    -4.780     0.713    -3.395
  42      -2.262     1.200     1.062     4.916     3.844     3.626
  43       4.604    -5.573     0.969    -1.468    -4.189     1.389
  44      -3.446     0.892     2.555     5.896    -2.159    -5.616
  45      -2.526     0.144     2.382    -5.325    -1.783     4.274
  46       6.246    -7.983     1.737    -0.124     4.232     0.989
  47      -3.444     3.969    -0.524    -4.319     2.118    -3.876
  48       6.141    -5.455    -0.686    -2.051    -3.631     0.593
  49      -3.825     2.547     1.278     6.484     3.592     4.461
  50       5.358    -5.386     0.028     0.874     3.906     0.913
  51      -2.351     1.461     0.890    -4.164    -2.374     3.593
  52      -3.233     4.458    -1.224     5.826    -2.463    -1.866
  53      -2.968     5.115    -2.147    -5.733     1.706    -1.813
  54      -3.476     2.153     1.323     4.620     3.245     3.933
  55       5.743    -7.043     1.300    -1.616    -5.057     0.185
  56      -5.404     4.243     1.161     3.002    -1.886    -4.253
  57      -3.098     2.706     0.391    -4.372    -2.047     3.666
  58       7.599    -7.426    -0.172     1.486     5.728    -0.529
  59      -4.521     3.436     1.085    -3.926     2.343    -3.614
  60       5.772    -4.640    -1.131     0.063    -3.910     0.898
  61      -2.091     1.504     0.587     6.926     1.009     5.166
  62       3.345    -4.800     1.455     1.828     6.642    -0.622
  63      -0.762     2.149    -1.387    -7.067    -1.210     3.223
  64      -2.908     2.724     0.184     5.983    -2.691    -4.285
  65      -4.681     2.899     1.782    -3.788     1.925    -4.627
  66      -4.848     1.863     2.985     3.879     3.286     5.111
  67       5.251    -5.797     0.546    -1.229    -3.354    -1.773
  68      -3.540     1.724     1.817     3.480    -2.821    -4.598
  69      -2.911     1.926     0.985    -5.479    -1.558     4.455
  70       5.670    -5.392    -0.278    -1.040     4.089     1.626
  71      -4.989     4.637     0.352    -4.904     3.116    -3.746
  72       5.335    -5.729     0.393     0.772    -4.329     0.541
  73      -3.479     3.648    -0.169     5.138     2.933     4.016
  74       4.604    -5.875     1.271     0.956     4.633     2.165
  75      -5.408     4.721     0.687    -3.876    -2.094     4.270
  76      -3.751     3.049     0.702     4.037    -4.056    -3.521
  77      -1.724     0.117     1.607    -6.139     1.770    -4.702
  78      -0.932     0.708     0.225     4.935     1.853     3.904
  79       6.565    -5.276    -1.289    -0.627    -3.567    -1.378
  80      -1.342     1.790    -0.448     5.313    -1.102    -3.639
  81      -2.710     1.690     1.020    -4.893    -2.264     4.386
  82       4.704    -5.564     0.860     1.892     3.338    -0.987
  83      -2.633     1.396     1.237    -4.064     2.729    -3.756
  84       4.884    -6.675     1.790     0.023    -5.054     0.387
  85      -4.376     2.130     2.246     4.529     4.364     3.389
  86       4.277    -5.816     1.539    -1.492     5.077    -0.066
  87      -2.713     3.583    -0.870    -5.488    -2.271     3.353
  88      -5.305     4.200     1.105     3.893    -1.727    -5.364
 ---------------------------------------------------------------------


 Total hyperfine coupling parameters after diagonalization (MHz)
 (convention: |A_zz| > |A_xx| > |A_yy|)
 ----------------------------------------------------------------------
  ion      A_xx      A_yy      A_zz     asymmetry (A_yy - A_xx)/ A_zz 
 ----------------------------------------------------------------------
   1       2.048     1.739     4.366      -0.071
   2       1.999     1.577     4.194      -0.100
   3       1.624     1.268     3.641      -0.098
   4       1.779     1.311     3.724      -0.126
   5       2.550     2.208     4.982      -0.069
   6       1.639     1.302     3.932      -0.086
   7      -0.397    -0.290     2.507       0.043
   8       0.105    -0.061     2.816      -0.059
   9       1.777     1.427     3.908      -0.090
  10       0.448     0.259     3.164      -0.060
  11       0.728     0.497     3.260      -0.071
  12       2.242     1.949     4.319      -0.068
  13       2.873     2.465     5.201      -0.078
  14       1.814     1.563     4.092      -0.061
  15       1.949     1.519     4.106      -0.105
  16       0.929     0.477     2.853      -0.159
  17      13.860     9.662    14.295      -0.294
  18      15.525    11.268    15.613      -0.273
  19      13.436     9.314    13.667      -0.302
  20      14.062     9.931    14.650      -0.282
  21      14.694    10.570    15.267      -0.270
  22      13.187     8.977    13.375      -0.315
  23      14.891    10.574    15.026      -0.287
  24      11.816     7.790    12.129      -0.332
  25      94.884    94.012    95.742      -0.009
  26      97.577    95.686    97.996      -0.019
  27      99.147    97.791   100.265      -0.014
  28     101.721    98.109   104.127      -0.035
  29      97.823    96.917    98.360      -0.009
  30      95.319    91.675    95.925      -0.038
  31      99.405    97.772   102.231      -0.016
  32      95.676    91.588    98.000      -0.042
  33      96.859    95.004    98.946      -0.019
  34      98.390    94.590    99.717      -0.038
  35      95.303    93.484    96.385      -0.019
  36      99.657    96.591   101.518      -0.030
  37      97.894    96.677    99.625      -0.012
  38      96.835    94.965    99.210      -0.019
  39      92.280    90.696    93.347      -0.017
  40      92.796    90.808    93.381      -0.021
  41       7.676     3.122    16.666      -0.273
  42       5.061     1.480    15.848      -0.226
  43       5.830     1.677    15.232      -0.273
  44       4.273    -1.588    16.036      -0.365
  45       6.403     0.590    15.420      -0.377
  46       8.291     0.874    17.776      -0.417
  47       4.216     1.484    15.128      -0.181
  48       4.758     1.186    15.037      -0.238
  49       6.564     0.915    19.061      -0.296
  50       7.369     3.818    16.892      -0.210
  51       6.056     3.120    15.259      -0.192
  52       7.169     2.183    17.308      -0.288
  53       6.183     2.660    17.355      -0.203
  54       3.583    -0.513    14.071      -0.291
  55       6.257     0.887    17.337      -0.310
  56       7.306     2.785    17.271      -0.262
  57       6.178     2.813    15.780      -0.213
  58       6.897     2.027    20.509      -0.237
  59       6.644     1.911    15.906      -0.298
  60       5.930     3.496    16.028      -0.152
  61       6.821    -0.147    17.518      -0.398
  62      -4.253    -0.879    11.201       0.301
  63       5.791     1.177    16.904      -0.273
  64       5.013     0.925    16.952      -0.241
  65       5.606     1.421    15.982      -0.262
  66       4.624     0.500    16.597      -0.249
  67       5.917    -0.368    13.277      -0.473
  68       2.496    -0.087    13.323      -0.194
  69       5.207     0.190    15.258      -0.329
  70       5.607     0.711    14.791      -0.331
  71       6.866     1.305    17.868      -0.311
  72       2.857    -1.147    12.646      -0.317
  73       7.865     4.260    19.545      -0.184
  74       4.978     0.150    14.799      -0.326
  75       5.835     1.049    16.624      -0.288
  76       4.112    -0.746    14.073      -0.345
  77       7.172     0.983    17.055      -0.363
  78       2.996    -0.491    12.303      -0.283
  79       6.282     2.288    16.201      -0.246
  80       6.185     2.162    15.296      -0.263
  81       5.044     1.411    15.552      -0.234
  82       5.187    -0.643    12.389      -0.471
  83       5.662     2.698    15.281      -0.194
  84       4.947     0.173    15.498      -0.308
  85       5.587    -0.637    15.406      -0.404
  86       4.504     0.546    14.936      -0.265
  87       2.746    -0.577    13.841      -0.240
  88       6.708     2.716    18.828      -0.212
 ---------------------------------------------------------------------



--------------------------------------------------------------------------------------------------------


 stress matrix after NEB project (eV)
    -44.87826     -1.61340     -2.73708
     -1.61967    -47.92156      0.58115
     -2.71752      0.58603    -61.11542
  FORCES: max atom, RMS     2.684563    1.107185
  FORCE total and by dimension   10.386318    2.021999
  Stress total and by dimension   89.813206   61.115415
     LOOP+:  cpu time  589.4858: real time  590.7212
    4ORBIT:  cpu time    0.0000: real time    0.0000
 


 total charge     
 
# of ion       s       p       d       tot
------------------------------------------
    1        0.050   5.993   0.000   6.043
    2        0.049   5.991   0.000   6.039
    3        0.048   5.990   0.000   6.038
    4        0.053   5.997   0.000   6.050
    5        0.052   5.994   0.000   6.046
    6        0.050   5.992   0.000   6.043
    7        0.052   5.997   0.000   6.049
    8        0.047   5.990   0.000   6.037
    9        0.053   5.996   0.000   6.050
   10        0.053   5.998   0.000   6.051
   11        0.053   5.997   0.000   6.050
   12        0.050   5.993   0.000   6.043
   13        0.048   5.990   0.000   6.038
   14        0.049   5.991   0.000   6.039
   15        0.054   5.998   0.000   6.052
   16        0.053   5.997   0.000   6.050
   17        0.147   6.125   0.081   6.353
   18        0.143   6.117   0.076   6.335
   19        0.144   6.120   0.078   6.342
   20        0.153   6.133   0.088   6.374
   21        0.150   6.129   0.084   6.363
   22        0.147   6.126   0.082   6.355
   23        0.146   6.123   0.080   6.348
   24        0.148   6.125   0.081   6.355
   25        0.381   6.462   4.845  11.688
   26        0.381   6.467   4.839  11.686
   27        0.374   6.448   4.834  11.657
   28        0.355   6.412   4.797  11.564
   29        0.374   6.452   4.832  11.657
   30        0.380   6.465   4.841  11.686
   31        0.376   6.456   4.834  11.665
   32        0.373   6.453   4.827  11.653
   33        0.387   6.479   4.855  11.721
   34        0.371   6.449   4.824  11.644
   35        0.364   6.430   4.803  11.596
   36        0.362   6.424   4.800  11.585
   37        0.380   6.462   4.844  11.686
   38        0.377   6.455   4.831  11.663
   39        0.385   6.474   4.852  11.712
   40        0.402   6.508   4.889  11.799
   41        1.597   3.503   0.000   5.100
   42        1.598   3.511   0.000   5.109
   43        1.602   3.516   0.000   5.118
   44        1.602   3.516   0.000   5.118
   45        1.598   3.495   0.000   5.093
   46        1.600   3.498   0.000   5.098
   47        1.598   3.505   0.000   5.103
   48        1.601   3.504   0.000   5.104
   49        1.603   3.511   0.000   5.114
   50        1.598   3.510   0.000   5.108
   51        1.596   3.509   0.000   5.105
   52        1.601   3.488   0.000   5.089
   53        1.600   3.479   0.000   5.080
   54        1.599   3.524   0.000   5.123
   55        1.601   3.479   0.000   5.080
   56        1.603   3.566   0.000   5.169
   57        1.598   3.526   0.000   5.124
   58        1.603   3.472   0.000   5.074
   59        1.597   3.490   0.000   5.087
   60        1.598   3.512   0.000   5.109
   61        1.603   3.504   0.000   5.107
   62        1.601   3.471   0.000   5.073
   63        1.600   3.508   0.000   5.108
   64        1.603   3.480   0.000   5.083
   65        1.598   3.514   0.000   5.111
   66        1.600   3.522   0.000   5.122
   67        1.595   3.490   0.000   5.085
   68        1.599   3.481   0.000   5.080
   69        1.598   3.490   0.000   5.088
   70        1.599   3.466   0.000   5.065
   71        1.600   3.510   0.000   5.111
   72        1.598   3.489   0.000   5.087
   73        1.603   3.517   0.000   5.120
   74        1.600   3.517   0.000   5.116
   75        1.600   3.520   0.000   5.120
   76        1.597   3.494   0.000   5.091
   77        1.599   3.527   0.000   5.126
   78        1.597   3.520   0.000   5.117
   79        1.602   3.521   0.000   5.122
   80        1.599   3.512   0.000   5.111
   81        1.597   3.497   0.000   5.094
   82        1.595   3.493   0.000   5.088
   83        1.596   3.516   0.000   5.112
   84        1.598   3.499   0.000   5.097
   85        1.598   3.508   0.000   5.106
   86        1.598   3.495   0.000   5.093
   87        1.598   3.469   0.000   5.067
   88        1.602   3.502   0.000   5.104
--------------------------------------------------
tot         84.779 416.338  77.996 579.113
 


 magnetization (x)
 
# of ion       s       p       d       tot
------------------------------------------
    1        0.002   0.000   0.000   0.002
    2        0.002   0.000   0.000   0.002
    3        0.002   0.001   0.000   0.002
    4        0.001   0.000   0.000   0.002
    5        0.002   0.000   0.000   0.002
    6        0.002   0.000   0.000   0.002
    7        0.000   0.000   0.000   0.001
    8        0.001   0.000   0.000   0.001
    9        0.002   0.000   0.000   0.002
   10        0.001   0.001   0.000   0.001
   11        0.001   0.000   0.000   0.002
   12        0.002   0.001   0.000   0.003
   13        0.003   0.001   0.000   0.003
   14        0.002   0.000   0.000   0.002
   15        0.002   0.001   0.000   0.002
   16        0.001   0.000   0.000   0.002
   17        0.007   0.002   0.001   0.010
   18        0.008   0.003   0.001   0.012
   19        0.007   0.002   0.001   0.009
   20        0.007   0.002   0.001   0.011
   21        0.008   0.002   0.001   0.011
   22        0.007   0.002   0.001   0.010
   23        0.008   0.003   0.001   0.012
   24        0.006   0.001   0.001   0.009
   25        0.014   0.030   2.740   2.784
   26        0.015   0.031   2.743   2.790
   27        0.016   0.031   2.750   2.797
   28        0.016   0.029   2.809   2.854
   29        0.016   0.031   2.749   2.796
   30        0.015   0.030   2.734   2.780
   31        0.016   0.031   2.767   2.814
   32        0.015   0.029   2.751   2.795
   33        0.015   0.031   2.733   2.779
   34        0.016   0.030   2.766   2.811
   35        0.015   0.029   2.783   2.827
   36        0.015   0.029   2.801   2.845
   37        0.016   0.030   2.750   2.796
   38        0.015   0.030   2.758   2.803
   39        0.014   0.029   2.728   2.771
   40        0.014   0.030   2.692   2.736
   41        0.002   0.043   0.000   0.045
   42        0.002   0.033   0.000   0.035
   43        0.002   0.030   0.000   0.032
   44        0.002   0.030   0.000   0.032
   45        0.002   0.037   0.000   0.039
   46        0.002   0.050   0.000   0.052
   47        0.002   0.031   0.000   0.033
   48        0.002   0.030   0.000   0.032
   49        0.002   0.052   0.000   0.054
   50        0.002   0.045   0.000   0.047
   51        0.002   0.032   0.000   0.034
   52        0.002   0.036   0.000   0.039
   53        0.002   0.030   0.000   0.033
   54        0.001   0.026   0.000   0.028
   55        0.002   0.036   0.000   0.038
   56        0.002   0.054   0.000   0.056
   57        0.002   0.041   0.000   0.043
   58        0.003   0.046   0.000   0.049
   59        0.002   0.039   0.000   0.041
   60        0.002   0.040   0.000   0.043
   61        0.002   0.039   0.000   0.041
   62        0.001  -0.035   0.000  -0.034
   63        0.002   0.041   0.000   0.043
   64        0.002   0.033   0.000   0.035
   65        0.002   0.041   0.000   0.043
   66        0.002   0.038   0.000   0.040
   67        0.002   0.020   0.000   0.022
   68        0.002   0.003   0.000   0.004
   69        0.002   0.033   0.000   0.034
   70        0.002   0.020   0.000   0.022
   71        0.002   0.045   0.000   0.048
   72        0.002   0.011   0.000   0.013
   73        0.003   0.048   0.000   0.051
   74        0.002   0.036   0.000   0.037
   75        0.002   0.035   0.000   0.037
   76        0.002   0.018   0.000   0.020
   77        0.002   0.046   0.000   0.048
   78        0.001   0.020   0.000   0.021
   79        0.002   0.035   0.000   0.037
   80        0.002   0.046   0.000   0.048
   81        0.002   0.029   0.000   0.031
   82        0.002   0.017   0.000   0.019
   83        0.002   0.038   0.000   0.040
   84        0.002   0.028   0.000   0.030
   85        0.002   0.032   0.000   0.034
   86        0.002   0.030   0.000   0.032
   87        0.002   0.008   0.000   0.010
   88        0.002   0.055   0.000   0.057
--------------------------------------------------
tot          0.422   2.076  44.064  46.562
 

 total amount of memory used by VASP MPI-rank0    88191. kBytes
=======================================================================

   base      :      30000. kBytes
   nonlr-proj:      13682. kBytes
   fftplans  :        992. kBytes
   grid      :      21513. kBytes
   one-center:       2737. kBytes
   wavefun   :      19267. kBytes
 
  
  
 General timing and accounting informations for this job:
 ========================================================
  
                  Total CPU time used (sec):      608.395
                            User time (sec):      602.859
                          System time (sec):        5.536
                         Elapsed time (sec):      612.396
  
                   Maximum memory used (kb):      182204.
                   Average memory used (kb):           0.
  
                          Minor page faults:       300307
                          Major page faults:            0
                 Voluntary context switches:         3752
