 vasp.5.4.4.18Apr17-6-g9f103f2a35 (build Dec 02 2020 12:53:39) complex          
  
 executed on             LinuxIFC date 2021.08.02  18:03:20
 running on   96 total cores
 distrk:  each k-point on   96 cores,    1 groups
 distr:  one band on NCORES_PER_BAND=   1 cores,   96 groups


--------------------------------------------------------------------------------------------------------


 INCAR:
 POTCAR:    PAW_PBE Na_pv 19Sep2006               
 POTCAR:    PAW_PBE Mg_pv 13Apr2007               
 POTCAR:    PAW_PBE Mn_pv 02Aug2007               
 POTCAR:    PAW_PBE O 08Apr2002                   

 ----------------------------------------------------------------------------- 
|                                                                             |
|           W    W    AA    RRRRR   N    N  II  N    N   GGGG   !!!           |
|           W    W   A  A   R    R  NN   N  II  NN   N  G    G  !!!           |
|           W    W  A    A  R    R  N N  N  II  N N  N  G       !!!           |
|           W WW W  AAAAAA  RRRRR   N  N N  II  N  N N  G  GGG   !            |
|           WW  WW  A    A  R   R   N   NN  II  N   NN  G    G                |
|           W    W  A    A  R    R  N    N  II  N    N   GGGG   !!!           |
|                                                                             |
|      For optimal performance we recommend to set                            |
|        NCORE= 4 - approx SQRT( number of cores)                             |
|      NCORE specifies how many cores store one orbital (NPAR=cpu/NCORE).     |
|      This setting can  greatly improve the performance of VASP for DFT.     |
|      The default,   NCORE=1            might be grossly inefficient         |
|      on modern multi-core architectures or massively parallel machines.     |
|      Do your own testing !!!!                                               |
|      Unfortunately you need to use the default for GW and RPA calculations. |
|      (for HF NCORE is supported but not extensively tested yet)             |
|                                                                             |
 ----------------------------------------------------------------------------- 

 POTCAR:    PAW_PBE Na_pv 19Sep2006               
   VRHFIN =Na: p6s1                                                             
   LEXCH  = PE                                                                  
   EATOM  =   766.0439 eV,   56.3026 Ry                                         
                                                                                
   TITEL  = PAW_PBE Na_pv 19Sep2006                                             
   LULTRA =        F    use ultrasoft PP ?                                      
   IUNSCR =        1    unscreen: 0-lin 1-nonlin 2-no                           
   RPACOR =    1.800    partial core radius                                     
   POMASS =   22.990; ZVAL   =    7.000    mass and valenz                      
   RCORE  =    2.200    outmost cutoff radius                                   
   RWIGS  =    2.200; RWIGS  =    1.164    wigner-seitz radius (au A)           
   ENMAX  =  259.561; ENMIN  =  194.671 eV                                      
   ICORE  =        2    local potential                                         
   LCOR   =        T    correct aug charges                                     
   LPAW   =        T    paw PP                                                  
   EAUG   =  368.056                                                            
   DEXC   =    0.000                                                            
   RMAX   =    2.245    core radius for proj-oper                               
   RAUG   =    1.300    factor for augmentation sphere                          
   RDEP   =    2.259    radius for radial grids                                 
   RDEPT  =    1.738    core radius for aug-charge                              
                                                                                
   Atomic configuration                                                         
    5 entries                                                                   
     n  l   j            E        occ.                                          
     1  0  0.50     -1033.6933   2.0000                                         
     2  0  0.50       -56.7526   2.0000                                         
     2  1  1.50       -28.6721   6.0000                                         
     3  0  0.50        -2.7440   1.0000                                         
     3  2  1.50        -1.3606   0.0000                                         
   Description                                                                  
     l       E           TYP  RCUT    TYP  RCUT                                 
     1    -28.6720912     23  2.000                                             
     1      6.8029130     23  2.000                                             
     0     -2.7439560     23  2.200                                             
     0     34.0145650     23  2.200                                             
     2     -1.3605826     23  2.200                                             
  local pseudopotential read in
  partial core-charges read in
  partial kinetic energy density read in
  atomic valenz-charges read in
  non local Contribution for L=           1  read in
    real space projection operators read in
  non local Contribution for L=           1  read in
    real space projection operators read in
  non local Contribution for L=           0  read in
    real space projection operators read in
  non local Contribution for L=           0  read in
    real space projection operators read in
    PAW grid and wavefunctions read in
 
   number of l-projection  operators is LMAX  =           4
   number of lm-projection operators is LMMAX =           8
 
 POTCAR:    PAW_PBE Mg_pv 13Apr2007               
   VRHFIN =Mg: p6s2                                                             
   LEXCH  = PE                                                                  
   EATOM  =  1056.7344 eV,   77.6678 Ry                                         
                                                                                
   TITEL  = PAW_PBE Mg_pv 13Apr2007                                             
   LULTRA =        F    use ultrasoft PP ?                                      
   IUNSCR =        1    unscreen: 0-lin 1-nonlin 2-no                           
   RPACOR =    1.500    partial core radius                                     
   POMASS =   24.305; ZVAL   =    8.000    mass and valenz                      
   RCORE  =    2.000    outmost cutoff radius                                   
   RWIGS  =    2.000; RWIGS  =    1.058    wigner-seitz radius (au A)           
   ENMAX  =  403.929; ENMIN  =  302.947 eV                                      
   RCLOC  =    1.506    cutoff for local pot                                    
   LCOR   =        T    correct aug charges                                     
   LPAW   =        T    paw PP                                                  
   EAUG   =  758.780                                                            
   DEXC   =    0.000                                                            
   RMAX   =    2.045    core radius for proj-oper                               
   RAUG   =    1.300    factor for augmentation sphere                          
   RDEP   =    2.025    radius for radial grids                                 
   RDEPT  =    1.557    core radius for aug-charge                              
                                                                                
   Atomic configuration                                                         
    5 entries                                                                   
     n  l   j            E        occ.                                          
     1  0  0.50     -1259.6230   2.0000                                         
     2  0  0.50       -79.8442   2.0000                                         
     2  1  1.50       -46.6121   6.0000                                         
     3  0  0.50        -4.7055   2.0000                                         
     3  2  1.50        -1.3606   0.0000                                         
   Description                                                                  
     l       E           TYP  RCUT    TYP  RCUT                                 
     1    -46.6121073     23  1.600                                             
     1      2.7211652     23  1.600                                             
     0     -4.7054661     23  2.000                                             
     0     61.2262170     23  2.000                                             
     2     -1.3605826     23  2.000                                             
  local pseudopotential read in
  partial core-charges read in
  partial kinetic energy density read in
  atomic valenz-charges read in
  non local Contribution for L=           1  read in
    real space projection operators read in
  non local Contribution for L=           1  read in
    real space projection operators read in
  non local Contribution for L=           0  read in
    real space projection operators read in
  non local Contribution for L=           0  read in
    real space projection operators read in
  non local Contribution for L=           2  read in
    real space projection operators read in
    PAW grid and wavefunctions read in
 
   number of l-projection  operators is LMAX  =           5
   number of lm-projection operators is LMMAX =          13
 
 POTCAR:    PAW_PBE Mn_pv 02Aug2007               
   VRHFIN =Mn: 3p4s3d                                                           
   LEXCH  = PE                                                                  
   EATOM  =  2025.2664 eV,  148.8529 Ry                                         
                                                                                
   TITEL  = PAW_PBE Mn_pv 02Aug2007                                             
   LULTRA =        F    use ultrasoft PP ?                                      
   IUNSCR =        1    unscreen: 0-lin 1-nonlin 2-no                           
   RPACOR =    2.080    partial core radius                                     
   POMASS =   54.938; ZVAL   =   13.000    mass and valenz                      
   RCORE  =    2.300    outmost cutoff radius                                   
   RWIGS  =    2.500; RWIGS  =    1.323    wigner-seitz radius (au A)           
   ENMAX  =  269.864; ENMIN  =  202.398 eV                                      
   ICORE  =        3    local potential                                         
   LCOR   =        T    correct aug charges                                     
   LPAW   =        T    paw PP                                                  
   EAUG   =  569.085                                                            
   DEXC   =    0.000                                                            
   RMAX   =    2.343    core radius for proj-oper                               
   RAUG   =    1.300    factor for augmentation sphere                          
   RDEP   =    2.338    radius for radial grids                                 
   RDEPT  =    1.798    core radius for aug-charge                              
                                                                                
   Atomic configuration                                                         
    8 entries                                                                   
     n  l   j            E        occ.                                          
     1  0  0.50     -6424.8287   2.0000                                         
     2  0  0.50      -739.1154   2.0000                                         
     2  1  1.50      -625.3949   6.0000                                         
     3  0  0.50       -81.6100   2.0000                                         
     3  1  1.50       -50.4667   6.0000                                         
     3  2  2.50        -3.3745   6.0000                                         
     4  0  0.50        -4.1331   1.0000                                         
     4  3  2.50        -1.3606   0.0000                                         
   Description                                                                  
     l       E           TYP  RCUT    TYP  RCUT                                 
     1    -50.4666628     23  2.000                                             
     1     -1.3605826     23  2.000                                             
     2     -3.3744729     23  2.300                                             
     2     -4.7350555     23  2.300                                             
     0     -4.1331431     23  2.300                                             
     0      7.6656591     23  2.300                                             
     3      9.5240782     23  2.300                                             
  local pseudopotential read in
  partial core-charges read in
  partial kinetic energy density read in
  atomic valenz-charges read in
  non local Contribution for L=           1  read in
    real space projection operators read in
  non local Contribution for L=           1  read in
    real space projection operators read in
  non local Contribution for L=           2  read in
    real space projection operators read in
  non local Contribution for L=           2  read in
    real space projection operators read in
  non local Contribution for L=           0  read in
    real space projection operators read in
  non local Contribution for L=           0  read in
    real space projection operators read in
    PAW grid and wavefunctions read in
 
   number of l-projection  operators is LMAX  =           6
   number of lm-projection operators is LMMAX =          18
 
 POTCAR:    PAW_PBE O 08Apr2002                   
   VRHFIN =O: s2p4                                                              
   LEXCH  = PE                                                                  
   EATOM  =   432.3788 eV,   31.7789 Ry                                         
                                                                                
   TITEL  = PAW_PBE O 08Apr2002                                                 
   LULTRA =        F    use ultrasoft PP ?                                      
   IUNSCR =        1    unscreen: 0-lin 1-nonlin 2-no                           
   RPACOR =    1.200    partial core radius                                     
   POMASS =   16.000; ZVAL   =    6.000    mass and valenz                      
   RCORE  =    1.520    outmost cutoff radius                                   
   RWIGS  =    1.550; RWIGS  =    0.820    wigner-seitz radius (au A)           
   ENMAX  =  400.000; ENMIN  =  300.000 eV                                      
   ICORE  =        2    local potential                                         
   LCOR   =        T    correct aug charges                                     
   LPAW   =        T    paw PP                                                  
   EAUG   =  605.392                                                            
   DEXC   =    0.000                                                            
   RMAX   =    1.553    core radius for proj-oper                               
   RAUG   =    1.300    factor for augmentation sphere                          
   RDEP   =    1.550    radius for radial grids                                 
   RDEPT  =    1.329    core radius for aug-charge                              
                                                                                
   Atomic configuration                                                         
    4 entries                                                                   
     n  l   j            E        occ.                                          
     1  0  0.50      -514.6923   2.0000                                         
     2  0  0.50       -23.9615   2.0000                                         
     2  1  0.50        -9.0305   4.0000                                         
     3  2  1.50        -9.5241   0.0000                                         
   Description                                                                  
     l       E           TYP  RCUT    TYP  RCUT                                 
     0    -23.9615318     23  1.200                                             
     0     -9.5240782     23  1.200                                             
     1     -9.0304911     23  1.520                                             
     1      8.1634956     23  1.520                                             
     2     -9.5240782      7  1.500                                             
  local pseudopotential read in
  partial core-charges read in
  partial kinetic energy density read in
  kinetic energy density of atom read in
  atomic valenz-charges read in
  non local Contribution for L=           0  read in
    real space projection operators read in
  non local Contribution for L=           0  read in
    real space projection operators read in
  non local Contribution for L=           1  read in
    real space projection operators read in
  non local Contribution for L=           1  read in
    real space projection operators read in
    PAW grid and wavefunctions read in
 
   number of l-projection  operators is LMAX  =           4
   number of lm-projection operators is LMMAX =           8
 
 Optimization of the real space projectors (new method)

 maximal supplied QI-value         = 17.01
 optimisation between [QCUT,QGAM] = [ 10.20, 20.41] = [ 29.16,116.64] Ry 
 Optimized for a Real-space Cutoff    1.30 Angstroem

   l    n(q)    QCUT    max X(q) W(low)/X(q) W(high)/X(q)  e(spline) 
   1      7    10.205     4.940    0.23E-03    0.84E-03    0.11E-06
   1      7    10.205     6.253    0.40E-03    0.13E-02    0.18E-06
   0      8    10.205    37.438    0.23E-03    0.37E-03    0.42E-07
   0      8    10.205     9.606    0.16E-03    0.26E-03    0.31E-07
 Optimization of the real space projectors (new method)

 maximal supplied QI-value         = 18.90
 optimisation between [QCUT,QGAM] = [ 10.20, 20.41] = [ 29.16,116.64] Ry 
 Optimized for a Real-space Cutoff    1.26 Angstroem

   l    n(q)    QCUT    max X(q) W(low)/X(q) W(high)/X(q)  e(spline) 
   1      7    10.205     2.974    0.63E-04    0.14E-03    0.13E-06
   1      7    10.205     4.279    0.11E-03    0.45E-03    0.24E-06
   0      8    10.205    16.381    0.44E-03    0.15E-03    0.55E-07
   0      8    10.205     5.611    0.31E-03    0.11E-03    0.40E-07
   2      7    10.205     4.652    0.50E-03    0.47E-03    0.57E-07
 Optimization of the real space projectors (new method)

 maximal supplied QI-value         = 16.25
 optimisation between [QCUT,QGAM] = [ 10.24, 20.48] = [ 29.35,117.42] Ry 
 Optimized for a Real-space Cutoff    1.34 Angstroem

   l    n(q)    QCUT    max X(q) W(low)/X(q) W(high)/X(q)  e(spline) 
   1      8    10.239     3.658    0.23E-03    0.30E-03    0.98E-07
   1      8    10.239     5.612    0.32E-03    0.65E-03    0.21E-06
   2      7    10.239    55.373    0.42E-03    0.45E-03    0.65E-07
   2      7    10.239    50.863    0.43E-03    0.48E-03    0.67E-07
   0      8    10.239    79.536    0.11E-03    0.21E-03    0.56E-07
   0      8    10.239    38.668    0.96E-04    0.19E-03    0.52E-07
 Optimization of the real space projectors (new method)

 maximal supplied QI-value         = 24.76
 optimisation between [QCUT,QGAM] = [ 10.15, 20.30] = [ 28.85,115.39] Ry 
 Optimized for a Real-space Cutoff    1.38 Angstroem

   l    n(q)    QCUT    max X(q) W(low)/X(q) W(high)/X(q)  e(spline) 
   0      8    10.150    20.381    0.22E-03    0.32E-03    0.29E-06
   0      8    10.150    15.268    0.23E-03    0.35E-03    0.30E-06
   1      8    10.150     5.964    0.46E-03    0.53E-03    0.21E-06
   1      8    10.150     5.382    0.38E-03    0.45E-03    0.19E-06
  PAW_PBE Na_pv 19Sep2006               :
 energy of atom  1       EATOM= -766.0439
 kinetic energy error for atom=    0.0103 (will be added to EATOM!!)
  PAW_PBE Mg_pv 13Apr2007               :
 energy of atom  2       EATOM=-1056.7344
 kinetic energy error for atom=    0.0820 (will be added to EATOM!!)
  PAW_PBE Mn_pv 02Aug2007               :
 energy of atom  3       EATOM=-2025.2664
 kinetic energy error for atom=    0.0284 (will be added to EATOM!!)
  PAW_PBE O 08Apr2002                   :
 energy of atom  4       EATOM= -432.3788
 kinetic energy error for atom=    0.1156 (will be added to EATOM!!)
 
 
 POSCAR: Na Mg Mn  O                             
  positions in cartesian coordinates
  No initial velocities read in

 METAGGA = SCAN     LMAXTAU =  6    LMIXTAU =  F

 exchange correlation table for  LEXCH =        8
   RHO(1)=    0.500       N(1)  =     2000
   RHO(2)=  100.500       N(2)  =     4000

 VTST: version 3.2, (02/03/18)

 CHAIN: initializing optimizer
 
 OPT: Using VASP Dynamics algorithm
 CHAIN: Read ICHAIN            0
 
 POSCAR: Na Mg Mn  O                             
  positions in cartesian coordinates
  No initial velocities read in
 


--------------------------------------------------------------------------------------------------------


 ion  position               nearest neighbor table
   1  0.824  0.182  0.246-  53 2.24  62 2.25  54 2.33
   2  0.311  0.827  0.749-
   3  0.808  0.841  0.755-  69 2.28  72 2.33  82 2.37  85 2.37
   4  0.456  0.632  0.750-  85 2.27  45 2.37
   5  0.173  0.356  0.232-  41 2.22  55 2.23
   6  0.952  0.925  0.248-  67 2.27  65 2.31  34 2.96
   7  0.954  0.630  0.754-  57 2.24  70 2.35  60 2.37
   8  0.544  0.383  0.747-  49 2.19  45 2.30  48 2.37
   9  0.326  0.158  0.260-  51 2.19  41 2.34  42 2.35  50 2.36
  10  0.101  0.637  0.252-  66 2.30  75 2.37  39 2.84  37 2.93
  11  0.608  0.642  0.251-  87 2.22  74 2.28  78 2.33  35 2.81  33 2.86
  12  0.096  0.442  0.753-  60 2.19  57 2.28
  13  0.667  0.166  0.745-  46 2.20  56 2.32  59 2.34  29 2.83  31 2.86
  14  0.152  0.145  0.764-  47 2.19  72 2.30  61 2.37  25 2.75  27 2.96
  15  0.714  0.407  0.253-  52 2.20  62 2.31  43 2.31  28 2.94
  16  0.463  0.934  0.246-  79 2.17  77 2.33  88 2.33
  17  0.795  0.478  0.990-  49 2.00  43 2.03  66 2.05  60 2.07  53 2.07  71 2.11
  18  0.450  0.279  0.494-  44 1.94  52 2.04  51 2.05  50 2.05  46 2.08  45 2.21  31 2.83  27 2.85
                            36 2.85
  19  0.294  0.480  0.998-  48 1.98  83 2.02  55 2.03  61 2.11  78 2.13  41 2.20
  20  0.950  0.289  0.491-  62 2.00  63 2.01  64 2.03  56 2.04  58 2.09
  21  0.295  0.979  0.010-  77 1.97  67 1.97  84 1.99  42 2.05  47 2.09  73 2.13  25 2.80  29 2.86

  22  0.947  0.783  0.508-  70 2.01  75 2.01  76 2.01  74 2.07  69 2.07  68 2.23  28 2.83
  23  0.799  0.985  0.991-  59 1.92  72 2.03  65 2.05  54 2.11  85 2.18  79 2.19  30 2.79
  24  0.453  0.792  0.493-  86 2.00  88 2.01  81 2.05  80 2.12  82 2.14  87 2.18  40 2.80  31 2.83

  25  0.132  0.139  0.008-  67 1.85  61 1.89  47 1.89  72 1.91  54 1.96  41 1.96  14 2.75  21 2.80
                            34 2.82  26 2.87  30 2.91
  26  0.462  0.314  0.006-  41 1.87  43 1.88  48 1.89  47 1.90  42 1.97  49 1.99  29 2.83  25 2.87
                            33 2.88
  27  0.123  0.127  0.501-  50 1.92  58 1.94  44 1.94  69 1.97  76 1.97  63 2.02  32 2.84  18 2.85
                            36 2.88  14 2.96  40 3.01
  28  0.787  0.458  0.508-  75 1.84  52 1.92  68 1.93  46 1.97  57 1.98  62 2.00  22 2.83  39 2.88
                            35 2.91  15 2.94  31 2.95
  29  0.623  0.149  0.995-  84 1.89  59 1.89  49 1.91  42 1.91  79 1.94  53 1.99  13 2.83  26 2.83
                            38 2.86  21 2.86  30 2.95
  30  0.963  0.306  0.000-  61 1.85  59 1.86  53 1.91  60 1.95  54 1.96  55 1.98  23 2.79  25 2.91
                            37 2.94  29 2.95
  31  0.616  0.118  0.495-  81 1.82  56 1.85  46 1.88  88 1.92  51 1.97  62 1.98  40 2.81  24 2.83
                            18 2.83  13 2.86  36 2.94  28 2.95
  32  0.286  0.454  0.497-  50 1.86  87 1.87  45 1.92  58 1.94  80 1.95  64 1.98  27 2.84  35 2.86
                            39 2.91
  33  0.630  0.645  0.996-  71 1.87  65 1.92  43 1.94  78 1.95  48 1.96  85 2.02  11 2.86  26 2.88
                            34 2.90  38 2.93
  34  0.964  0.814  0.005-  65 1.89  66 1.94  71 1.94  72 2.00  73 2.02  67 2.05  25 2.82  33 2.90
                            37 2.90   6 2.96
  35  0.615  0.621  0.501-  74 1.84  52 1.90  87 1.93  45 1.95  68 1.98  82 2.02  11 2.81  32 2.86
                            40 2.89  28 2.91
  36  0.277  0.951  0.501-  76 1.85  81 1.89  51 1.95  86 1.96  44 1.96  70 1.97  39 2.85  18 2.85
                            27 2.88  31 2.94
  37  0.128  0.645  0.992-  83 1.84  73 1.85  66 1.89  60 1.94  55 1.96  77 1.97  34 2.90  10 2.93
                            30 2.94  38 2.94
  38  0.467  0.820  0.999-  78 1.87  84 1.89  79 1.93  77 1.93  85 1.96  83 2.00  29 2.86  33 2.93
                            37 2.94
  39  0.118  0.622  0.504-  75 1.88  57 1.89  64 1.94  86 1.98  80 1.99  70 2.00  10 2.84  36 2.85
                            28 2.88  32 2.91
  40  0.775  0.954  0.491-  88 1.82  56 1.89  82 1.89  63 1.94  69 1.95  74 2.05  24 2.80  31 2.81
                            35 2.89  27 3.01
  41  0.302  0.298  0.102-  26 1.87  25 1.96  19 2.20   5 2.22   9 2.34
  42  0.475  0.154  0.100-  29 1.91  26 1.97  21 2.05   9 2.35
  43  0.626  0.478  0.088-  26 1.88  33 1.94  17 2.03  15 2.31
  44  0.286  0.123  0.591-  18 1.94  27 1.94  36 1.96
  45  0.447  0.465  0.596-  32 1.92  35 1.95  18 2.21   8 2.30   4 2.37
  46  0.625  0.276  0.591-  31 1.88  28 1.97  18 2.08  13 2.20
  47  0.298  0.160  0.914-  25 1.89  26 1.90  21 2.09  14 2.19
  48  0.462  0.471  0.913-  26 1.89  33 1.96  19 1.98   8 2.37
  49  0.619  0.306  0.902-  29 1.91  26 1.99  17 2.00   8 2.19
  50  0.278  0.294  0.409-  32 1.86  27 1.92  18 2.05   9 2.36
  51  0.443  0.101  0.399-  36 1.95  31 1.97  18 2.05   9 2.19
  52  0.631  0.466  0.415-  35 1.90  28 1.92  18 2.04  15 2.20
  53  0.801  0.307  0.089-  30 1.91  29 1.99  17 2.07   1 2.24
  54  0.973  0.151  0.101-  25 1.96  30 1.96  23 2.11   1 2.33
  55  0.123  0.483  0.093-  37 1.96  30 1.98  19 2.03   5 2.23
  56  0.772  0.112  0.580-  31 1.85  40 1.89  20 2.04  13 2.32
  57  0.962  0.482  0.607-  39 1.89  28 1.98   7 2.24  12 2.28
  58  0.126  0.293  0.594-  27 1.94  32 1.94  20 2.09
  59  0.794  0.156  0.917-  30 1.86  29 1.89  23 1.92  13 2.34
  60  0.973  0.471  0.902-  37 1.94  30 1.95  17 2.07  12 2.19   7 2.37
  61  0.111  0.285  0.916-  30 1.85  25 1.89  19 2.11  14 2.37
  62  0.779  0.293  0.403-  31 1.98  20 2.00  28 2.00   1 2.25  15 2.31
  63  0.947  0.113  0.402-  40 1.94  20 2.01  27 2.02
  64  0.125  0.468  0.404-  39 1.94  32 1.98  20 2.03
  65  0.795  0.808  0.085-  34 1.89  33 1.92  23 2.05   6 2.31
  66  0.973  0.648  0.086-  37 1.89  34 1.94  17 2.05  10 2.30
  67  0.134  0.989  0.104-  25 1.85  21 1.97  34 2.05   6 2.27
  68  0.755  0.594  0.610-  28 1.93  35 1.98  22 2.23
  69  0.943  0.967  0.589-  40 1.95  27 1.97  22 2.07   3 2.28
  70  0.120  0.789  0.603-  36 1.97  39 2.00  22 2.01   7 2.35
  71  0.796  0.667  0.906-  33 1.87  34 1.94  17 2.11
  72  0.979  0.987  0.906-  25 1.91  34 2.00  23 2.03  14 2.30   3 2.33
  73  0.122  0.798  0.904-  37 1.85  34 2.02  21 2.13
  74  0.768  0.769  0.407-  35 1.84  40 2.05  22 2.07  11 2.28
  75  0.948  0.608  0.422-  28 1.84  39 1.88  22 2.01  10 2.37
  76  0.121  0.954  0.416-  36 1.85  27 1.97  22 2.01
  77  0.295  0.804  0.089-  38 1.93  21 1.97  37 1.97  16 2.33
  78  0.478  0.669  0.089-  38 1.87  33 1.95  19 2.13  11 2.33
  79  0.617  0.989  0.095-  38 1.93  29 1.94  16 2.17  23 2.19
  80  0.281  0.611  0.597-  32 1.95  39 1.99  24 2.12
  81  0.454  0.973  0.580-  31 1.82  36 1.89  24 2.05
  82  0.636  0.801  0.597-  40 1.89  35 2.02  24 2.14   3 2.37
  83  0.290  0.653  0.909-  37 1.84  38 2.00  19 2.02
  84  0.462  0.980  0.914-  38 1.89  29 1.89  21 1.99
  85  0.611  0.798  0.892-  38 1.96  33 2.02  23 2.18   4 2.27   3 2.37
  86  0.278  0.788  0.404-  36 1.96  39 1.98  24 2.00
  87  0.447  0.597  0.401-  32 1.87  35 1.93  24 2.18  11 2.22
  88  0.629  0.963  0.402-  40 1.82  31 1.92  24 2.01  16 2.33
 
  LATTYP: Found a hexagonal cell.
 ALAT       =    10.0190000534
 C/A-ratio  =     1.1196726572
  
  Lattice vectors:
  
 A1 = (  10.0190000534,   0.0000000000,   0.0000000000)
 A2 = (  -5.0095000267,   8.6767085668,   0.0000000000)
 A3 = (   0.0000000000,   0.0000000000,  11.2180004120)


Analysis of symmetry for initial positions (statically):
=====================================================================
 Subroutine PRICEL returns:
 Original cell was already a primitive cell.
 

 Routine SETGRP: Setting up the symmetry group for a 
 hexagonal supercell.


 Subroutine GETGRP returns: Found  1 space group operations
 (whereof  1 operations were pure point group operations)
 out of a pool of 24 trial point group operations.


The static configuration has the point symmetry C_1 .


Analysis of symmetry for dynamics (positions and initial velocities):
=====================================================================
 Subroutine PRICEL returns:
 Original cell was already a primitive cell.
 

 Routine SETGRP: Setting up the symmetry group for a 
 hexagonal supercell.


 Subroutine GETGRP returns: Found  1 space group operations
 (whereof  1 operations were pure point group operations)
 out of a pool of 24 trial point group operations.


The dynamic configuration has the point symmetry C_1 .


Analysis of structural, dynamic, and magnetic symmetry:
=====================================================================
 Subroutine PRICEL returns:
 Original cell was already a primitive cell.
 

 Routine SETGRP: Setting up the symmetry group for a 
 hexagonal supercell.


 Subroutine GETGRP returns: Found  1 space group operations
 (whereof  1 operations were pure point group operations)
 out of a pool of 24 trial point group operations.


The magnetic configuration has the point symmetry C_1 .


 Subroutine INISYM returns: Found  1 space group operations
 (whereof  1 operations are pure point group operations),
 and found     1 'primitive' translations

 
 

Automatic generation of k-mesh.
 generate k-points for:    2    2    2
Space group operators:
 irot       det(A)        alpha          n_x          n_y          n_z        tau_x        tau_y        tau_z
    1     1.000000     0.000000     1.000000     0.000000     0.000000     0.000000     0.000000     0.000000
 
 Subroutine IBZKPT returns following result:
 ===========================================
 
 Found      8 irreducible k-points:
 
 Following reciprocal coordinates:
            Coordinates               Weight
  0.000000  0.000000  0.000000      1.000000
  0.500000 -0.000000 -0.000000      1.000000
  0.000000  0.500000  0.000000      1.000000
  0.500000  0.500000 -0.000000      1.000000
  0.000000  0.000000  0.500000      1.000000
  0.500000 -0.000000  0.500000      1.000000
  0.000000  0.500000  0.500000      1.000000
  0.500000  0.500000  0.500000      1.000000
 
 Following cartesian coordinates:
            Coordinates               Weight
  0.000000  0.000000  0.000000      1.000000
  0.049905  0.028813 -0.000000      1.000000
  0.000000  0.057626  0.000000      1.000000
  0.049905  0.086438 -0.000000      1.000000
  0.000000  0.000000  0.044571      1.000000
  0.049905  0.028813  0.044571      1.000000
  0.000000  0.057626  0.044571      1.000000
  0.049905  0.086438  0.044571      1.000000
 


--------------------------------------------------------------------------------------------------------




 Dimension of arrays:
   k-points           NKPTS =      8   k-points in BZ     NKDIM =      8   number of bands    NBANDS=    480
   number of dos      NEDOS =    301   number of ions     NIONS =     88
   non local maximal  LDIM  =      6   non local SUM 2l+1 LMDIM =     18
   total plane-waves  NPLWV = 140000
   max r-space proj   IRMAX =   1632   max aug-charges    IRDMAX=   4555
   dimension x,y,z NGX =    50 NGY =   50 NGZ =   56
   dimension x,y,z NGXF=   100 NGYF=  100 NGZF=  112
   support grid    NGXF=   100 NGYF=  100 NGZF=  112
   ions per type =              16   8  16  48
   NGX,Y,Z   is equivalent  to a cutoff of   8.30,  8.30,  8.30 a.u.
   NGXF,Y,Z  is equivalent  to a cutoff of  16.59, 16.59, 16.60 a.u.

 SYSTEM =  unknown system                          
 POSCAR =  Na Mg Mn  O                             

 Startparameter for this run:
   NWRITE =      2    write-flag & timer
   PREC   = normal    normal or accurate (medium, high low for compatibility)
   ISTART =      0    job   : 0-new  1-cont  2-samecut
   ICHARG =      1    charge: 1-file 2-atom 10-const
   ISPIN  =      2    spin polarized calculation?
   LNONCOLLINEAR =      F non collinear calculations
   LSORBIT =      F    spin-orbit coupling
   INIWAV =      1    electr: 0-lowe 1-rand  2-diag
   LASPH  =      T    aspherical Exc in radial PAW
   METAGGA=      F    non-selfconsistent MetaGGA calc.

 Electronic Relaxation 1
   ENCUT  =  400.0 eV  29.40 Ry    5.42 a.u.  16.34 16.34 18.29*2*pi/ulx,y,z
   ENINI  =  400.0     initial cutoff
   ENAUG  =  758.8 eV  augmentation charge cutoff
   NELM   =    200;   NELMIN=  6; NELMDL=-12     # of ELM steps 
   EDIFF  = 0.1E-04   stopping-criterion for ELM
   LREAL  =      T    real-space projection
   NLSPLINE    = F    spline interpolate recip. space projectors
   LCOMPAT=      F    compatible to vasp.4.4
   GGA_COMPAT  = T    GGA compatible to vasp.4.4-vasp.4.6
   LMAXPAW     = -100 max onsite density
   LMAXMIX     =    4 max onsite mixed and CHGCAR
   VOSKOWN=      0    Vosko Wilk Nusair interpolation
   ROPT   =   -0.00050  -0.00050  -0.00050  -0.00050
 Ionic relaxation
   EDIFFG = 0.1E-03   stopping-criterion for IOM
   NSW    =      1    number of steps for IOM
   NBLOCK =      1;   KBLOCK =      1    inner block; outer block 
   IBRION =     -1    ionic relax: 0-MD 1-quasi-New 2-CG
   NFREE  =      0    steps in history (QN), initial steepest desc. (CG)
   ISIF   =      2    stress and relaxation
   IWAVPR =     10    prediction:  0-non 1-charg 2-wave 3-comb
   ISYM   =      2    0-nonsym 1-usesym 2-fastsym
   LCORR  =      T    Harris-Foulkes like correction to forces

   POTIM  = 0.5000    time-step for ionic-motion
   TEIN   =    0.0    initial temperature
   TEBEG  =    0.0;   TEEND  =   0.0 temperature during run
   SMASS  =  -3.00    Nose mass-parameter (am)
   estimated Nose-frequenzy (Omega)   =  0.10E-29 period in steps =****** mass=  -0.229E-26a.u.
   SCALEE = 1.0000    scale energy and forces
   NPACO  =    256;   APACO  = 16.0  distance and # of slots for P.C.
   PSTRESS=    0.0 pullay stress

  Mass of Ions in am
   POMASS =  22.99 24.30 54.94 16.00
  Ionic Valenz
   ZVAL   =   7.00  8.00 13.00  6.00
  Atomic Wigner-Seitz radii
   RWIGS  =  -1.00 -1.00 -1.00 -1.00
  virtual crystal weights 
   VCA    =   1.00  1.00  1.00  1.00
   NELECT =     672.0000    total number of electrons
   NUPDOWN=      48.0000    fix difference up-down

 DOS related values:
   EMIN   =  10.00;   EMAX   =-10.00  energy-range for DOS
   EFERMI =   0.00
   ISMEAR =     0;   SIGMA  =   0.05  broadening in eV -4-tet -1-fermi 0-gaus

 Electronic relaxation 2 (details)
   IALGO  =     48    algorithm
   LDIAG  =      T    sub-space diagonalisation (order eigenvalues)
   LSUBROT=      F    optimize rotation matrix (better conditioning)
   TURBO    =      0    0=normal 1=particle mesh
   IRESTART =      0    0=no restart 2=restart with 2 vectors
   NREBOOT  =      0    no. of reboots
   NMIN     =      0    reboot dimension
   EREF     =   0.00    reference energy to select bands
   IMIX   =      4    mixing-type and parameters
     AMIX     =   0.40;   BMIX     =  1.00
     AMIX_MAG =   1.60;   BMIX_MAG =  1.00
     AMIN     =   0.10
     WC   =   100.;   INIMIX=   1;  MIXPRE=   1;  MAXMIX= -45

 Intra band minimization:
   WEIMIN = 0.0000     energy-eigenvalue tresh-hold
   EBREAK =  0.52E-08  absolut break condition
   DEPER  =   0.30     relativ break condition  

   TIME   =   0.40     timestep for ELM

  volume/ion in A,a.u.               =      11.08        74.78
  Fermi-wavevector in a.u.,A,eV,Ry     =   1.445993  2.732531 28.448379  2.090897
  Thomas-Fermi vector in A             =   2.564112
 
 Write flags
   LWAVE        =      F    write WAVECAR
   LDOWNSAMPLE  =      F    k-point downsampling of WAVECAR
   LCHARG       =      F    write CHGCAR
   LVTOT        =      F    write LOCPOT, total local potential
   LVHAR        =      F    write LOCPOT, Hartree potential only
   LELF         =      F    write electronic localiz. function (ELF)
   LORBIT       =     11    0 simple, 1 ext, 2 COOP (PROOUT), +10 PAW based schemes


 Dipole corrections
   LMONO  =      F    monopole corrections only (constant potential shift)
   LDIPOL =      F    correct potential (dipole corrections)
   IDIPOL =      0    1-x, 2-y, 3-z, 4-all directions 
   EPSILON=  1.0000000 bulk dielectric constant

 Exchange correlation treatment:
   GGA     =    --    GGA type
   LEXCH   =     8    internal setting for exchange type
   VOSKOWN=      0    Vosko Wilk Nusair interpolation
   LHFCALC =     F    Hartree Fock is set to
   LHFONE  =     F    Hartree Fock one center treatment
   AEXX    =    0.0000 exact exchange contribution

 Linear response parameters
   LEPSILON=     F    determine dielectric tensor
   LRPA    =     F    only Hartree local field effects (RPA)
   LNABLA  =     F    use nabla operator in PAW spheres
   LVEL    =     F    velocity operator in full k-point grid
   LINTERFAST=   F  fast interpolation
   KINTER  =     0    interpolate to denser k-point grid
   CSHIFT  =0.1000    complex shift for real part using Kramers Kronig
   OMEGAMAX=  -1.0    maximum frequency
   DEG_THRESHOLD= 0.2000000E-02 threshold for treating states as degnerate
   RTIME   =   -0.100 relaxation time in fs
  (WPLASMAI=    0.000 imaginary part of plasma frequency in eV, 0.658/RTIME)
   DFIELD  = 0.0000000 0.0000000 0.0000000 field for delta impulse in time
 
 Orbital magnetization related:
   ORBITALMAG=     F  switch on orbital magnetization
   LCHIMAG   =     F  perturbation theory with respect to B field
   DQ        =  0.001000  dq finite difference perturbation B field
   LLRAUG    =     F  two centre corrections for induced B field



--------------------------------------------------------------------------------------------------------


 Static calculation
 charge density and potential will be updated during run
 spin polarized calculation
 RMM-DIIS sequential band-by-band
 perform sub-space diagonalisation
    before iterative eigenvector-optimisation
 modified Broyden-mixing scheme, WC =      100.0
 initial mixing is a Kerker type mixing with AMIX =  0.4000 and BMIX =      1.0000
 Hartree-type preconditioning will be used
 using additional bands          144
 real space projection scheme for non local part
 use partial core corrections
 calculate Harris-corrections to forces 
   (improved forces if not selfconsistent)
 use gradient corrections 
 use of overlap-Matrix (Vanderbilt PP)
 Gauss-broadening in eV      SIGMA  =   0.05


--------------------------------------------------------------------------------------------------------


  energy-cutoff  :      400.00
  volume of cell :      975.20
      direct lattice vectors                 reciprocal lattice vectors
    10.019000053  0.000000000  0.000000000     0.099810360  0.057625538 -0.000000000
    -5.009500027  8.676708567  0.000000000     0.000000000  0.115251076  0.000000000
     0.000000000  0.000000000 11.218000412     0.000000000  0.000000000  0.089142446

  length of vectors
    10.019000053 10.019000053 11.218000412     0.115251076  0.115251076  0.089142446


 
 k-points in units of 2pi/SCALE and weight: read from INCAR                         
   0.00000000  0.00000000  0.00000000       0.125
   0.04990518  0.02881277 -0.00000000       0.125
   0.00000000  0.05762554  0.00000000       0.125
   0.04990518  0.08643831 -0.00000000       0.125
   0.00000000  0.00000000  0.04457122       0.125
   0.04990518  0.02881277  0.04457122       0.125
   0.00000000  0.05762554  0.04457122       0.125
   0.04990518  0.08643831  0.04457122       0.125
 
 k-points in reciprocal lattice and weights: read from INCAR                         
   0.00000000  0.00000000  0.00000000       0.125
   0.50000000 -0.00000000 -0.00000000       0.125
   0.00000000  0.50000000  0.00000000       0.125
   0.50000000  0.50000000 -0.00000000       0.125
   0.00000000  0.00000000  0.50000000       0.125
   0.50000000 -0.00000000  0.50000000       0.125
   0.00000000  0.50000000  0.50000000       0.125
   0.50000000  0.50000000  0.50000000       0.125
 
 position of ions in fractional coordinates (direct lattice) 
   0.82440859  0.18168476  0.24607416
   0.31067470  0.82747770  0.74926990
   0.80820963  0.84123209  0.75496432
   0.45608416  0.63184295  0.75032623
   0.17290369  0.35609981  0.23243001
   0.95189291  0.92476594  0.24772062
   0.95421007  0.63016885  0.75363966
   0.54356742  0.38271326  0.74680511
   0.32634445  0.15804874  0.25958548
   0.10069221  0.63701871  0.25235603
   0.60772240  0.64169494  0.25103226
   0.09647811  0.44238829  0.75253608
   0.66732529  0.16597110  0.74530484
   0.15197263  0.14520681  0.76396592
   0.71395821  0.40680074  0.25260384
   0.46256853  0.93413796  0.24600195
   0.79534755  0.47841644  0.98985835
   0.45045192  0.27893757  0.49396950
   0.29443168  0.47994351  0.99848454
   0.95021588  0.28863019  0.49084149
   0.29465469  0.97931836  0.01007693
   0.94691989  0.78342956  0.50816097
   0.79906219  0.98521691  0.99053726
   0.45260372  0.79196160  0.49291137
   0.13159588  0.13859650  0.00814571
   0.46222297  0.31388400  0.00609032
   0.12254384  0.12738471  0.50120251
   0.78680614  0.45780032  0.50812621
   0.62326865  0.14887805  0.99484099
   0.96341458  0.30610455  0.00041002
   0.61600106  0.11808856  0.49456497
   0.28573219  0.45426327  0.49741842
   0.63023920  0.64500380  0.99649419
   0.96377500  0.81379015  0.00519868
   0.61500384  0.62095090  0.50060793
   0.27714129  0.95063352  0.50055177
   0.12801416  0.64470184  0.99175587
   0.46710864  0.81997914  0.99884605
   0.11813613  0.62219100  0.50388214
   0.77535447  0.95398272  0.49144052
   0.30207209  0.29767048  0.10173293
   0.47516552  0.15437536  0.09956498
   0.62554209  0.47825854  0.08795917
   0.28626139  0.12268148  0.59078532
   0.44684372  0.46546106  0.59635494
   0.62497034  0.27574166  0.59144587
   0.29804353  0.15972416  0.91428950
   0.46188735  0.47092512  0.91257797
   0.61946278  0.30609994  0.90185413
   0.27757596  0.29409193  0.40855053
   0.44250047  0.10050948  0.39896415
   0.63086775  0.46553828  0.41460954
   0.80133394  0.30687789  0.08893715
   0.97306394  0.15117829  0.10105366
   0.12271096  0.48302648  0.09281333
   0.77183746  0.11244027  0.57964519
   0.96179221  0.48190163  0.60696557
   0.12631107  0.29252452  0.59395434
   0.79377999  0.15581830  0.91699052
   0.97279011  0.47107379  0.90179173
   0.11098127  0.28501476  0.91593864
   0.77882362  0.29251299  0.40309769
   0.94696633  0.11317211  0.40219289
   0.12528894  0.46815448  0.40384737
   0.79492582  0.80789737  0.08506712
   0.97318218  0.64781362  0.08568871
   0.13358952  0.98917924  0.10359333
   0.75475954  0.59419421  0.61034318
   0.94327329  0.96744289  0.58910053
   0.11999604  0.78890514  0.60266177
   0.79588128  0.66679202  0.90552680
   0.97901717  0.98689151  0.90604382
   0.12242946  0.79836725  0.90395789
   0.76807086  0.76933666  0.40681671
   0.94808059  0.60772123  0.42214119
   0.12093605  0.95426854  0.41604563
   0.29520817  0.80434187  0.08891923
   0.47833672  0.66903595  0.08885461
   0.61651045  0.98860529  0.09532358
   0.28078200  0.61094019  0.59735780
   0.45396824  0.97252777  0.57971918
   0.63558539  0.80118975  0.59683720
   0.28992881  0.65253892  0.90883398
   0.46247931  0.98001102  0.91396859
   0.61077337  0.79846061  0.89237829
   0.27810779  0.78829662  0.40431091
   0.44713648  0.59717345  0.40146281
   0.62853117  0.96302301  0.40215634
 
 position of ions in cartesian coordinates  (Angst):
   7.34959987  1.57642570  2.76046000
  -1.03259973  7.17978287  8.40531000
   3.88330013  7.29912570  8.46919000
   1.40429000  5.48231713  8.41716000
  -0.05155997  3.08977430  2.60740000
   4.90440013  8.02392457  2.77893000
   6.40339992  5.46779143  8.45433000
   3.52879992  3.32069143  8.37766000
   2.47789992  1.37134283  2.91203000
  -2.18230997  5.52722570  2.83093000
   2.87419995  5.56780000  2.81608000
  -1.24952997  3.83847430  8.44195000
   5.85449989  1.44008287  8.36083000
   0.79520027  1.25991713  8.57017000
   5.11527903  3.52969143  2.83371000
  -0.04509003  8.10524283  2.75965000
   5.57196000  4.15108000 11.10423141
   3.11574000  2.42026000  5.54135000
   0.54563400  4.16433000 11.20100000
   8.07432000  2.50436000  5.50626000
  -1.95375000  8.49726000  0.11304300
   5.56260000  6.79759000  5.70055000
   3.07036000  8.54844000 11.11184741
   0.56730500  6.87162000  5.52948000
   0.62415997  1.20256143  0.09137860
   3.05861000  2.72348000  0.06832120
   0.58963300  1.10528000  5.62249000
   5.58966000  3.97220000  5.70016000
   5.49872403  1.29177143 11.16012661
   8.11902000  2.65598000  0.00459959
   5.58015000  1.02462000  5.54803000
   0.58711900  3.94151000  5.58004000
   3.08322000  5.59651000 11.17867221
   5.57938000  7.06102000  0.05831880
   3.05107000  5.38781000  5.61582000
  -1.98552000  8.24837000  5.61519000
  -1.94706000  5.59389000 11.12551781
   0.57227600  7.11472000 11.20505541
  -1.93326000  5.39857000  5.65255000
   2.98930000  8.27743000  5.51298000
   1.53528000  2.58280000  1.14124000
   3.98734000  1.33947000  1.11692000
   3.87147000  4.14971000  0.98672600
   2.25348003  1.06447143  6.62743000
   2.14520000  4.03867000  6.68991000
   4.88025000  2.39253000  6.63484000
   2.18596000  1.38588000 10.25650000
   2.26855000  4.08608000 10.23730000
   4.67299000  2.65594000 10.11700000
   1.30778000  2.55175000  4.58312000
   3.92991003  0.87209143  4.47558000
   3.98855000  4.03934000  4.65109000
   6.49126000  2.66269000  0.99769700
   8.99180000  1.31173000  1.13362000
  -1.19028005  4.19108000  1.04118000
   7.16977003  0.97561143  6.50246000
   7.22211000  4.18132000  6.80894000
  -0.19989100  2.53815000  6.66298000
   7.17231000  1.35199000 10.28680000
   7.38654000  4.08737000 10.11630000
  -0.31586005  2.47299000 10.27500000
   6.33769000  2.53805000  4.52195000
   8.92072003  0.98196143  4.51180000
  -1.08995000  4.06204000  4.53036000
   3.91720000  7.00989000  0.95428300
   6.50509000  5.62089000  0.96125600
  -3.61686005  8.58282000  1.16211000
   4.58532000  5.15565000  6.84683000
   4.60425000  8.39422000  6.60853000
  -2.74978000  6.84510000  6.76066000
   4.63364000  5.78556000 10.15820000
   4.86494000  8.56297000 10.16400000
  -2.77280005  6.92720000 10.14060000
   3.84131000  6.67531000  4.56367000
   6.45444000  5.27302000  4.73558000
  -3.56875000  8.27991000  4.66720000
  -1.07166000  6.97904000  0.99749600
   1.44092000  5.80503000  0.99677100
   1.22440000  8.57784000  1.06934000
  -0.24735000  5.30095000  6.70116000
  -0.32357000  8.43834000  6.50329000
   2.35437000  6.95169000  6.69532000
  -0.36409700  5.66189000 10.19530000
  -0.27578500  8.50327000 10.25290000
   2.11945000  6.92801000 10.01070000
  -1.16261000  6.83982000  4.53556000
   1.48832000  5.18150000  4.50361000
   1.47299000  8.35587000  4.51139000
 


--------------------------------------------------------------------------------------------------------


 k-point  1 :   0.0000 0.0000 0.0000  plane waves:   17725
 k-point  2 :   0.5000-0.0000-0.0000  plane waves:   17736
 k-point  3 :   0.0000 0.5000 0.0000  plane waves:   17736
 k-point  4 :   0.5000 0.5000-0.0000  plane waves:   17736
 k-point  5 :   0.0000 0.0000 0.5000  plane waves:   17676
 k-point  6 :   0.5000-0.0000 0.5000  plane waves:   17700
 k-point  7 :   0.0000 0.5000 0.5000  plane waves:   17700
 k-point  8 :   0.5000 0.5000 0.5000  plane waves:   17700

 maximum and minimum number of plane-waves per node :     17736    17676

 maximum number of plane-waves:     17736
 maximum index in each direction: 
   IXMAX=   16   IYMAX=   16   IZMAX=   18
   IXMIN=  -16   IYMIN=  -16   IZMIN=  -18


 serial   3D FFT for wavefunctions
 parallel 3D FFT for charge:
    minimum data exchange during FFTs selected (reduces bandwidth)


 total amount of memory used by VASP MPI-rank0    94424. kBytes
=======================================================================

   base      :      30000. kBytes
   nonlr-proj:      13665. kBytes
   fftplans  :       1275. kBytes
   grid      :      22786. kBytes
   one-center:       2737. kBytes
   wavefun   :      23961. kBytes
 
     INWAV:  cpu time    0.0000: real time    0.0001
 Broyden mixing: mesh for mixing (old mesh)
   NGX = 33   NGY = 33   NGZ = 37
  (NGX  =100   NGY  =100   NGZ  =112)
  gives a total of  40293 points

 initial charge density was supplied:
 charge density of overlapping atoms calculated
 number of electron     672.0000000 magnetization      48.0000000
 keeping initial charge density in first step


--------------------------------------------------------------------------------------------------------


 Maximum index for non-local projection operator         1545
 Maximum index for augmentation-charges          546 (set IRDMAX)


--------------------------------------------------------------------------------------------------------


 First call to EWALD:  gamma=   0.179
 Maximum number of real-space cells 3x 3x 2
 Maximum number of reciprocal cells 3x 3x 3

    FEWALD:  cpu time    0.0028: real time    0.0028


--------------------------------------- Iteration      1(   1)  ---------------------------------------


    POTLOK:  cpu time    0.1880: real time    0.1889
    SETDIJ:  cpu time    4.6543: real time    4.6559
    EDDIAG:  cpu time    4.3970: real time    4.7974
  RMM-DIIS:  cpu time    9.0949: real time    9.1037
    ORTHCH:  cpu time    1.2028: real time    1.3380
       DOS:  cpu time    0.0021: real time    0.0022
    --------------------------------------------
      LOOP:  cpu time   19.5390: real time   20.0862

 eigenvalue-minimisations  :  7680
 total energy-change (2. order) : 0.1601479E+04  (-0.3496921E+05)
 number of electron     672.0000000 magnetization      48.0000000
 augmentation part      672.0000000 magnetization      48.0000000

 Free energy of the ion-electron system (eV)
  ---------------------------------------------------
  alpha Z        PSCENC =      2652.81237852
  Ewald energy   TEWEN  =    -41901.09867148
  -Hartree energ DENC   =    -25714.68527816
  -exchange      EXHF   =         0.00000000
  -V(xc)+E(xc)   XCENC  =      3605.78893980
  PAW double counting   =     55594.23204139   -59034.67079123
  entropy T*S    EENTRO =        -0.04736781
  eigenvalues    EBANDS =     -7463.05055985
  atomic energy  EATOM  =     73862.19814772
  Solvation  Ediel_sol  =         0.00000000
  ---------------------------------------------------
  free energy    TOTEN  =      1601.47883890 eV

  energy without entropy =     1601.52620671  energy(sigma->0) =     1601.50252281


--------------------------------------------------------------------------------------------------------




--------------------------------------- Iteration      1(   2)  ---------------------------------------


    EDDIAG:  cpu time    4.3598: real time    4.7686
  RMM-DIIS:  cpu time    9.0953: real time    9.1017
    ORTHCH:  cpu time    1.1537: real time    1.2398
       DOS:  cpu time    0.0018: real time    0.0018
    --------------------------------------------
      LOOP:  cpu time   14.6107: real time   15.1120

 eigenvalue-minimisations  :  7680
 total energy-change (2. order) :-0.2335343E+04  (-0.8037045E+04)
 number of electron     672.0000000 magnetization      48.0000000
 augmentation part      672.0000000 magnetization      48.0000000

 Free energy of the ion-electron system (eV)
  ---------------------------------------------------
  alpha Z        PSCENC =      2652.81237852
  Ewald energy   TEWEN  =    -41901.09867148
  -Hartree energ DENC   =    -25714.68527816
  -exchange      EXHF   =         0.00000000
  -V(xc)+E(xc)   XCENC  =      3605.78893980
  PAW double counting   =     55594.23204139   -59034.67079123
  entropy T*S    EENTRO =        -0.03949541
  eigenvalues    EBANDS =     -9798.40123127
  atomic energy  EATOM  =     73862.19814772
  Solvation  Ediel_sol  =         0.00000000
  ---------------------------------------------------
  free energy    TOTEN  =      -733.86396012 eV

  energy without entropy =     -733.82446471  energy(sigma->0) =     -733.84421242


--------------------------------------------------------------------------------------------------------




--------------------------------------- Iteration      1(   3)  ---------------------------------------


    EDDIAG:  cpu time    4.3758: real time    4.7913
  RMM-DIIS:  cpu time    9.0829: real time    9.1178
    ORTHCH:  cpu time    1.2264: real time    1.3120
       DOS:  cpu time    0.0021: real time    0.0021
    --------------------------------------------
      LOOP:  cpu time   14.6872: real time   15.2232

 eigenvalue-minimisations  :  7680
 total energy-change (2. order) : 0.8731410E+02  (-0.1423426E+04)
 number of electron     672.0000000 magnetization      48.0000000
 augmentation part      672.0000000 magnetization      48.0000000

 Free energy of the ion-electron system (eV)
  ---------------------------------------------------
  alpha Z        PSCENC =      2652.81237852
  Ewald energy   TEWEN  =    -41901.09867148
  -Hartree energ DENC   =    -25714.68527816
  -exchange      EXHF   =         0.00000000
  -V(xc)+E(xc)   XCENC  =      3605.78893980
  PAW double counting   =     55594.23204139   -59034.67079123
  entropy T*S    EENTRO =        -0.03682775
  eigenvalues    EBANDS =     -9711.08979639
  atomic energy  EATOM  =     73862.19814772
  Solvation  Ediel_sol  =         0.00000000
  ---------------------------------------------------
  free energy    TOTEN  =      -646.54985758 eV

  energy without entropy =     -646.51302983  energy(sigma->0) =     -646.53144371


--------------------------------------------------------------------------------------------------------




--------------------------------------- Iteration      1(   4)  ---------------------------------------


    EDDIAG:  cpu time    4.3739: real time    4.7796
  RMM-DIIS:  cpu time    9.0865: real time    9.0971
    ORTHCH:  cpu time    1.1583: real time    1.2423
       DOS:  cpu time    0.0012: real time    0.0012
    --------------------------------------------
      LOOP:  cpu time   14.6198: real time   15.1203

 eigenvalue-minimisations  :  7680
 total energy-change (2. order) :-0.4654855E+03  (-0.4286346E+03)
 number of electron     672.0000000 magnetization      48.0000000
 augmentation part      672.0000000 magnetization      48.0000000

 Free energy of the ion-electron system (eV)
  ---------------------------------------------------
  alpha Z        PSCENC =      2652.81237852
  Ewald energy   TEWEN  =    -41901.09867148
  -Hartree energ DENC   =    -25714.68527816
  -exchange      EXHF   =         0.00000000
  -V(xc)+E(xc)   XCENC  =      3605.78893980
  PAW double counting   =     55594.23204139   -59034.67079123
  entropy T*S    EENTRO =        -0.00000000
  eigenvalues    EBANDS =    -10176.61216449
  atomic energy  EATOM  =     73862.19814772
  Solvation  Ediel_sol  =         0.00000000
  ---------------------------------------------------
  free energy    TOTEN  =     -1112.03539793 eV

  energy without entropy =    -1112.03539793  energy(sigma->0) =    -1112.03539793


--------------------------------------------------------------------------------------------------------




--------------------------------------- Iteration      1(   5)  ---------------------------------------


    EDDIAG:  cpu time    4.4036: real time    4.8166
  RMM-DIIS:  cpu time    9.0444: real time    9.1015
    ORTHCH:  cpu time    1.1581: real time    1.2420
       DOS:  cpu time    0.0015: real time    0.0015
    --------------------------------------------
      LOOP:  cpu time   14.6076: real time   15.1615

 eigenvalue-minimisations  :  7680
 total energy-change (2. order) :-0.1042447E+03  (-0.1601962E+03)
 number of electron     672.0000000 magnetization      48.0000000
 augmentation part      672.0000000 magnetization      48.0000000

 Free energy of the ion-electron system (eV)
  ---------------------------------------------------
  alpha Z        PSCENC =      2652.81237852
  Ewald energy   TEWEN  =    -41901.09867148
  -Hartree energ DENC   =    -25714.68527816
  -exchange      EXHF   =         0.00000000
  -V(xc)+E(xc)   XCENC  =      3605.78893980
  PAW double counting   =     55594.23204139   -59034.67079123
  entropy T*S    EENTRO =        -0.00000000
  eigenvalues    EBANDS =    -10280.85690841
  atomic energy  EATOM  =     73862.19814772
  Solvation  Ediel_sol  =         0.00000000
  ---------------------------------------------------
  free energy    TOTEN  =     -1216.28014185 eV

  energy without entropy =    -1216.28014185  energy(sigma->0) =    -1216.28014185


--------------------------------------------------------------------------------------------------------




--------------------------------------- Iteration      1(   6)  ---------------------------------------


    EDDIAG:  cpu time    4.3740: real time    4.7902
  RMM-DIIS:  cpu time    9.0917: real time    9.1160
    ORTHCH:  cpu time    1.1557: real time    1.2406
       DOS:  cpu time    0.0028: real time    0.0028
    --------------------------------------------
      LOOP:  cpu time   14.6242: real time   15.1496

 eigenvalue-minimisations  :  7680
 total energy-change (2. order) :-0.8855595E+01  (-0.7958850E+02)
 number of electron     672.0000000 magnetization      48.0000000
 augmentation part      672.0000000 magnetization      48.0000000

 Free energy of the ion-electron system (eV)
  ---------------------------------------------------
  alpha Z        PSCENC =      2652.81237852
  Ewald energy   TEWEN  =    -41901.09867148
  -Hartree energ DENC   =    -25714.68527816
  -exchange      EXHF   =         0.00000000
  -V(xc)+E(xc)   XCENC  =      3605.78893980
  PAW double counting   =     55594.23204139   -59034.67079123
  entropy T*S    EENTRO =        -0.00000000
  eigenvalues    EBANDS =    -10289.71250349
  atomic energy  EATOM  =     73862.19814772
  Solvation  Ediel_sol  =         0.00000000
  ---------------------------------------------------
  free energy    TOTEN  =     -1225.13573693 eV

  energy without entropy =    -1225.13573693  energy(sigma->0) =    -1225.13573693


--------------------------------------------------------------------------------------------------------




--------------------------------------- Iteration      1(   7)  ---------------------------------------


    EDDIAG:  cpu time    4.4278: real time    4.8298
  RMM-DIIS:  cpu time    9.0855: real time    9.1092
    ORTHCH:  cpu time    1.1602: real time    1.2447
       DOS:  cpu time    0.0011: real time    0.0011
    --------------------------------------------
      LOOP:  cpu time   14.6746: real time   15.1847

 eigenvalue-minimisations  :  7680
 total energy-change (2. order) :-0.1821664E+01  (-0.4871577E+02)
 number of electron     672.0000000 magnetization      48.0000000
 augmentation part      672.0000000 magnetization      48.0000000

 Free energy of the ion-electron system (eV)
  ---------------------------------------------------
  alpha Z        PSCENC =      2652.81237852
  Ewald energy   TEWEN  =    -41901.09867148
  -Hartree energ DENC   =    -25714.68527816
  -exchange      EXHF   =         0.00000000
  -V(xc)+E(xc)   XCENC  =      3605.78893980
  PAW double counting   =     55594.23204139   -59034.67079123
  entropy T*S    EENTRO =        -0.00000000
  eigenvalues    EBANDS =    -10291.53416739
  atomic energy  EATOM  =     73862.19814772
  Solvation  Ediel_sol  =         0.00000000
  ---------------------------------------------------
  free energy    TOTEN  =     -1226.95740083 eV

  energy without entropy =    -1226.95740083  energy(sigma->0) =    -1226.95740083


--------------------------------------------------------------------------------------------------------




--------------------------------------- Iteration      1(   8)  ---------------------------------------


    EDDIAG:  cpu time    4.3746: real time    4.7826
  RMM-DIIS:  cpu time    9.0849: real time    9.1078
    ORTHCH:  cpu time    1.1547: real time    1.2404
       DOS:  cpu time    0.0013: real time    0.0013
    --------------------------------------------
      LOOP:  cpu time   14.6156: real time   15.1321

 eigenvalue-minimisations  :  7680
 total energy-change (2. order) : 0.5076924E+01  (-0.3034975E+02)
 number of electron     672.0000000 magnetization      48.0000000
 augmentation part      672.0000000 magnetization      48.0000000

 Free energy of the ion-electron system (eV)
  ---------------------------------------------------
  alpha Z        PSCENC =      2652.81237852
  Ewald energy   TEWEN  =    -41901.09867148
  -Hartree energ DENC   =    -25714.68527816
  -exchange      EXHF   =         0.00000000
  -V(xc)+E(xc)   XCENC  =      3605.78893980
  PAW double counting   =     55594.23204139   -59034.67079123
  entropy T*S    EENTRO =        -0.00000000
  eigenvalues    EBANDS =    -10286.45724359
  atomic energy  EATOM  =     73862.19814772
  Solvation  Ediel_sol  =         0.00000000
  ---------------------------------------------------
  free energy    TOTEN  =     -1221.88047703 eV

  energy without entropy =    -1221.88047703  energy(sigma->0) =    -1221.88047703


--------------------------------------------------------------------------------------------------------




--------------------------------------- Iteration      1(   9)  ---------------------------------------


    EDDIAG:  cpu time    4.3928: real time    4.7959
  RMM-DIIS:  cpu time   18.9879: real time   19.0507
    ORTHCH:  cpu time    1.1544: real time    1.2402
       DOS:  cpu time    0.0016: real time    0.0016
    --------------------------------------------
      LOOP:  cpu time   24.5367: real time   25.0884

 eigenvalue-minimisations  : 21790
 total energy-change (2. order) : 0.9444408E+01  (-0.1340040E+02)
 number of electron     672.0000000 magnetization      48.0000000
 augmentation part      672.0000000 magnetization      48.0000000

 Free energy of the ion-electron system (eV)
  ---------------------------------------------------
  alpha Z        PSCENC =      2652.81237852
  Ewald energy   TEWEN  =    -41901.09867148
  -Hartree energ DENC   =    -25714.68527816
  -exchange      EXHF   =         0.00000000
  -V(xc)+E(xc)   XCENC  =      3605.78893980
  PAW double counting   =     55594.23204139   -59034.67079123
  entropy T*S    EENTRO =        -0.00000000
  eigenvalues    EBANDS =    -10277.01283541
  atomic energy  EATOM  =     73862.19814772
  Solvation  Ediel_sol  =         0.00000000
  ---------------------------------------------------
  free energy    TOTEN  =     -1212.43606885 eV

  energy without entropy =    -1212.43606885  energy(sigma->0) =    -1212.43606885


--------------------------------------------------------------------------------------------------------




--------------------------------------- Iteration      1(  10)  ---------------------------------------


    EDDIAG:  cpu time    4.3632: real time    4.7729
  RMM-DIIS:  cpu time   17.5911: real time   17.6473
    ORTHCH:  cpu time    1.1546: real time    1.2408
       DOS:  cpu time    0.0020: real time    0.0020
    --------------------------------------------
      LOOP:  cpu time   23.1109: real time   23.6629

 eigenvalue-minimisations  : 19592
 total energy-change (2. order) :-0.1914330E+01  (-0.5320366E+00)
 number of electron     672.0000000 magnetization      48.0000000
 augmentation part      672.0000000 magnetization      48.0000000

 Free energy of the ion-electron system (eV)
  ---------------------------------------------------
  alpha Z        PSCENC =      2652.81237852
  Ewald energy   TEWEN  =    -41901.09867148
  -Hartree energ DENC   =    -25714.68527816
  -exchange      EXHF   =         0.00000000
  -V(xc)+E(xc)   XCENC  =      3605.78893980
  PAW double counting   =     55594.23204139   -59034.67079123
  entropy T*S    EENTRO =        -0.00000009
  eigenvalues    EBANDS =    -10278.92716539
  atomic energy  EATOM  =     73862.19814772
  Solvation  Ediel_sol  =         0.00000000
  ---------------------------------------------------
  free energy    TOTEN  =     -1214.35039892 eV

  energy without entropy =    -1214.35039884  energy(sigma->0) =    -1214.35039888


--------------------------------------------------------------------------------------------------------




--------------------------------------- Iteration      1(  11)  ---------------------------------------


    EDDIAG:  cpu time    4.3856: real time    4.8013
  RMM-DIIS:  cpu time   19.7205: real time   19.7464
    ORTHCH:  cpu time    1.1949: real time    1.2758
       DOS:  cpu time    0.0017: real time    0.0017
    --------------------------------------------
      LOOP:  cpu time   25.3026: real time   25.8252

 eigenvalue-minimisations  : 22598
 total energy-change (2. order) : 0.7153912E-01  (-0.4356681E-01)
 number of electron     672.0000000 magnetization      48.0000000
 augmentation part      672.0000000 magnetization      48.0000000

 Free energy of the ion-electron system (eV)
  ---------------------------------------------------
  alpha Z        PSCENC =      2652.81237852
  Ewald energy   TEWEN  =    -41901.09867148
  -Hartree energ DENC   =    -25714.68527816
  -exchange      EXHF   =         0.00000000
  -V(xc)+E(xc)   XCENC  =      3605.78893980
  PAW double counting   =     55594.23204139   -59034.67079123
  entropy T*S    EENTRO =        -0.00000010
  eigenvalues    EBANDS =    -10278.85562626
  atomic energy  EATOM  =     73862.19814772
  Solvation  Ediel_sol  =         0.00000000
  ---------------------------------------------------
  free energy    TOTEN  =     -1214.27885980 eV

  energy without entropy =    -1214.27885970  energy(sigma->0) =    -1214.27885975


--------------------------------------------------------------------------------------------------------




--------------------------------------- Iteration      1(  12)  ---------------------------------------


    EDDIAG:  cpu time    4.3645: real time    4.7750
  RMM-DIIS:  cpu time   21.3841: real time   21.4038
    ORTHCH:  cpu time    1.1579: real time    1.2413
       DOS:  cpu time    0.0015: real time    0.0015
    CHARGE:  cpu time    1.7148: real time    1.7787
    MIXING:  cpu time    0.0047: real time    0.0049
    --------------------------------------------
      LOOP:  cpu time   28.6276: real time   29.2052

 eigenvalue-minimisations  : 24432
 total energy-change (2. order) :-0.8164424E-03  (-0.4299794E-02)
 number of electron     672.0000441 magnetization      47.9999971
 augmentation part      239.0172706 magnetization      29.0147256

 Broyden mixing:
  rms(total) = 0.12513E+02    rms(broyden)= 0.12503E+02
  rms(prec ) = 0.14382E+02
  weight for this iteration     100.00

 Free energy of the ion-electron system (eV)
  ---------------------------------------------------
  alpha Z        PSCENC =      2652.81237852
  Ewald energy   TEWEN  =    -41901.09867148
  -Hartree energ DENC   =    -25714.68527816
  -exchange      EXHF   =         0.00000000
  -V(xc)+E(xc)   XCENC  =      3605.78893980
  PAW double counting   =     55594.23204139   -59034.67079123
  entropy T*S    EENTRO =        -0.00000010
  eigenvalues    EBANDS =    -10278.85644271
  atomic energy  EATOM  =     73862.19814772
  Solvation  Ediel_sol  =         0.00000000
  ---------------------------------------------------
  free energy    TOTEN  =     -1214.27967625 eV

  energy without entropy =    -1214.27967615  energy(sigma->0) =    -1214.27967620


--------------------------------------------------------------------------------------------------------




--------------------------------------- Iteration      1(  13)  ---------------------------------------


    POTLOK:  cpu time    0.1724: real time    0.1729
    SETDIJ:  cpu time    5.0008: real time    5.0024
    EDDIAG:  cpu time    4.4127: real time    4.8161
  RMM-DIIS:  cpu time   17.2621: real time   17.3032
    ORTHCH:  cpu time    1.1547: real time    1.2382
       DOS:  cpu time    0.0020: real time    0.0020
    CHARGE:  cpu time    1.7842: real time    1.8062
    MIXING:  cpu time    0.0010: real time    0.0011
    --------------------------------------------
      LOOP:  cpu time   29.7900: real time   30.3421

 eigenvalue-minimisations  : 18752
 total energy-change (2. order) : 0.2265573E+03  (-0.1229513E+03)
 number of electron     672.0000383 magnetization      47.9999967
 augmentation part      269.4446011 magnetization      26.1255074

 Broyden mixing:
  rms(total) = 0.14155E+02    rms(broyden)= 0.14152E+02
  rms(prec ) = 0.15983E+02
  weight for this iteration     100.00

 eigenvalues of (default mixing * dielectric matrix)
  average eigenvalue GAMMA=   0.3151
  0.3151

 Free energy of the ion-electron system (eV)
  ---------------------------------------------------
  alpha Z        PSCENC =      2652.81237852
  Ewald energy   TEWEN  =    -41901.09867148
  -Hartree energ DENC   =    -25040.46224261
  -exchange      EXHF   =         0.00000000
  -V(xc)+E(xc)   XCENC  =      3695.93159209
  PAW double counting   =     59848.31248337   -63273.33155262
  entropy T*S    EENTRO =        -0.07778971
  eigenvalues    EBANDS =    -10832.00672238
  atomic energy  EATOM  =     73862.19814772
  Solvation  Ediel_sol  =         0.00000000
  ---------------------------------------------------
  free energy    TOTEN  =      -987.72237710 eV

  energy without entropy =     -987.64458739  energy(sigma->0) =     -987.68348225


--------------------------------------------------------------------------------------------------------




--------------------------------------- Iteration      1(  14)  ---------------------------------------


    POTLOK:  cpu time    0.1750: real time    0.1754
    SETDIJ:  cpu time    4.9894: real time    4.9910
    EDDIAG:  cpu time    4.4305: real time    4.7905
  RMM-DIIS:  cpu time   17.5629: real time   17.5755
    ORTHCH:  cpu time    1.1533: real time    1.2377
       DOS:  cpu time    0.0012: real time    0.0012
    CHARGE:  cpu time    1.7654: real time    1.7842
    MIXING:  cpu time    0.0009: real time    0.0009
    --------------------------------------------
      LOOP:  cpu time   30.0787: real time   30.5564

 eigenvalue-minimisations  : 19348
 total energy-change (2. order) : 0.7166039E+02  (-0.1822256E+02)
 number of electron     672.0000420 magnetization      47.9999948
 augmentation part      246.5237984 magnetization      32.1132222

 Broyden mixing:
  rms(total) = 0.52711E+01    rms(broyden)= 0.52666E+01
  rms(prec ) = 0.57351E+01
  weight for this iteration     100.00

 eigenvalues of (default mixing * dielectric matrix)
  average eigenvalue GAMMA=   0.7250
  1.0949  0.3552

 Free energy of the ion-electron system (eV)
  ---------------------------------------------------
  alpha Z        PSCENC =      2652.81237852
  Ewald energy   TEWEN  =    -41901.09867148
  -Hartree energ DENC   =    -25654.17364259
  -exchange      EXHF   =         0.00000000
  -V(xc)+E(xc)   XCENC  =      3672.74981014
  PAW double counting   =     63213.55091989   -66695.61423305
  entropy T*S    EENTRO =        -0.00000000
  eigenvalues    EBANDS =    -10066.48669721
  atomic energy  EATOM  =     73862.19814772
  Solvation  Ediel_sol  =         0.00000000
  ---------------------------------------------------
  free energy    TOTEN  =      -916.06198806 eV

  energy without entropy =     -916.06198806  energy(sigma->0) =     -916.06198806


--------------------------------------------------------------------------------------------------------




--------------------------------------- Iteration      1(  15)  ---------------------------------------


    POTLOK:  cpu time    0.1710: real time    0.1718
    SETDIJ:  cpu time    4.9995: real time    5.0017
    EDDIAG:  cpu time    4.4846: real time    4.8359
  RMM-DIIS:  cpu time   17.9413: real time   17.9591
    ORTHCH:  cpu time    1.2019: real time    1.2924
       DOS:  cpu time    0.0014: real time    0.0014
    CHARGE:  cpu time    1.7600: real time    1.7634
    MIXING:  cpu time    0.0014: real time    0.0014
    --------------------------------------------
      LOOP:  cpu time   30.5611: real time   31.0271

 eigenvalue-minimisations  : 20204
 total energy-change (2. order) : 0.1498593E+02  (-0.2421773E+01)
 number of electron     672.0000422 magnetization      47.9999933
 augmentation part      249.6440413 magnetization      33.7996556

 Broyden mixing:
  rms(total) = 0.23119E+01    rms(broyden)= 0.23115E+01
  rms(prec ) = 0.24071E+01
  weight for this iteration     100.00

 eigenvalues of (default mixing * dielectric matrix)
  average eigenvalue GAMMA=   0.8906
  1.5778  0.3810  0.7130

 Free energy of the ion-electron system (eV)
  ---------------------------------------------------
  alpha Z        PSCENC =      2652.81237852
  Ewald energy   TEWEN  =    -41901.09867148
  -Hartree energ DENC   =    -25574.58544352
  -exchange      EXHF   =         0.00000000
  -V(xc)+E(xc)   XCENC  =      3706.08685616
  PAW double counting   =     67230.78953257   -70752.82934738
  entropy T*S    EENTRO =        -0.00000000
  eigenvalues    EBANDS =    -10124.44951379
  atomic energy  EATOM  =     73862.19814772
  Solvation  Ediel_sol  =         0.00000000
  ---------------------------------------------------
  free energy    TOTEN  =      -901.07606119 eV

  energy without entropy =     -901.07606119  energy(sigma->0) =     -901.07606119


--------------------------------------------------------------------------------------------------------




--------------------------------------- Iteration      1(  16)  ---------------------------------------


    POTLOK:  cpu time    0.1655: real time    0.1670
    SETDIJ:  cpu time    5.0578: real time    5.0626
    EDDIAG:  cpu time    4.4905: real time    4.8346
  RMM-DIIS:  cpu time   17.6217: real time   17.6517
    ORTHCH:  cpu time    1.1786: real time    1.2620
       DOS:  cpu time    0.0015: real time    0.0015
    CHARGE:  cpu time    1.7655: real time    1.7672
    MIXING:  cpu time    0.0010: real time    0.0010
    --------------------------------------------
      LOOP:  cpu time   30.2820: real time   30.7475

 eigenvalue-minimisations  : 19297
 total energy-change (2. order) :-0.1188239E+01  (-0.6607859E+00)
 number of electron     672.0000412 magnetization      47.9999927
 augmentation part      250.9887151 magnetization      33.9173928

 Broyden mixing:
  rms(total) = 0.15963E+01    rms(broyden)= 0.15959E+01
  rms(prec ) = 0.16739E+01
  weight for this iteration     100.00

 eigenvalues of (default mixing * dielectric matrix)
  average eigenvalue GAMMA=   0.9559
  2.0612  0.8853  0.3858  0.4911

 Free energy of the ion-electron system (eV)
  ---------------------------------------------------
  alpha Z        PSCENC =      2652.81237852
  Ewald energy   TEWEN  =    -41901.09867148
  -Hartree energ DENC   =    -25527.91609780
  -exchange      EXHF   =         0.00000000
  -V(xc)+E(xc)   XCENC  =      3706.88488632
  PAW double counting   =     69935.00087084   -73484.60958648
  entropy T*S    EENTRO =        -0.00000000
  eigenvalues    EBANDS =    -10145.53622738
  atomic energy  EATOM  =     73862.19814772
  Solvation  Ediel_sol  =         0.00000000
  ---------------------------------------------------
  free energy    TOTEN  =      -902.26429974 eV

  energy without entropy =     -902.26429974  energy(sigma->0) =     -902.26429974


--------------------------------------------------------------------------------------------------------




--------------------------------------- Iteration      1(  17)  ---------------------------------------


    POTLOK:  cpu time    0.1713: real time    0.1731
    SETDIJ:  cpu time    5.0583: real time    5.0684
    EDDIAG:  cpu time    4.4453: real time    4.7871
  RMM-DIIS:  cpu time   18.3437: real time   18.4233
    ORTHCH:  cpu time    1.1564: real time    1.2426
       DOS:  cpu time    0.0014: real time    0.0014
    CHARGE:  cpu time    1.7617: real time    1.7638
    MIXING:  cpu time    0.0021: real time    0.0020
    --------------------------------------------
      LOOP:  cpu time   30.9401: real time   31.4618

 eigenvalue-minimisations  : 20413
 total energy-change (2. order) : 0.2682579E-01  (-0.1016648E+00)
 number of electron     672.0000416 magnetization      47.9999924
 augmentation part      251.1492105 magnetization      33.9306808

 Broyden mixing:
  rms(total) = 0.82574E+00    rms(broyden)= 0.82549E+00
  rms(prec ) = 0.93489E+00
  weight for this iteration     100.00

 eigenvalues of (default mixing * dielectric matrix)
  average eigenvalue GAMMA=   0.9729
  2.2046  1.0865  0.3739  0.6611  0.5387

 Free energy of the ion-electron system (eV)
  ---------------------------------------------------
  alpha Z        PSCENC =      2652.81237852
  Ewald energy   TEWEN  =    -41901.09867148
  -Hartree energ DENC   =    -25513.49086246
  -exchange      EXHF   =         0.00000000
  -V(xc)+E(xc)   XCENC  =      3704.92212799
  PAW double counting   =     71019.16600603   -74579.33695333
  entropy T*S    EENTRO =        -0.00000000
  eigenvalues    EBANDS =    -10147.40964695
  atomic energy  EATOM  =     73862.19814772
  Solvation  Ediel_sol  =         0.00000000
  ---------------------------------------------------
  free energy    TOTEN  =      -902.23747395 eV

  energy without entropy =     -902.23747395  energy(sigma->0) =     -902.23747395


--------------------------------------------------------------------------------------------------------




--------------------------------------- Iteration      1(  18)  ---------------------------------------


    POTLOK:  cpu time    0.1708: real time    0.1716
    SETDIJ:  cpu time    5.0287: real time    5.0317
    EDDIAG:  cpu time    4.4808: real time    4.7779
  RMM-DIIS:  cpu time   17.8248: real time   17.8814
    ORTHCH:  cpu time    1.1562: real time    1.2397
       DOS:  cpu time    0.0021: real time    0.0022
    CHARGE:  cpu time    1.7657: real time    1.7677
    MIXING:  cpu time    0.0011: real time    0.0010
    --------------------------------------------
      LOOP:  cpu time   30.4302: real time   30.8733

 eigenvalue-minimisations  : 19340
 total energy-change (2. order) : 0.4460343E+00  (-0.6800663E-01)
 number of electron     672.0000416 magnetization      47.9999922
 augmentation part      250.6522193 magnetization      33.9065548

 Broyden mixing:
  rms(total) = 0.32901E+00    rms(broyden)= 0.32882E+00
  rms(prec ) = 0.34906E+00
  weight for this iteration     100.00

 eigenvalues of (default mixing * dielectric matrix)
  average eigenvalue GAMMA=   1.0066
  2.4267  1.3588  0.8366  0.5857  0.3763  0.4555

 Free energy of the ion-electron system (eV)
  ---------------------------------------------------
  alpha Z        PSCENC =      2652.81237852
[...]
   4      -0.672    -0.851     1.523    -0.038     0.024     0.541
   5      -0.761    -0.612     1.373    -0.052     0.327     0.318
   6      -0.803    -0.670     1.473     0.161    -0.449     0.244
   7      -0.709    -0.933     1.642     0.038    -0.021     0.580
   8      -0.804    -0.591     1.395    -0.086    -0.266    -0.282
   9      -0.673    -0.799     1.473     0.018     0.044    -0.457
  10      -0.950    -0.880     1.830    -0.022     0.121    -0.063
  11      -1.079    -0.819     1.898     0.036    -0.040    -0.015
  12      -0.885    -0.706     1.590    -0.104    -0.406    -0.234
  13      -1.018    -0.875     1.893     0.037     0.047    -0.038
  14      -0.978    -0.921     1.899    -0.010    -0.040     0.011
  15      -0.759    -0.549     1.309    -0.094     0.314     0.174
  16      -0.872    -0.755     1.627     0.059    -0.359     0.149
  17       1.410     1.494    -2.904     0.041    -0.014     0.057
  18       1.506     1.416    -2.922     0.138     0.049    -0.061
  19       1.558     1.345    -2.904    -0.002     0.023    -0.013
  20       1.431     1.418    -2.849     0.169     0.027     0.014
  21       1.659     1.375    -3.034    -0.124    -0.244     0.108
  22       1.449     1.396    -2.845    -0.022     0.116    -0.005
  23       1.446     1.419    -2.865    -0.289     0.154    -0.059
  24       1.410     1.467    -2.877     0.096    -0.076    -0.044
  25      -0.657     2.450    -1.792    -0.298    -1.227     0.573
  26      -0.251     0.317    -0.066    -1.308     0.047     0.933
  27      -1.426    -1.954     3.380    -0.820     0.002    -0.692
  28      -0.437     1.780    -1.343    -1.859     1.362    -0.116
  29      -0.929    -0.430     1.359    -1.122    -0.220     0.844
  30      -2.138     0.512     1.626     0.041    -0.270     0.071
  31      -2.003     0.375     1.628    -1.921     0.184    -0.986
  32       0.430     1.131    -1.561    -0.373     1.166    -0.590
  33      -2.131     0.399     1.732    -0.411    -0.360     0.115
  34      -2.511     0.736     1.775     1.109    -0.512     0.050
  35       1.357     0.604    -1.961    -0.631     0.466     1.099
  36      -2.746     1.407     1.339    -1.137     0.263    -0.114
  37      -0.941    -0.519     1.460     0.453     0.730     0.808
  38       0.177    -0.837     0.660     1.858     0.141    -0.765
  39      -1.681     2.640    -0.960    -0.852     2.023     0.281
  40      -0.077    -0.015     0.093     0.696    -0.626     0.966
  41      -2.786     1.947     0.838    -5.164     3.616    -2.664
  42      -0.631     1.528    -0.897     5.192     3.100     3.309
  43       3.210    -6.430     3.219    -0.332    -4.792     1.276
  44      -4.275     0.594     3.680     3.812    -4.550    -4.901
  45      -2.347     3.158    -0.811    -5.274    -3.689     3.299
  46       5.697    -6.289     0.592     0.287     4.538    -1.199
  47      -2.085     3.103    -1.019    -6.027     2.968    -3.761
  48       3.524    -5.202     1.677    -1.211    -5.024     0.743
  49      -1.732     0.197     1.535     4.429     1.728     3.256
  50       5.313    -6.156     0.843     0.504     4.601     1.169
  51      -1.189     1.835    -0.646    -4.685    -1.251     4.098
  52      -3.760     2.843     0.917     4.534    -2.408    -3.372
  53      -3.202     3.494    -0.292    -4.118     2.331    -4.624
  54      -2.166     2.430    -0.264     5.370     1.338     4.232
  55       4.511    -4.178    -0.334     0.392    -2.904    -0.329
  56      -4.350     1.989     2.361     4.792    -2.833    -6.071
  57      -2.326     4.476    -2.151    -6.125    -1.141     4.581
  58       4.736    -5.710     0.974     0.914     5.770    -1.027
  59      -5.640     2.219     3.421    -4.125     0.853    -5.107
  60       4.333    -5.652     1.319    -0.192    -3.687    -0.098
  61      -4.350     3.334     1.016     4.909     2.533     3.861
  62       5.153    -5.137    -0.017    -0.008     3.230    -0.451
  63      -2.949     1.883     1.066    -4.492    -3.549     3.344
  64      -2.934     2.292     0.642     4.597    -0.453    -4.595
  65      -5.302     2.801     2.502    -3.610     3.117    -5.579
  66      -2.636     0.629     2.007     6.606     2.620     5.068
  67       4.854    -6.104     1.250    -0.232    -4.453     1.211
  68      -1.639     3.724    -2.085     6.513     0.218    -2.521
  69      -3.069     1.606     1.463    -5.729    -1.531     4.696
  70       3.891    -5.472     1.580     0.291     4.092     0.552
  71      -1.902     2.849    -0.946    -6.355     0.942    -3.955
  72       5.227    -4.378    -0.849    -0.765    -4.526     0.487
  73      -1.773     1.320     0.453     6.234     3.773     4.982
  74       3.863    -5.363     1.500    -0.463     5.342     2.397
  75      -4.801     4.515     0.286    -5.498    -1.832     4.835
  76      -2.816     0.082     2.733     4.867    -3.923    -3.935
  77      -4.159     3.011     1.148    -4.156     1.673    -3.784
  78      -2.755     2.214     0.541     6.924     3.170     3.510
  79       6.694    -6.060    -0.634     0.609    -5.636    -0.826
  80      -2.403     2.940    -0.536     3.943    -2.026    -2.773
  81      -3.945     2.443     1.502    -5.884    -1.245     4.511
  82       7.419    -5.403    -2.016     0.275     3.208     0.805
  83      -4.067     1.790     2.277    -3.040     2.451    -3.062
  84       3.750    -6.922     3.172     0.055    -5.124    -0.091
  85      -0.420     3.101    -2.682     6.120     1.577     3.399
  86       3.135    -5.327     2.192     0.897     4.972    -0.439
  87      -3.309     3.531    -0.222    -7.188    -2.332     3.816
  88      -4.007     2.597     1.410     4.423    -3.181    -3.102
 ---------------------------------------------------------------------


 Total hyperfine coupling parameters after diagonalization (MHz)
 (convention: |A_zz| > |A_xx| > |A_yy|)
 ----------------------------------------------------------------------
  ion      A_xx      A_yy      A_zz     asymmetry (A_yy - A_xx)/ A_zz 
 ----------------------------------------------------------------------
   1       1.658     1.347     3.793      -0.082
   2       2.031     1.504     4.183      -0.126
   3       2.095     1.809     4.335      -0.066
   4       2.056     1.748     4.363      -0.071
   5       1.271     1.024     3.348      -0.074
   6       1.042     0.589     3.182      -0.142
   7       2.808     2.450     5.279      -0.068
   8       1.736     1.422     3.772      -0.083
   9       1.917     1.697     4.150      -0.053
  10       0.359     0.276     3.073      -0.027
  11       0.501     0.231     3.214      -0.084
  12       2.348     1.991     4.682      -0.076
  13       0.368     0.206     3.129      -0.052
  14       0.117     0.057     2.936      -0.020
  15       1.434     1.095     3.317      -0.102
  16       2.103     1.879     4.520      -0.050
  17      14.318    10.019    14.435      -0.298
  18      14.179     9.939    14.468      -0.293
  19      14.883    10.634    15.096      -0.281
  20      13.117     9.013    13.455      -0.305
  21      14.779    10.402    15.172      -0.289
  22      14.117     9.881    14.188      -0.299
  23      13.538     9.523    14.120      -0.284
  24      13.758     9.540    13.958      -0.302
  25      95.577    92.977    98.173      -0.026
  26      94.836    93.329    96.593      -0.016
  27     100.419    98.681   104.756      -0.017
  28      97.385    95.169   100.753      -0.022
  29      96.545    94.654    98.378      -0.019
  30      95.502    92.834    96.641      -0.028
  31      97.970    94.282    99.879      -0.037
  32      93.936    91.311    95.118      -0.028
  33     102.250    99.583   103.590      -0.026
  34     105.121   101.147   105.899      -0.038
  35      97.750    94.510    98.713      -0.033
  36      96.350    92.024    96.844      -0.045
  37      91.899    91.388    94.628      -0.005
  38      97.964    94.863    99.004      -0.031
  39      96.866    92.694    98.989      -0.042
  40      95.819    93.763    96.302      -0.021
  41       5.109    -0.123    14.255      -0.367
  42       5.577     3.814    16.760      -0.105
  43       6.615     1.499    16.202      -0.316
  44       4.891     1.056    17.636      -0.217
  45       3.769     0.236    15.109      -0.234
  46       5.481     0.633    15.597      -0.311
  47       5.188     2.267    17.655      -0.165
  48       4.480     1.605    14.833      -0.194
  49       6.981     2.656    14.496      -0.298
  50       6.229     1.793    16.416      -0.270
  51       2.456    -0.694    11.893      -0.265
  52       3.378    -1.240    12.549      -0.368
  53       1.527    -0.305    13.363      -0.137
  54       4.483     0.539    14.755      -0.267
  55       4.116     1.594    11.698      -0.216
  56       3.692     0.034    17.231      -0.212
  57       4.789     1.533    17.877      -0.182
  58       5.500     1.795    17.035      -0.217
  59       6.525     0.154    16.518      -0.386
  60       4.388    -0.123    12.347      -0.365
  61       6.339     1.270    16.595      -0.305
  62       4.797     1.136    13.030      -0.281
  63       3.424    -0.689    13.167      -0.312
  64       5.997     1.013    14.913      -0.334
  65       5.039     1.122    17.690      -0.221
  66       7.076     1.009    18.808      -0.323
  67       8.797     4.059    18.293      -0.259
  68       6.117     1.394    16.448      -0.287
  69       3.045    -2.673    13.161      -0.435
  70       5.046     1.030    13.558      -0.296
  71       6.578     1.800    17.325      -0.276
  72       4.961     3.770    15.927      -0.075
  73       4.817     1.717    18.570      -0.167
  74       7.061     1.999    16.906      -0.299
  75       6.709     1.812    19.032      -0.257
  76       6.264     1.939    17.246      -0.251
  77       2.913    -1.636    12.005      -0.379
  78       7.588     1.777    18.993      -0.306
  79       3.085     0.511    16.508      -0.156
  80       3.945     1.431    12.655      -0.199
  81       7.119     0.607    17.033      -0.382
  82       5.905     3.122    17.150      -0.162
  83       4.329    -0.232    11.829      -0.386
  84       8.231     2.978    18.496      -0.284
  85       3.273     1.363    15.630      -0.122
  86       4.818     1.286    14.555      -0.243
  87       6.723     1.046    18.919      -0.300
  88       9.001     3.584    17.829      -0.304
 ---------------------------------------------------------------------



--------------------------------------------------------------------------------------------------------


 stress matrix after NEB project (eV)
    -43.17972     -2.53404     -3.69716
     -2.51944    -47.62012    -10.24599
     -3.67805    -10.20419    -60.87849
  FORCES: max atom, RMS     2.667199    1.189834
  FORCE total and by dimension   11.161631    2.291341
  Stress total and by dimension   89.930121   60.878491
     LOOP+:  cpu time 5033.2075: real time 5137.6805
    4ORBIT:  cpu time    0.0000: real time    0.0000
 


 total charge     
 
# of ion       s       p       d       tot
------------------------------------------
    1        0.054   5.996   0.000   6.051
    2        0.045   5.987   0.000   6.032
    3        0.052   5.994   0.000   6.045
    4        0.053   5.994   0.000   6.047
    5        0.053   5.996   0.000   6.048
    6        0.046   5.988   0.000   6.034
    7        0.055   5.997   0.000   6.052
    8        0.052   5.995   0.000   6.047
    9        0.054   5.997   0.000   6.051
   10        0.047   5.991   0.000   6.037
   11        0.051   5.995   0.000   6.047
   12        0.053   5.996   0.000   6.049
   13        0.050   5.994   0.000   6.043
   14        0.050   5.995   0.000   6.045
   15        0.052   5.994   0.000   6.046
   16        0.052   5.996   0.000   6.049
   17        0.150   6.130   0.085   6.365
   18        0.152   6.132   0.086   6.370
   19        0.147   6.124   0.081   6.352
   20        0.149   6.128   0.083   6.360
   21        0.155   6.139   0.093   6.386
   22        0.148   6.127   0.083   6.358
   23        0.147   6.125   0.082   6.354
   24        0.146   6.123   0.080   6.348
   25        0.388   6.483   4.865  11.736
   26        0.381   6.467   4.840  11.688
   27        0.355   6.410   4.784  11.550
   28        0.370   6.441   4.820  11.632
   29        0.379   6.462   4.838  11.680
   30        0.380   6.464   4.835  11.678
   31        0.392   6.485   4.871  11.748
   32        0.379   6.463   4.831  11.674
   33        0.367   6.437   4.815  11.618
   34        0.352   6.401   4.788  11.541
   35        0.372   6.447   4.831  11.650
   36        0.373   6.452   4.821  11.647
   37        0.390   6.485   4.857  11.732
   38        0.371   6.448   4.821  11.640
   39        0.368   6.438   4.818  11.624
   40        0.380   6.463   4.841  11.684
   41        1.599   3.507   0.000   5.107
   42        1.599   3.493   0.000   5.093
   43        1.598   3.521   0.000   5.119
   44        1.602   3.485   0.000   5.087
   45        1.599   3.490   0.000   5.089
   46        1.599   3.519   0.000   5.118
   47        1.604   3.505   0.000   5.109
   48        1.599   3.520   0.000   5.119
   49        1.597   3.522   0.000   5.118
   50        1.600   3.525   0.000   5.124
   51        1.597   3.507   0.000   5.104
   52        1.600   3.518   0.000   5.117
   53        1.598   3.506   0.000   5.104
   54        1.596   3.492   0.000   5.088
   55        1.596   3.506   0.000   5.102
   56        1.606   3.509   0.000   5.116
   57        1.600   3.487   0.000   5.087
   58        1.599   3.483   0.000   5.082
   59        1.602   3.544   0.000   5.145
   60        1.597   3.515   0.000   5.112
   61        1.600   3.530   0.000   5.130
   62        1.595   3.511   0.000   5.106
   63        1.595   3.492   0.000   5.086
   64        1.597   3.491   0.000   5.088
   65        1.600   3.509   0.000   5.109
   66        1.601   3.500   0.000   5.101
   67        1.601   3.511   0.000   5.112
   68        1.598   3.460   0.000   5.059
   69        1.597   3.485   0.000   5.082
   70        1.598   3.488   0.000   5.086
   71        1.600   3.501   0.000   5.102
   72        1.600   3.500   0.000   5.100
   73        1.600   3.487   0.000   5.087
   74        1.598   3.508   0.000   5.106
   75        1.604   3.531   0.000   5.135
   76        1.600   3.511   0.000   5.111
   77        1.599   3.505   0.000   5.104
   78        1.602   3.486   0.000   5.088
   79        1.602   3.481   0.000   5.083
   80        1.594   3.490   0.000   5.084
   81        1.601   3.538   0.000   5.139
   82        1.600   3.477   0.000   5.076
   83        1.596   3.531   0.000   5.126
   84        1.601   3.525   0.000   5.126
   85        1.597   3.467   0.000   5.064
   86        1.599   3.492   0.000   5.091
   87        1.603   3.485   0.000   5.089
   88        1.601   3.536   0.000   5.137
--------------------------------------------------
tot         84.772 416.361  77.951 579.084
 


 magnetization (x)
 
# of ion       s       p       d       tot
------------------------------------------
    1        0.001   0.000   0.000   0.002
    2        0.002   0.000   0.000   0.002
    3        0.002   0.000   0.000   0.002
    4        0.002   0.000   0.000   0.002
    5        0.001  -0.000   0.000   0.001
    6        0.001  -0.000   0.000   0.001
    7        0.002   0.000   0.000   0.003
    8        0.002   0.001   0.000   0.002
    9        0.002   0.000   0.000   0.002
   10        0.001   0.000   0.000   0.001
   11        0.001   0.000   0.000   0.001
   12        0.002   0.000   0.000   0.002
   13        0.001   0.000   0.000   0.001
   14        0.001   0.000   0.000   0.001
   15        0.001   0.001   0.000   0.002
   16        0.002   0.000   0.000   0.002
   17        0.007   0.002   0.001   0.010
   18        0.007   0.002   0.001   0.011
   19        0.008   0.003   0.001   0.011
   20        0.006   0.002   0.001   0.009
   21        0.007   0.003   0.001   0.011
   22        0.007   0.002   0.001   0.010
   23        0.007   0.002   0.001   0.010
   24        0.007   0.001   0.001   0.009
   25        0.015   0.031   2.723   2.769
   26        0.015   0.029   2.743   2.787
   27        0.016   0.029   2.819   2.864
   28        0.015   0.030   2.760   2.806
   29        0.015   0.031   2.745   2.791
   30        0.015   0.030   2.744   2.789
   31        0.015   0.030   2.718   2.763
   32        0.015   0.029   2.743   2.787
   33        0.017   0.032   2.783   2.831
   34        0.017   0.029   2.826   2.872
   35        0.015   0.030   2.751   2.796
   36        0.015   0.030   2.765   2.810
   37        0.014   0.030   2.727   2.771
   38        0.016   0.030   2.755   2.801
   39        0.015   0.029   2.772   2.816
   40        0.015   0.030   2.739   2.784
   41        0.002   0.032   0.000   0.034
   42        0.002   0.034   0.000   0.036
   43        0.002   0.043   0.000   0.045
   44        0.002   0.021   0.000   0.024
   45        0.002   0.026   0.000   0.028
   46        0.002   0.036   0.000   0.038
   47        0.002   0.038   0.000   0.040
   48        0.002   0.027   0.000   0.029
   49        0.002   0.042   0.000   0.044
   50        0.002   0.042   0.000   0.044
   51        0.002   0.008   0.000   0.010
   52        0.001   0.017   0.000   0.019
   53        0.001   0.014   0.000   0.016
   54        0.002   0.024   0.000   0.026
   55        0.002   0.018   0.000   0.020
   56        0.002   0.033   0.000   0.035
   57        0.002   0.034   0.000   0.036
   58        0.002   0.035   0.000   0.037
   59        0.002   0.048   0.000   0.049
   60        0.002   0.018   0.000   0.020
   61        0.002   0.053   0.000   0.055
   62        0.002   0.019   0.000   0.020
   63        0.002   0.012   0.000   0.014
   64        0.002   0.029   0.000   0.031
   65        0.002   0.035   0.000   0.037
   66        0.002   0.042   0.000   0.045
   67        0.003   0.049   0.000   0.051
   68        0.002   0.024   0.000   0.026
   69        0.001   0.015   0.000   0.016
   70        0.002   0.018   0.000   0.020
   71        0.002   0.028   0.000   0.030
   72        0.002   0.027   0.000   0.030
   73        0.002   0.037   0.000   0.040
   74        0.002   0.050   0.000   0.052
   75        0.002   0.051   0.000   0.053
   76        0.002   0.045   0.000   0.047
   77        0.001   0.007   0.000   0.009
   78        0.002   0.047   0.000   0.049
   79        0.002   0.020   0.000   0.022
   80        0.002   0.024   0.000   0.026
   81        0.002   0.056   0.000   0.058
   82        0.002   0.032   0.000   0.034
   83        0.001   0.029   0.000   0.031
   84        0.003   0.055   0.000   0.058
   85        0.002   0.012   0.000   0.014
   86        0.002   0.026   0.000   0.028
   87        0.002   0.047   0.000   0.049
   88        0.002   0.061   0.000   0.063
--------------------------------------------------
tot          0.421   2.042  44.120  46.583
 

 total amount of memory used by VASP MPI-rank0    94424. kBytes
=======================================================================

   base      :      30000. kBytes
   nonlr-proj:      13665. kBytes
   fftplans  :       1275. kBytes
   grid      :      22786. kBytes
   one-center:       2737. kBytes
   wavefun   :      23961. kBytes
 
  
  
 General timing and accounting informations for this job:
 ========================================================
  
                  Total CPU time used (sec):     5054.078
                            User time (sec):     5013.229
                          System time (sec):       40.849
                         Elapsed time (sec):     5161.140
  
                   Maximum memory used (kb):      195564.
                   Average memory used (kb):           0.
  
                          Minor page faults:      1592458
                          Major page faults:            0
                 Voluntary context switches:      1779032
