 vasp.5.4.4.18Apr17-6-g9f103f2a35 (build Dec 02 2020 12:53:39) complex          
  
 executed on             LinuxIFC date 2021.08.03  01:32:01
 running on   96 total cores
 distrk:  each k-point on   96 cores,    1 groups
 distr:  one band on NCORES_PER_BAND=   1 cores,   96 groups


--------------------------------------------------------------------------------------------------------


 INCAR:
 POTCAR:    PAW_PBE Na_pv 19Sep2006               
 POTCAR:    PAW_PBE Mg_pv 13Apr2007               
 POTCAR:    PAW_PBE Mn_pv 02Aug2007               
 POTCAR:    PAW_PBE O 08Apr2002                   

 ----------------------------------------------------------------------------- 
|                                                                             |
|           W    W    AA    RRRRR   N    N  II  N    N   GGGG   !!!           |
|           W    W   A  A   R    R  NN   N  II  NN   N  G    G  !!!           |
|           W    W  A    A  R    R  N N  N  II  N N  N  G       !!!           |
|           W WW W  AAAAAA  RRRRR   N  N N  II  N  N N  G  GGG   !            |
|           WW  WW  A    A  R   R   N   NN  II  N   NN  G    G                |
|           W    W  A    A  R    R  N    N  II  N    N   GGGG   !!!           |
|                                                                             |
|      For optimal performance we recommend to set                            |
|        NCORE= 4 - approx SQRT( number of cores)                             |
|      NCORE specifies how many cores store one orbital (NPAR=cpu/NCORE).     |
|      This setting can  greatly improve the performance of VASP for DFT.     |
|      The default,   NCORE=1            might be grossly inefficient         |
|      on modern multi-core architectures or massively parallel machines.     |
|      Do your own testing !!!!                                               |
|      Unfortunately you need to use the default for GW and RPA calculations. |
|      (for HF NCORE is supported but not extensively tested yet)             |
|                                                                             |
 ----------------------------------------------------------------------------- 

 POTCAR:    PAW_PBE Na_pv 19Sep2006               
   VRHFIN =Na: p6s1                                                             
   LEXCH  = PE                                                                  
   EATOM  =   766.0439 eV,   56.3026 Ry                                         
                                                                                
   TITEL  = PAW_PBE Na_pv 19Sep2006                                             
   LULTRA =        F    use ultrasoft PP ?                                      
   IUNSCR =        1    unscreen: 0-lin 1-nonlin 2-no                           
   RPACOR =    1.800    partial core radius                                     
   POMASS =   22.990; ZVAL   =    7.000    mass and valenz                      
   RCORE  =    2.200    outmost cutoff radius                                   
   RWIGS  =    2.200; RWIGS  =    1.164    wigner-seitz radius (au A)           
   ENMAX  =  259.561; ENMIN  =  194.671 eV                                      
   ICORE  =        2    local potential                                         
   LCOR   =        T    correct aug charges                                     
   LPAW   =        T    paw PP                                                  
   EAUG   =  368.056                                                            
   DEXC   =    0.000                                                            
   RMAX   =    2.245    core radius for proj-oper                               
   RAUG   =    1.300    factor for augmentation sphere                          
   RDEP   =    2.259    radius for radial grids                                 
   RDEPT  =    1.738    core radius for aug-charge                              
                                                                                
   Atomic configuration                                                         
    5 entries                                                                   
     n  l   j            E        occ.                                          
     1  0  0.50     -1033.6933   2.0000                                         
     2  0  0.50       -56.7526   2.0000                                         
     2  1  1.50       -28.6721   6.0000                                         
     3  0  0.50        -2.7440   1.0000                                         
     3  2  1.50        -1.3606   0.0000                                         
   Description                                                                  
     l       E           TYP  RCUT    TYP  RCUT                                 
     1    -28.6720912     23  2.000                                             
     1      6.8029130     23  2.000                                             
     0     -2.7439560     23  2.200                                             
     0     34.0145650     23  2.200                                             
     2     -1.3605826     23  2.200                                             
  local pseudopotential read in
  partial core-charges read in
  partial kinetic energy density read in
  atomic valenz-charges read in
  non local Contribution for L=           1  read in
    real space projection operators read in
  non local Contribution for L=           1  read in
    real space projection operators read in
  non local Contribution for L=           0  read in
    real space projection operators read in
  non local Contribution for L=           0  read in
    real space projection operators read in
    PAW grid and wavefunctions read in
 
   number of l-projection  operators is LMAX  =           4
   number of lm-projection operators is LMMAX =           8
 
 POTCAR:    PAW_PBE Mg_pv 13Apr2007               
   VRHFIN =Mg: p6s2                                                             
   LEXCH  = PE                                                                  
   EATOM  =  1056.7344 eV,   77.6678 Ry                                         
                                                                                
   TITEL  = PAW_PBE Mg_pv 13Apr2007                                             
   LULTRA =        F    use ultrasoft PP ?                                      
   IUNSCR =        1    unscreen: 0-lin 1-nonlin 2-no                           
   RPACOR =    1.500    partial core radius                                     
   POMASS =   24.305; ZVAL   =    8.000    mass and valenz                      
   RCORE  =    2.000    outmost cutoff radius                                   
   RWIGS  =    2.000; RWIGS  =    1.058    wigner-seitz radius (au A)           
   ENMAX  =  403.929; ENMIN  =  302.947 eV                                      
   RCLOC  =    1.506    cutoff for local pot                                    
   LCOR   =        T    correct aug charges                                     
   LPAW   =        T    paw PP                                                  
   EAUG   =  758.780                                                            
   DEXC   =    0.000                                                            
   RMAX   =    2.045    core radius for proj-oper                               
   RAUG   =    1.300    factor for augmentation sphere                          
   RDEP   =    2.025    radius for radial grids                                 
   RDEPT  =    1.557    core radius for aug-charge                              
                                                                                
   Atomic configuration                                                         
    5 entries                                                                   
     n  l   j            E        occ.                                          
     1  0  0.50     -1259.6230   2.0000                                         
     2  0  0.50       -79.8442   2.0000                                         
     2  1  1.50       -46.6121   6.0000                                         
     3  0  0.50        -4.7055   2.0000                                         
     3  2  1.50        -1.3606   0.0000                                         
   Description                                                                  
     l       E           TYP  RCUT    TYP  RCUT                                 
     1    -46.6121073     23  1.600                                             
     1      2.7211652     23  1.600                                             
     0     -4.7054661     23  2.000                                             
     0     61.2262170     23  2.000                                             
     2     -1.3605826     23  2.000                                             
  local pseudopotential read in
  partial core-charges read in
  partial kinetic energy density read in
  atomic valenz-charges read in
  non local Contribution for L=           1  read in
    real space projection operators read in
  non local Contribution for L=           1  read in
    real space projection operators read in
  non local Contribution for L=           0  read in
    real space projection operators read in
  non local Contribution for L=           0  read in
    real space projection operators read in
  non local Contribution for L=           2  read in
    real space projection operators read in
    PAW grid and wavefunctions read in
 
   number of l-projection  operators is LMAX  =           5
   number of lm-projection operators is LMMAX =          13
 
 POTCAR:    PAW_PBE Mn_pv 02Aug2007               
   VRHFIN =Mn: 3p4s3d                                                           
   LEXCH  = PE                                                                  
   EATOM  =  2025.2664 eV,  148.8529 Ry                                         
                                                                                
   TITEL  = PAW_PBE Mn_pv 02Aug2007                                             
   LULTRA =        F    use ultrasoft PP ?                                      
   IUNSCR =        1    unscreen: 0-lin 1-nonlin 2-no                           
   RPACOR =    2.080    partial core radius                                     
   POMASS =   54.938; ZVAL   =   13.000    mass and valenz                      
   RCORE  =    2.300    outmost cutoff radius                                   
   RWIGS  =    2.500; RWIGS  =    1.323    wigner-seitz radius (au A)           
   ENMAX  =  269.864; ENMIN  =  202.398 eV                                      
   ICORE  =        3    local potential                                         
   LCOR   =        T    correct aug charges                                     
   LPAW   =        T    paw PP                                                  
   EAUG   =  569.085                                                            
   DEXC   =    0.000                                                            
   RMAX   =    2.343    core radius for proj-oper                               
   RAUG   =    1.300    factor for augmentation sphere                          
   RDEP   =    2.338    radius for radial grids                                 
   RDEPT  =    1.798    core radius for aug-charge                              
                                                                                
   Atomic configuration                                                         
    8 entries                                                                   
     n  l   j            E        occ.                                          
     1  0  0.50     -6424.8287   2.0000                                         
     2  0  0.50      -739.1154   2.0000                                         
     2  1  1.50      -625.3949   6.0000                                         
     3  0  0.50       -81.6100   2.0000                                         
     3  1  1.50       -50.4667   6.0000                                         
     3  2  2.50        -3.3745   6.0000                                         
     4  0  0.50        -4.1331   1.0000                                         
     4  3  2.50        -1.3606   0.0000                                         
   Description                                                                  
     l       E           TYP  RCUT    TYP  RCUT                                 
     1    -50.4666628     23  2.000                                             
     1     -1.3605826     23  2.000                                             
     2     -3.3744729     23  2.300                                             
     2     -4.7350555     23  2.300                                             
     0     -4.1331431     23  2.300                                             
     0      7.6656591     23  2.300                                             
     3      9.5240782     23  2.300                                             
  local pseudopotential read in
  partial core-charges read in
  partial kinetic energy density read in
  atomic valenz-charges read in
  non local Contribution for L=           1  read in
    real space projection operators read in
  non local Contribution for L=           1  read in
    real space projection operators read in
  non local Contribution for L=           2  read in
    real space projection operators read in
  non local Contribution for L=           2  read in
    real space projection operators read in
  non local Contribution for L=           0  read in
    real space projection operators read in
  non local Contribution for L=           0  read in
    real space projection operators read in
    PAW grid and wavefunctions read in
 
   number of l-projection  operators is LMAX  =           6
   number of lm-projection operators is LMMAX =          18
 
 POTCAR:    PAW_PBE O 08Apr2002                   
   VRHFIN =O: s2p4                                                              
   LEXCH  = PE                                                                  
   EATOM  =   432.3788 eV,   31.7789 Ry                                         
                                                                                
   TITEL  = PAW_PBE O 08Apr2002                                                 
   LULTRA =        F    use ultrasoft PP ?                                      
   IUNSCR =        1    unscreen: 0-lin 1-nonlin 2-no                           
   RPACOR =    1.200    partial core radius                                     
   POMASS =   16.000; ZVAL   =    6.000    mass and valenz                      
   RCORE  =    1.520    outmost cutoff radius                                   
   RWIGS  =    1.550; RWIGS  =    0.820    wigner-seitz radius (au A)           
   ENMAX  =  400.000; ENMIN  =  300.000 eV                                      
   ICORE  =        2    local potential                                         
   LCOR   =        T    correct aug charges                                     
   LPAW   =        T    paw PP                                                  
   EAUG   =  605.392                                                            
   DEXC   =    0.000                                                            
   RMAX   =    1.553    core radius for proj-oper                               
   RAUG   =    1.300    factor for augmentation sphere                          
   RDEP   =    1.550    radius for radial grids                                 
   RDEPT  =    1.329    core radius for aug-charge                              
                                                                                
   Atomic configuration                                                         
    4 entries                                                                   
     n  l   j            E        occ.                                          
     1  0  0.50      -514.6923   2.0000                                         
     2  0  0.50       -23.9615   2.0000                                         
     2  1  0.50        -9.0305   4.0000                                         
     3  2  1.50        -9.5241   0.0000                                         
   Description                                                                  
     l       E           TYP  RCUT    TYP  RCUT                                 
     0    -23.9615318     23  1.200                                             
     0     -9.5240782     23  1.200                                             
     1     -9.0304911     23  1.520                                             
     1      8.1634956     23  1.520                                             
     2     -9.5240782      7  1.500                                             
  local pseudopotential read in
  partial core-charges read in
  partial kinetic energy density read in
  kinetic energy density of atom read in
  atomic valenz-charges read in
  non local Contribution for L=           0  read in
    real space projection operators read in
  non local Contribution for L=           0  read in
    real space projection operators read in
  non local Contribution for L=           1  read in
    real space projection operators read in
  non local Contribution for L=           1  read in
    real space projection operators read in
    PAW grid and wavefunctions read in
 
   number of l-projection  operators is LMAX  =           4
   number of lm-projection operators is LMMAX =           8
 
 Optimization of the real space projectors (new method)

 maximal supplied QI-value         = 17.01
 optimisation between [QCUT,QGAM] = [ 10.20, 20.41] = [ 29.16,116.64] Ry 
 Optimized for a Real-space Cutoff    1.30 Angstroem

   l    n(q)    QCUT    max X(q) W(low)/X(q) W(high)/X(q)  e(spline) 
   1      7    10.205     4.940    0.23E-03    0.84E-03    0.11E-06
   1      7    10.205     6.253    0.40E-03    0.13E-02    0.18E-06
   0      8    10.205    37.438    0.23E-03    0.37E-03    0.42E-07
   0      8    10.205     9.606    0.16E-03    0.26E-03    0.31E-07
 Optimization of the real space projectors (new method)

 maximal supplied QI-value         = 18.90
 optimisation between [QCUT,QGAM] = [ 10.20, 20.41] = [ 29.16,116.64] Ry 
 Optimized for a Real-space Cutoff    1.26 Angstroem

   l    n(q)    QCUT    max X(q) W(low)/X(q) W(high)/X(q)  e(spline) 
   1      7    10.205     2.974    0.63E-04    0.14E-03    0.13E-06
   1      7    10.205     4.279    0.11E-03    0.45E-03    0.24E-06
   0      8    10.205    16.381    0.44E-03    0.15E-03    0.55E-07
   0      8    10.205     5.611    0.31E-03    0.11E-03    0.40E-07
   2      7    10.205     4.652    0.50E-03    0.47E-03    0.57E-07
 Optimization of the real space projectors (new method)

 maximal supplied QI-value         = 16.25
 optimisation between [QCUT,QGAM] = [ 10.24, 20.48] = [ 29.35,117.42] Ry 
 Optimized for a Real-space Cutoff    1.34 Angstroem

   l    n(q)    QCUT    max X(q) W(low)/X(q) W(high)/X(q)  e(spline) 
   1      8    10.239     3.658    0.23E-03    0.30E-03    0.98E-07
   1      8    10.239     5.612    0.32E-03    0.65E-03    0.21E-06
   2      7    10.239    55.373    0.42E-03    0.45E-03    0.65E-07
   2      7    10.239    50.863    0.43E-03    0.48E-03    0.67E-07
   0      8    10.239    79.536    0.11E-03    0.21E-03    0.56E-07
   0      8    10.239    38.668    0.96E-04    0.19E-03    0.52E-07
 Optimization of the real space projectors (new method)

 maximal supplied QI-value         = 24.76
 optimisation between [QCUT,QGAM] = [ 10.15, 20.30] = [ 28.85,115.39] Ry 
 Optimized for a Real-space Cutoff    1.38 Angstroem

   l    n(q)    QCUT    max X(q) W(low)/X(q) W(high)/X(q)  e(spline) 
   0      8    10.150    20.381    0.22E-03    0.32E-03    0.29E-06
   0      8    10.150    15.268    0.23E-03    0.35E-03    0.30E-06
   1      8    10.150     5.964    0.46E-03    0.53E-03    0.21E-06
   1      8    10.150     5.382    0.38E-03    0.45E-03    0.19E-06
  PAW_PBE Na_pv 19Sep2006               :
 energy of atom  1       EATOM= -766.0439
 kinetic energy error for atom=    0.0103 (will be added to EATOM!!)
  PAW_PBE Mg_pv 13Apr2007               :
 energy of atom  2       EATOM=-1056.7344
 kinetic energy error for atom=    0.0820 (will be added to EATOM!!)
  PAW_PBE Mn_pv 02Aug2007               :
 energy of atom  3       EATOM=-2025.2664
 kinetic energy error for atom=    0.0284 (will be added to EATOM!!)
  PAW_PBE O 08Apr2002                   :
 energy of atom  4       EATOM= -432.3788
 kinetic energy error for atom=    0.1156 (will be added to EATOM!!)
 
 
 POSCAR: Na Mg Mn  O                             
  positions in cartesian coordinates
  No initial velocities read in

 METAGGA = SCAN     LMAXTAU =  6    LMIXTAU =  F

 exchange correlation table for  LEXCH =        8
   RHO(1)=    0.500       N(1)  =     2000
   RHO(2)=  100.500       N(2)  =     4000

 VTST: version 3.2, (02/03/18)

 CHAIN: initializing optimizer
 
 OPT: Using VASP Dynamics algorithm
 CHAIN: Read ICHAIN            0
 
 POSCAR: Na Mg Mn  O                             
  positions in cartesian coordinates
  No initial velocities read in
 


--------------------------------------------------------------------------------------------------------


 ion  position               nearest neighbor table
   1  0.125  0.765  0.239-  67 2.15  66 2.27  34 2.94
   2  0.129  0.578  0.755-  73 2.24  60 2.25  37 2.76
   3  0.196  0.910  0.748-  44 2.28  70 2.36  73 2.37  47 2.38
   4  0.660  0.068  0.755-  84 2.13  56 2.33  49 2.34  29 2.84  31 2.94
   5  0.649  0.254  0.263-  51 2.34  62 2.35
   6  0.185  0.110  0.243-  41 2.21  50 2.37  25 2.79  27 2.93
   7  0.318  0.252  0.758-  58 2.32  61 2.34  47 2.35
   8  0.497  0.639  0.747-  85 2.20  83 2.26  82 2.26  80 2.35
   9  0.005  0.400  0.247-  53 2.31  64 2.35  55 2.36
  10  0.703  0.613  0.257-  65 2.25  74 2.27  35 2.79
  11  0.348  0.559  0.246-  55 2.34  87 2.37
  12  0.978  0.088  0.746-  69 2.25  56 2.36
  13  0.697  0.385  0.759-  49 2.19  46 2.31  68 2.37
  14  0.822  0.744  0.761-  85 2.17  71 2.29  82 2.33  69 2.38
  15  0.847  0.036  0.245-  63 2.31  54 2.31  79 2.35
  16  0.498  0.917  0.249-  51 2.34  79 2.38  86 2.38  42 2.38
  17  0.832  0.410  0.997-  43 1.99  60 2.03  49 2.06  53 2.07  71 2.09  66 2.12  29 2.75
  18  0.500  0.250  0.502-  46 1.97  50 2.06  45 2.06  51 2.07  44 2.08  52 2.10  31 2.85  35 2.86
                            36 2.86
  19  0.337  0.416  0.993-  55 2.02  78 2.03  83 2.05  61 2.10  41 2.13  48 2.14
  20  0.985  0.242  0.493-  62 1.97  56 2.04  64 2.04  57 2.05  63 2.09  58 2.16  31 2.82  28 2.83
                            27 2.85  40 2.86
  21  0.344  0.914  0.999-  73 2.02  42 2.03  77 2.08  84 2.11  47 2.12  67 2.19  38 2.74  26 2.82
                            37 2.85
  22  0.003  0.756  0.501-  70 1.94  76 1.97  74 2.00  75 2.09  68 2.16  69 2.17  36 2.81
  23  0.833  0.918  0.004-  79 2.00  59 2.01  65 2.04  54 2.05  72 2.09  85 2.13  38 2.82
  24  0.494  0.749  0.500-  87 2.01  88 2.03  80 2.09  81 2.09  86 2.10  82 2.14  39 2.83
  25  0.169  0.084  0.996-  47 1.89  61 1.89  54 1.90  41 1.91  72 1.96  67 1.96   6 2.79  26 2.81
                            30 2.86  34 2.93
  26  0.492  0.239  1.000-  41 1.84  47 1.91  42 1.95  43 1.97  48 2.00  49 2.00  25 2.81  21 2.82
                            29 2.86  33 2.98
  27  0.162  0.091  0.504-  63 1.85  44 1.88  50 1.89  58 1.92  76 1.93  69 2.12  32 2.81  20 2.85
                            36 2.91  40 2.92   6 2.93
  28  0.832  0.415  0.506-  46 1.80  57 1.81  52 1.89  68 1.91  75 1.96  62 2.01  20 2.83  35 2.87
                            31 2.91  39 2.92
  29  0.676  0.094  0.008-  49 1.82  53 1.88  42 1.89  79 1.94  59 1.94  84 1.96  17 2.75   4 2.84
                            26 2.86  30 2.86  38 2.87
  30  0.004  0.250  0.002-  59 1.82  61 1.85  54 1.85  60 1.94  53 1.98  55 2.02  29 2.86  25 2.86
                            37 2.91
  31  0.660  0.080  0.493-  88 1.86  81 1.88  56 1.90  62 1.90  51 1.91  46 1.96  20 2.82  18 2.85
                            40 2.88  36 2.89  28 2.91   4 2.94
  32  0.324  0.415  0.499-  80 1.87  50 1.87  64 1.92  87 1.92  45 1.96  58 1.98  27 2.81  39 2.86
                            35 2.95
  33  0.672  0.582  0.989-  78 1.88  65 1.91  48 1.91  71 1.95  43 1.96  85 1.98  34 2.89  26 2.98
                            38 3.00
  34  0.005  0.747  0.997-  71 1.82  67 1.89  66 1.90  72 1.94  73 1.98  65 2.03  37 2.88  33 2.89
                            25 2.93   1 2.94
  35  0.665  0.579  0.504-  52 1.78  74 1.84  45 1.88  87 1.94  82 1.99  68 2.05  10 2.79  18 2.86
                            28 2.87  40 2.92  32 2.95
  36  0.326  0.921  0.500-  70 1.88  51 1.92  76 1.93  81 1.93  86 1.99  44 2.00  22 2.81  18 2.86
                            39 2.89  31 2.89  27 2.91
  37  0.176  0.585  0.998-  77 1.86  55 1.87  66 1.88  73 1.90  83 1.91  60 1.92   2 2.76  21 2.85
                            34 2.88  38 2.89  30 2.91
  38  0.509  0.764  0.995-  84 1.87  79 1.91  77 1.98  83 1.99  85 2.02  78 2.09  21 2.74  23 2.82
                            29 2.87  37 2.89  33 3.00
  39  0.168  0.588  0.489-  64 1.90  86 1.92  57 1.93  70 1.94  75 1.95  80 1.97  24 2.83  32 2.86
                            36 2.89  28 2.92
  40  0.825  0.914  0.513-  82 1.87  74 1.91  56 1.94  69 1.98  63 1.99  88 1.99  20 2.86  31 2.88
                            35 2.92  27 2.92
  41  0.336  0.233  0.090-  26 1.84  25 1.91  19 2.13   6 2.21
  42  0.512  0.088  0.096-  29 1.89  26 1.95  21 2.03  16 2.38
  43  0.661  0.413  0.085-  33 1.96  26 1.97  17 1.99
  44  0.312  0.081  0.597-  27 1.88  36 2.00  18 2.08   3 2.28
  45  0.497  0.428  0.591-  35 1.88  32 1.96  18 2.06
  46  0.677  0.255  0.584-  28 1.80  31 1.96  18 1.97  13 2.31
  47  0.329  0.089  0.904-  25 1.89  26 1.91  21 2.12   7 2.35   3 2.38
  48  0.520  0.414  0.897-  33 1.91  26 2.00  19 2.14
  49  0.657  0.227  0.907-  29 1.82  26 2.00  17 2.06  13 2.19   4 2.34
  50  0.321  0.252  0.414-  32 1.87  27 1.89  18 2.06   6 2.37
  51  0.492  0.071  0.404-  31 1.91  36 1.92  18 2.07   5 2.34  16 2.34
  52  0.684  0.440  0.418-  35 1.78  28 1.89  18 2.10
  53  0.837  0.242  0.102-  29 1.88  30 1.98  17 2.07   9 2.31
  54  0.017  0.098  0.088-  30 1.85  25 1.90  23 2.05  15 2.31
  55  0.175  0.429  0.091-  37 1.87  30 2.02  19 2.02  11 2.34   9 2.36
  56  0.811  0.078  0.593-  31 1.90  40 1.94  20 2.04   4 2.33  12 2.36
  57  0.999  0.429  0.580-  28 1.81  39 1.93  20 2.05
  58  0.166  0.250  0.602-  27 1.92  32 1.98  20 2.16   7 2.32
  59  0.844  0.100  0.918-  30 1.82  29 1.94  23 2.01
  60  0.014  0.418  0.910-  37 1.92  30 1.94  17 2.03   2 2.25
  61  0.147  0.234  0.908-  30 1.85  25 1.89  19 2.10   7 2.34
  62  0.817  0.244  0.403-  31 1.90  20 1.97  28 2.01   5 2.35
  63  0.997  0.062  0.409-  27 1.85  40 1.99  20 2.09  15 2.31
  64  0.166  0.421  0.407-  39 1.90  32 1.92  20 2.04   9 2.35
  65  0.826  0.735  0.089-  33 1.91  34 2.03  23 2.04  10 2.25
  66  0.021  0.594  0.086-  37 1.88  34 1.90  17 2.12   1 2.27
  67  0.150  0.912  0.091-  34 1.89  25 1.96   1 2.15  21 2.19
  68  0.829  0.568  0.606-  28 1.91  35 2.05  22 2.16  13 2.37
  69  0.989  0.923  0.616-  40 1.98  27 2.12  22 2.17  12 2.25  14 2.38
  70  0.170  0.751  0.584-  36 1.88  22 1.94  39 1.94   3 2.36
  71  0.851  0.600  0.906-  34 1.82  33 1.95  17 2.09  14 2.29
  72  0.007  0.912  0.905-  34 1.94  25 1.96  23 2.09
  73  0.172  0.742  0.906-  37 1.90  34 1.98  21 2.02   2 2.24   3 2.37
  74  0.818  0.747  0.426-  35 1.84  40 1.91  22 2.00  10 2.27
  75  0.991  0.573  0.403-  39 1.95  28 1.96  22 2.09
  76  0.167  0.931  0.412-  36 1.93  27 1.93  22 1.97
  77  0.332  0.730  0.095-  37 1.86  38 1.98  21 2.08
  78  0.518  0.585  0.084-  33 1.88  19 2.03  38 2.09
  79  0.662  0.920  0.094-  38 1.91  29 1.94  23 2.00  15 2.35  16 2.38
  80  0.315  0.565  0.592-  32 1.87  39 1.97  24 2.09   8 2.35
  81  0.499  0.935  0.589-  31 1.88  36 1.93  24 2.09
  82  0.675  0.749  0.602-  40 1.87  35 1.99  24 2.14   8 2.26  14 2.33
  83  0.339  0.595  0.903-  37 1.91  38 1.99  19 2.05   8 2.26
  84  0.531  0.929  0.902-  38 1.87  29 1.96  21 2.11   4 2.13
  85  0.664  0.743  0.893-  33 1.98  38 2.02  23 2.13  14 2.17   8 2.20
  86  0.322  0.756  0.398-  39 1.92  36 1.99  24 2.10  16 2.38
  87  0.497  0.575  0.415-  32 1.92  35 1.94  24 2.01  11 2.37
  88  0.669  0.925  0.409-  31 1.86  40 1.99  24 2.03
 
  LATTYP: Found a hexagonal cell.
 ALAT       =    10.0190000534
 C/A-ratio  =     1.1196726572
  
  Lattice vectors:
  
 A1 = (  10.0190000534,   0.0000000000,   0.0000000000)
 A2 = (  -5.0095000267,   8.6767085668,   0.0000000000)
 A3 = (   0.0000000000,   0.0000000000,  11.2180004120)


Analysis of symmetry for initial positions (statically):
=====================================================================
 Subroutine PRICEL returns:
 Original cell was already a primitive cell.
 

 Routine SETGRP: Setting up the symmetry group for a 
 hexagonal supercell.


 Subroutine GETGRP returns: Found  1 space group operations
 (whereof  1 operations were pure point group operations)
 out of a pool of 24 trial point group operations.


The static configuration has the point symmetry C_1 .


Analysis of symmetry for dynamics (positions and initial velocities):
=====================================================================
 Subroutine PRICEL returns:
 Original cell was already a primitive cell.
 

 Routine SETGRP: Setting up the symmetry group for a 
 hexagonal supercell.


 Subroutine GETGRP returns: Found  1 space group operations
 (whereof  1 operations were pure point group operations)
 out of a pool of 24 trial point group operations.


The dynamic configuration has the point symmetry C_1 .


Analysis of structural, dynamic, and magnetic symmetry:
=====================================================================
 Subroutine PRICEL returns:
 Original cell was already a primitive cell.
 

 Routine SETGRP: Setting up the symmetry group for a 
 hexagonal supercell.


 Subroutine GETGRP returns: Found  1 space group operations
 (whereof  1 operations were pure point group operations)
 out of a pool of 24 trial point group operations.


The magnetic configuration has the point symmetry C_1 .


 Subroutine INISYM returns: Found  1 space group operations
 (whereof  1 operations are pure point group operations),
 and found     1 'primitive' translations

 
 

Automatic generation of k-mesh.
 generate k-points for:    2    2    2
Space group operators:
 irot       det(A)        alpha          n_x          n_y          n_z        tau_x        tau_y        tau_z
    1     1.000000     0.000000     1.000000     0.000000     0.000000     0.000000     0.000000     0.000000
 
 Subroutine IBZKPT returns following result:
 ===========================================
 
 Found      8 irreducible k-points:
 
 Following reciprocal coordinates:
            Coordinates               Weight
  0.000000  0.000000  0.000000      1.000000
  0.500000 -0.000000 -0.000000      1.000000
  0.000000  0.500000  0.000000      1.000000
  0.500000  0.500000 -0.000000      1.000000
  0.000000  0.000000  0.500000      1.000000
  0.500000 -0.000000  0.500000      1.000000
  0.000000  0.500000  0.500000      1.000000
  0.500000  0.500000  0.500000      1.000000
 
 Following cartesian coordinates:
            Coordinates               Weight
  0.000000  0.000000  0.000000      1.000000
  0.049905  0.028813 -0.000000      1.000000
  0.000000  0.057626  0.000000      1.000000
  0.049905  0.086438 -0.000000      1.000000
  0.000000  0.000000  0.044571      1.000000
  0.049905  0.028813  0.044571      1.000000
  0.000000  0.057626  0.044571      1.000000
  0.049905  0.086438  0.044571      1.000000
 


--------------------------------------------------------------------------------------------------------




 Dimension of arrays:
   k-points           NKPTS =      8   k-points in BZ     NKDIM =      8   number of bands    NBANDS=    480
   number of dos      NEDOS =    301   number of ions     NIONS =     88
   non local maximal  LDIM  =      6   non local SUM 2l+1 LMDIM =     18
   total plane-waves  NPLWV = 140000
   max r-space proj   IRMAX =   1632   max aug-charges    IRDMAX=   4555
   dimension x,y,z NGX =    50 NGY =   50 NGZ =   56
   dimension x,y,z NGXF=   100 NGYF=  100 NGZF=  112
   support grid    NGXF=   100 NGYF=  100 NGZF=  112
   ions per type =              16   8  16  48
   NGX,Y,Z   is equivalent  to a cutoff of   8.30,  8.30,  8.30 a.u.
   NGXF,Y,Z  is equivalent  to a cutoff of  16.59, 16.59, 16.60 a.u.

 SYSTEM =  unknown system                          
 POSCAR =  Na Mg Mn  O                             

 Startparameter for this run:
   NWRITE =      2    write-flag & timer
   PREC   = normal    normal or accurate (medium, high low for compatibility)
   ISTART =      0    job   : 0-new  1-cont  2-samecut
   ICHARG =      1    charge: 1-file 2-atom 10-const
   ISPIN  =      2    spin polarized calculation?
   LNONCOLLINEAR =      F non collinear calculations
   LSORBIT =      F    spin-orbit coupling
   INIWAV =      1    electr: 0-lowe 1-rand  2-diag
   LASPH  =      T    aspherical Exc in radial PAW
   METAGGA=      F    non-selfconsistent MetaGGA calc.

 Electronic Relaxation 1
   ENCUT  =  400.0 eV  29.40 Ry    5.42 a.u.  16.34 16.34 18.29*2*pi/ulx,y,z
   ENINI  =  400.0     initial cutoff
   ENAUG  =  758.8 eV  augmentation charge cutoff
   NELM   =    200;   NELMIN=  6; NELMDL=-12     # of ELM steps 
   EDIFF  = 0.1E-04   stopping-criterion for ELM
   LREAL  =      T    real-space projection
   NLSPLINE    = F    spline interpolate recip. space projectors
   LCOMPAT=      F    compatible to vasp.4.4
   GGA_COMPAT  = T    GGA compatible to vasp.4.4-vasp.4.6
   LMAXPAW     = -100 max onsite density
   LMAXMIX     =    4 max onsite mixed and CHGCAR
   VOSKOWN=      0    Vosko Wilk Nusair interpolation
   ROPT   =   -0.00050  -0.00050  -0.00050  -0.00050
 Ionic relaxation
   EDIFFG = 0.1E-03   stopping-criterion for IOM
   NSW    =      1    number of steps for IOM
   NBLOCK =      1;   KBLOCK =      1    inner block; outer block 
   IBRION =     -1    ionic relax: 0-MD 1-quasi-New 2-CG
   NFREE  =      0    steps in history (QN), initial steepest desc. (CG)
   ISIF   =      2    stress and relaxation
   IWAVPR =     10    prediction:  0-non 1-charg 2-wave 3-comb
   ISYM   =      2    0-nonsym 1-usesym 2-fastsym
   LCORR  =      T    Harris-Foulkes like correction to forces

   POTIM  = 0.5000    time-step for ionic-motion
   TEIN   =    0.0    initial temperature
   TEBEG  =    0.0;   TEEND  =   0.0 temperature during run
   SMASS  =  -3.00    Nose mass-parameter (am)
   estimated Nose-frequenzy (Omega)   =  0.10E-29 period in steps =****** mass=  -0.229E-26a.u.
   SCALEE = 1.0000    scale energy and forces
   NPACO  =    256;   APACO  = 16.0  distance and # of slots for P.C.
   PSTRESS=    0.0 pullay stress

  Mass of Ions in am
   POMASS =  22.99 24.30 54.94 16.00
  Ionic Valenz
   ZVAL   =   7.00  8.00 13.00  6.00
  Atomic Wigner-Seitz radii
   RWIGS  =  -1.00 -1.00 -1.00 -1.00
  virtual crystal weights 
   VCA    =   1.00  1.00  1.00  1.00
   NELECT =     672.0000    total number of electrons
   NUPDOWN=      48.0000    fix difference up-down

 DOS related values:
   EMIN   =  10.00;   EMAX   =-10.00  energy-range for DOS
   EFERMI =   0.00
   ISMEAR =     0;   SIGMA  =   0.05  broadening in eV -4-tet -1-fermi 0-gaus

 Electronic relaxation 2 (details)
   IALGO  =     48    algorithm
   LDIAG  =      T    sub-space diagonalisation (order eigenvalues)
   LSUBROT=      F    optimize rotation matrix (better conditioning)
   TURBO    =      0    0=normal 1=particle mesh
   IRESTART =      0    0=no restart 2=restart with 2 vectors
   NREBOOT  =      0    no. of reboots
   NMIN     =      0    reboot dimension
   EREF     =   0.00    reference energy to select bands
   IMIX   =      4    mixing-type and parameters
     AMIX     =   0.40;   BMIX     =  1.00
     AMIX_MAG =   1.60;   BMIX_MAG =  1.00
     AMIN     =   0.10
     WC   =   100.;   INIMIX=   1;  MIXPRE=   1;  MAXMIX= -45

 Intra band minimization:
   WEIMIN = 0.0000     energy-eigenvalue tresh-hold
   EBREAK =  0.52E-08  absolut break condition
   DEPER  =   0.30     relativ break condition  

   TIME   =   0.40     timestep for ELM

  volume/ion in A,a.u.               =      11.08        74.78
  Fermi-wavevector in a.u.,A,eV,Ry     =   1.445993  2.732531 28.448379  2.090897
  Thomas-Fermi vector in A             =   2.564112
 
 Write flags
   LWAVE        =      F    write WAVECAR
   LDOWNSAMPLE  =      F    k-point downsampling of WAVECAR
   LCHARG       =      F    write CHGCAR
   LVTOT        =      F    write LOCPOT, total local potential
   LVHAR        =      F    write LOCPOT, Hartree potential only
   LELF         =      F    write electronic localiz. function (ELF)
   LORBIT       =     11    0 simple, 1 ext, 2 COOP (PROOUT), +10 PAW based schemes


 Dipole corrections
   LMONO  =      F    monopole corrections only (constant potential shift)
   LDIPOL =      F    correct potential (dipole corrections)
   IDIPOL =      0    1-x, 2-y, 3-z, 4-all directions 
   EPSILON=  1.0000000 bulk dielectric constant

 Exchange correlation treatment:
   GGA     =    --    GGA type
   LEXCH   =     8    internal setting for exchange type
   VOSKOWN=      0    Vosko Wilk Nusair interpolation
   LHFCALC =     F    Hartree Fock is set to
   LHFONE  =     F    Hartree Fock one center treatment
   AEXX    =    0.0000 exact exchange contribution

 Linear response parameters
   LEPSILON=     F    determine dielectric tensor
   LRPA    =     F    only Hartree local field effects (RPA)
   LNABLA  =     F    use nabla operator in PAW spheres
   LVEL    =     F    velocity operator in full k-point grid
   LINTERFAST=   F  fast interpolation
   KINTER  =     0    interpolate to denser k-point grid
   CSHIFT  =0.1000    complex shift for real part using Kramers Kronig
   OMEGAMAX=  -1.0    maximum frequency
   DEG_THRESHOLD= 0.2000000E-02 threshold for treating states as degnerate
   RTIME   =   -0.100 relaxation time in fs
  (WPLASMAI=    0.000 imaginary part of plasma frequency in eV, 0.658/RTIME)
   DFIELD  = 0.0000000 0.0000000 0.0000000 field for delta impulse in time
 
 Orbital magnetization related:
   ORBITALMAG=     F  switch on orbital magnetization
   LCHIMAG   =     F  perturbation theory with respect to B field
   DQ        =  0.001000  dq finite difference perturbation B field
   LLRAUG    =     F  two centre corrections for induced B field



--------------------------------------------------------------------------------------------------------


 Static calculation
 charge density and potential will be updated during run
 spin polarized calculation
 RMM-DIIS sequential band-by-band
 perform sub-space diagonalisation
    before iterative eigenvector-optimisation
 modified Broyden-mixing scheme, WC =      100.0
 initial mixing is a Kerker type mixing with AMIX =  0.4000 and BMIX =      1.0000
 Hartree-type preconditioning will be used
 using additional bands          144
 real space projection scheme for non local part
 use partial core corrections
 calculate Harris-corrections to forces 
   (improved forces if not selfconsistent)
 use gradient corrections 
 use of overlap-Matrix (Vanderbilt PP)
 Gauss-broadening in eV      SIGMA  =   0.05


--------------------------------------------------------------------------------------------------------


  energy-cutoff  :      400.00
  volume of cell :      975.20
      direct lattice vectors                 reciprocal lattice vectors
    10.019000053  0.000000000  0.000000000     0.099810360  0.057625538 -0.000000000
    -5.009500027  8.676708567  0.000000000     0.000000000  0.115251076  0.000000000
     0.000000000  0.000000000 11.218000412     0.000000000  0.000000000  0.089142446

  length of vectors
    10.019000053 10.019000053 11.218000412     0.115251076  0.115251076  0.089142446


 
 k-points in units of 2pi/SCALE and weight: read from INCAR                         
   0.00000000  0.00000000  0.00000000       0.125
   0.04990518  0.02881277 -0.00000000       0.125
   0.00000000  0.05762554  0.00000000       0.125
   0.04990518  0.08643831 -0.00000000       0.125
   0.00000000  0.00000000  0.04457122       0.125
   0.04990518  0.02881277  0.04457122       0.125
   0.00000000  0.05762554  0.04457122       0.125
   0.04990518  0.08643831  0.04457122       0.125
 
 k-points in reciprocal lattice and weights: read from INCAR                         
   0.00000000  0.00000000  0.00000000       0.125
   0.50000000 -0.00000000 -0.00000000       0.125
   0.00000000  0.50000000  0.00000000       0.125
   0.50000000  0.50000000 -0.00000000       0.125
   0.00000000  0.00000000  0.50000000       0.125
   0.50000000 -0.00000000  0.50000000       0.125
   0.00000000  0.50000000  0.50000000       0.125
   0.50000000  0.50000000  0.50000000       0.125
 
 position of ions in fractional coordinates (direct lattice) 
   0.12529864  0.76450089  0.23873684
   0.12858551  0.57754224  0.75526829
   0.19596578  0.91000718  0.74835529
   0.66001764  0.06801213  0.75519252
   0.64862525  0.25395278  0.26256194
   0.18516128  0.10987741  0.24306827
   0.31822896  0.25184468  0.75842483
   0.49666881  0.63863157  0.74689425
   0.00483371  0.39962652  0.24743715
   0.70316731  0.61314165  0.25749420
   0.34846467  0.55939069  0.24596273
   0.97814345  0.08833600  0.74587357
   0.69724799  0.38507393  0.75916649
   0.82202053  0.74377150  0.76075233
   0.84737279  0.03556401  0.24504011
   0.49826474  0.91698860  0.24919236
   0.83234668  0.41004719  0.99700091
   0.50013846  0.24953933  0.50226420
   0.33655886  0.41614398  0.99295771
   0.98488797  0.24246982  0.49299784
   0.34402584  0.91394449  0.99939202
   0.00250797  0.75553995  0.50084416
   0.83302610  0.91801746  0.00395406
   0.49420642  0.74924725  0.50041806
   0.16870677  0.08406891  0.99558469
   0.49238826  0.23873799  0.99983395
   0.16151878  0.09135377  0.50357103
   0.83205441  0.41478056  0.50612585
   0.67552688  0.09367278  0.00754887
   0.00442964  0.24960387  0.00234441
   0.65958291  0.08033161  0.49344534
   0.32417807  0.41466415  0.49906220
   0.67199879  0.58162608  0.98932207
   0.00545869  0.74664949  0.99655375
   0.66459750  0.57861111  0.50414154
   0.32643754  0.92050458  0.50049829
   0.17602026  0.58526341  0.99848349
   0.50880363  0.76352801  0.99529994
   0.16827995  0.58801214  0.48926545
   0.82496750  0.91442048  0.51306292
   0.33607534  0.23316676  0.09005081
   0.51218848  0.08832347  0.09648689
   0.66140460  0.41310365  0.08481752
   0.31234826  0.08119916  0.59693704
   0.49683118  0.42762183  0.59140397
   0.67679105  0.25533876  0.58399089
   0.32887433  0.08856411  0.90420749
   0.51987824  0.41374791  0.89720981
   0.65687524  0.22652023  0.90711353
   0.32098983  0.25220624  0.41438044
   0.49234077  0.07053382  0.40416561
   0.68435045  0.43971397  0.41840255
   0.83698089  0.24189472  0.10153770
   0.01657367  0.09761086  0.08752986
   0.17465809  0.42933216  0.09066233
   0.81113220  0.07804243  0.59342661
   0.99941624  0.42934253  0.58002583
   0.16616168  0.25041639  0.60166872
   0.84405661  0.09966129  0.91826525
   0.01386631  0.41848818  0.91047420
   0.14699150  0.23353787  0.90760382
   0.81704236  0.24356471  0.40272596
   0.99692830  0.06193725  0.40946246
   0.16599878  0.42060880  0.40704224
   0.82612278  0.73545745  0.08934658
   0.02144053  0.59427143  0.08639668
   0.14957530  0.91166483  0.09128008
   0.82914536  0.56783859  0.60620786
   0.98923928  0.92296404  0.61595826
   0.17021500  0.75141512  0.58401852
   0.85094565  0.60003283  0.90590120
   0.00735736  0.91196794  0.90524154
   0.17228312  0.74161186  0.90553571
   0.81774418  0.74692263  0.42562576
   0.99147377  0.57255928  0.40336333
   0.16706253  0.93074349  0.41200658
   0.33150980  0.72985741  0.09543145
   0.51830835  0.58476322  0.08385086
   0.66160472  0.92019917  0.09440987
   0.31528959  0.56453665  0.59203153
   0.49884329  0.93530052  0.58923781
   0.67513213  0.74917233  0.60174004
   0.33859815  0.59525798  0.90330715
   0.53065537  0.92850647  0.90206807
   0.66369742  0.74302715  0.89309143
   0.32212615  0.75598021  0.39764662
   0.49723627  0.57451048  0.41486805
   0.66871512  0.92451878  0.40948742
 
 position of ions in cartesian coordinates  (Angst):
  -2.57440011  6.63335140  2.67815000
  -1.60489968  5.01116573  8.47260000
  -2.59529984  7.89586713  8.39505000
   6.27201003  0.59012143  8.47175000
   5.22639997  2.20347430  2.94542000
   1.30469997  0.95337430  2.72674000
   1.92672000  2.18518287  8.50801000
   1.77689995  5.54122000  8.37866000
  -1.95350013  3.46744283  2.77575000
   3.97350016  5.32005140  2.88857000
   0.68899989  4.85367000  2.75921000
   9.35750011  0.76646573  8.36721000
   5.05669981  3.34117430  8.51633000
   4.50990040  6.45348857  8.53412000
   8.31167008  0.30857857  2.74886000
   0.39846003  7.95644283  2.79544000
   6.28515000  3.55786000 11.18435661
   3.76082000  2.16518000  5.63440000
   1.28731000  3.61076000 11.13900000
   8.65294000  2.10384000  5.53045000
  -1.13161000  7.93003000 11.21118010
  -3.75975005  6.55560000  5.61847000
   3.74728000  7.96537000  0.04435660
   1.19810000  6.50100000  5.61369000
   1.26912997  0.72944143 11.16846941
   3.73728000  2.07146000 11.21613763
   1.16062000  0.79265000  5.64906000
   6.25851000  3.59893000  5.67772000
   6.29885003  0.81277143  0.08468320
  -1.20601005  2.16574000  0.02629959
   6.20594000  0.69701400  5.53547000
   1.17068000  3.59792000  5.59848000
   3.81910000  5.04660000 11.09821541
  -3.68565005  6.47846000 11.17934041
   3.76005000  5.02044000  5.65546000
  -1.34069000  7.98695000  5.61459000
  -1.16833000  5.07816000 11.20098821
   1.27281000  6.62491000 11.16527511
  -1.25965000  5.10201000  5.48858000
   3.68456000  7.93416000  5.75554000
   2.19909000  2.02312000  1.01019000
   4.68916000  0.76635700  1.08239000
   4.55717000  3.58438000  0.95148300
   2.72265003  0.70454143  6.69644000
   2.83558000  3.71035000  6.63437000
   5.50165000  2.21550000  6.55121000
   2.85133000  0.76844500 10.14340000
   3.13599000  3.58997000 10.06490000
   5.44648000  1.96545000 10.17600000
   1.95257000  2.18832000  4.64852000
   4.57942303  0.61200143  4.53393000
   4.65376000  3.81527000  4.69364000
   7.17394000  2.09885000  1.13905000
  -0.32293005  0.84694100  0.98191000
  -0.40084005  3.72519000  1.01705000
   7.73578003  0.67715143  6.65706000
   7.86236000  3.72528000  6.50673000
   0.41031300  2.17279000  6.74952000
   7.95735000  0.86473200 10.30110000
  -1.95749005  3.63110000 10.21370000
   0.30279995  2.02634000 10.18150000
   6.96581000  2.11334000  4.51778000
   9.67795003  0.53741143  4.59335000
  -0.44389800  3.64950000  4.56620000
   4.59265000  6.38135000  1.00229000
  -2.76219005  5.15632000  0.96919800
  -3.06839005  7.91025000  1.02398000
   5.46262000  4.92697000  6.80044000
   5.28760000  8.00829000  6.90982000
  -2.05883000  6.51981000  6.55152000
   5.51976000  5.20631000 10.16240000
  -4.49479005  7.91288000 10.15500000
  -1.98900005  6.43475000 10.15830000
   4.45127000  6.48083000  4.77467000
   7.06534000  4.96793000  4.52493000
  -2.98876000  8.07579000  4.62189000
  -0.33482400  6.33276000  1.07055000
   2.26356000  5.07382000  0.94063900
   2.01888000  7.98430000  1.05909000
   0.33084000  4.89832000  6.64141000
   0.31252300  8.11533000  6.61007000
   3.01117000  6.50035000  6.75032000
   0.41047000  5.16488000 10.13330000
   0.66528300  8.05638000 10.11940000
   2.92739000  6.44703000 10.01870000
  -0.55970100  6.55942000  4.46080000
   2.10380000  4.98486000  4.65399000
   2.06848000  8.02178000  4.59363000
 


--------------------------------------------------------------------------------------------------------


 k-point  1 :   0.0000 0.0000 0.0000  plane waves:   17725
 k-point  2 :   0.5000-0.0000-0.0000  plane waves:   17736
 k-point  3 :   0.0000 0.5000 0.0000  plane waves:   17736
 k-point  4 :   0.5000 0.5000-0.0000  plane waves:   17736
 k-point  5 :   0.0000 0.0000 0.5000  plane waves:   17676
 k-point  6 :   0.5000-0.0000 0.5000  plane waves:   17700
 k-point  7 :   0.0000 0.5000 0.5000  plane waves:   17700
 k-point  8 :   0.5000 0.5000 0.5000  plane waves:   17700

 maximum and minimum number of plane-waves per node :     17736    17676

 maximum number of plane-waves:     17736
 maximum index in each direction: 
   IXMAX=   16   IYMAX=   16   IZMAX=   18
   IXMIN=  -16   IYMIN=  -16   IZMIN=  -18


 serial   3D FFT for wavefunctions
 parallel 3D FFT for charge:
    minimum data exchange during FFTs selected (reduces bandwidth)


 total amount of memory used by VASP MPI-rank0    94434. kBytes
=======================================================================

   base      :      30000. kBytes
   nonlr-proj:      13675. kBytes
   fftplans  :       1275. kBytes
   grid      :      22786. kBytes
   one-center:       2737. kBytes
   wavefun   :      23961. kBytes
 
     INWAV:  cpu time    0.0000: real time    0.0001
 Broyden mixing: mesh for mixing (old mesh)
   NGX = 33   NGY = 33   NGZ = 37
  (NGX  =100   NGY  =100   NGZ  =112)
  gives a total of  40293 points

 initial charge density was supplied:
 charge density of overlapping atoms calculated
 number of electron     672.0000000 magnetization      48.0000000
 keeping initial charge density in first step


--------------------------------------------------------------------------------------------------------


 Maximum index for non-local projection operator         1552
 Maximum index for augmentation-charges          528 (set IRDMAX)


--------------------------------------------------------------------------------------------------------


 First call to EWALD:  gamma=   0.179
 Maximum number of real-space cells 3x 3x 2
 Maximum number of reciprocal cells 3x 3x 3

    FEWALD:  cpu time    0.0026: real time    0.0026


--------------------------------------- Iteration      1(   1)  ---------------------------------------


    POTLOK:  cpu time    0.1921: real time    0.1937
    SETDIJ:  cpu time    4.6435: real time    4.6450
    EDDIAG:  cpu time    4.4693: real time    4.8776
  RMM-DIIS:  cpu time    9.0409: real time    9.0621
    ORTHCH:  cpu time    1.1613: real time    1.2428
       DOS:  cpu time    0.0020: real time    0.0021
    --------------------------------------------
      LOOP:  cpu time   19.5091: real time   20.0233

 eigenvalue-minimisations  :  7680
 total energy-change (2. order) : 0.1591163E+04  (-0.3499160E+05)
 number of electron     672.0000000 magnetization      48.0000000
 augmentation part      672.0000000 magnetization      48.0000000

 Free energy of the ion-electron system (eV)
  ---------------------------------------------------
  alpha Z        PSCENC =      2652.81237852
  Ewald energy   TEWEN  =    -41692.61522925
  -Hartree energ DENC   =    -25911.96730420
  -exchange      EXHF   =         0.00000000
  -V(xc)+E(xc)   XCENC  =      3606.56302223
  PAW double counting   =     55594.23204139   -59034.67079123
  entropy T*S    EENTRO =        -0.04993483
  eigenvalues    EBANDS =     -7485.33905518
  atomic energy  EATOM  =     73862.19814772
  Solvation  Ediel_sol  =         0.00000000
  ---------------------------------------------------
  free energy    TOTEN  =      1591.16327517 eV

  energy without entropy =     1591.21321000  energy(sigma->0) =     1591.18824258


--------------------------------------------------------------------------------------------------------




--------------------------------------- Iteration      1(   2)  ---------------------------------------


    EDDIAG:  cpu time    4.3976: real time    4.7805
  RMM-DIIS:  cpu time    9.0683: real time    9.0762
    ORTHCH:  cpu time    1.1563: real time    1.2406
       DOS:  cpu time    0.0018: real time    0.0018
    --------------------------------------------
      LOOP:  cpu time   14.6241: real time   15.0991

 eigenvalue-minimisations  :  7680
 total energy-change (2. order) :-0.2321791E+04  (-0.8047922E+04)
 number of electron     672.0000000 magnetization      48.0000000
 augmentation part      672.0000000 magnetization      48.0000000

 Free energy of the ion-electron system (eV)
  ---------------------------------------------------
  alpha Z        PSCENC =      2652.81237852
  Ewald energy   TEWEN  =    -41692.61522925
  -Hartree energ DENC   =    -25911.96730420
  -exchange      EXHF   =         0.00000000
  -V(xc)+E(xc)   XCENC  =      3606.56302223
  PAW double counting   =     55594.23204139   -59034.67079123
  entropy T*S    EENTRO =        -0.04898442
  eigenvalues    EBANDS =     -9807.13114794
  atomic energy  EATOM  =     73862.19814772
  Solvation  Ediel_sol  =         0.00000000
  ---------------------------------------------------
  free energy    TOTEN  =      -730.62786719 eV

  energy without entropy =     -730.57888277  energy(sigma->0) =     -730.60337498


--------------------------------------------------------------------------------------------------------




--------------------------------------- Iteration      1(   3)  ---------------------------------------


    EDDIAG:  cpu time    4.4862: real time    4.9017
  RMM-DIIS:  cpu time    9.0603: real time    9.0693
    ORTHCH:  cpu time    1.1518: real time    1.2408
       DOS:  cpu time    0.0020: real time    0.0020
    --------------------------------------------
      LOOP:  cpu time   14.7003: real time   15.2138

 eigenvalue-minimisations  :  7680
 total energy-change (2. order) : 0.8508422E+02  (-0.1427398E+04)
 number of electron     672.0000000 magnetization      48.0000000
 augmentation part      672.0000000 magnetization      48.0000000

 Free energy of the ion-electron system (eV)
  ---------------------------------------------------
  alpha Z        PSCENC =      2652.81237852
  Ewald energy   TEWEN  =    -41692.61522925
  -Hartree energ DENC   =    -25911.96730420
  -exchange      EXHF   =         0.00000000
  -V(xc)+E(xc)   XCENC  =      3606.56302223
  PAW double counting   =     55594.23204139   -59034.67079123
  entropy T*S    EENTRO =        -0.04133882
  eigenvalues    EBANDS =     -9722.05457037
  atomic energy  EATOM  =     73862.19814772
  Solvation  Ediel_sol  =         0.00000000
  ---------------------------------------------------
  free energy    TOTEN  =      -645.54364401 eV

  energy without entropy =     -645.50230520  energy(sigma->0) =     -645.52297460


--------------------------------------------------------------------------------------------------------




--------------------------------------- Iteration      1(   4)  ---------------------------------------


    EDDIAG:  cpu time    4.4018: real time    4.8045
  RMM-DIIS:  cpu time    9.0582: real time    9.0677
    ORTHCH:  cpu time    1.1590: real time    1.2431
       DOS:  cpu time    0.0011: real time    0.0011
    --------------------------------------------
      LOOP:  cpu time   14.6202: real time   15.1164

 eigenvalue-minimisations  :  7680
 total energy-change (2. order) :-0.4653792E+03  (-0.4299451E+03)
 number of electron     672.0000000 magnetization      48.0000000
 augmentation part      672.0000000 magnetization      48.0000000

 Free energy of the ion-electron system (eV)
  ---------------------------------------------------
  alpha Z        PSCENC =      2652.81237852
  Ewald energy   TEWEN  =    -41692.61522925
  -Hartree energ DENC   =    -25911.96730420
  -exchange      EXHF   =         0.00000000
  -V(xc)+E(xc)   XCENC  =      3606.56302223
  PAW double counting   =     55594.23204139   -59034.67079123
  entropy T*S    EENTRO =        -0.00000000
  eigenvalues    EBANDS =    -10187.47506585
  atomic energy  EATOM  =     73862.19814772
  Solvation  Ediel_sol  =         0.00000000
  ---------------------------------------------------
  free energy    TOTEN  =     -1110.92280067 eV

  energy without entropy =    -1110.92280067  energy(sigma->0) =    -1110.92280067


--------------------------------------------------------------------------------------------------------




--------------------------------------- Iteration      1(   5)  ---------------------------------------


    EDDIAG:  cpu time    4.4298: real time    4.8348
  RMM-DIIS:  cpu time    9.0568: real time    9.0685
    ORTHCH:  cpu time    1.1588: real time    1.2553
       DOS:  cpu time    0.0011: real time    0.0011
    --------------------------------------------
      LOOP:  cpu time   14.6465: real time   15.1597

 eigenvalue-minimisations  :  7680
 total energy-change (2. order) :-0.1043486E+03  (-0.1598350E+03)
 number of electron     672.0000000 magnetization      48.0000000
 augmentation part      672.0000000 magnetization      48.0000000

 Free energy of the ion-electron system (eV)
  ---------------------------------------------------
  alpha Z        PSCENC =      2652.81237852
  Ewald energy   TEWEN  =    -41692.61522925
  -Hartree energ DENC   =    -25911.96730420
  -exchange      EXHF   =         0.00000000
  -V(xc)+E(xc)   XCENC  =      3606.56302223
  PAW double counting   =     55594.23204139   -59034.67079123
  entropy T*S    EENTRO =        -0.00000000
  eigenvalues    EBANDS =    -10291.82369713
  atomic energy  EATOM  =     73862.19814772
  Solvation  Ediel_sol  =         0.00000000
  ---------------------------------------------------
  free energy    TOTEN  =     -1215.27143196 eV

  energy without entropy =    -1215.27143196  energy(sigma->0) =    -1215.27143196


--------------------------------------------------------------------------------------------------------




--------------------------------------- Iteration      1(   6)  ---------------------------------------


    EDDIAG:  cpu time    4.4486: real time    4.8403
  RMM-DIIS:  cpu time    9.0639: real time    9.0717
    ORTHCH:  cpu time    1.1547: real time    1.2421
       DOS:  cpu time    0.0011: real time    0.0011
    --------------------------------------------
      LOOP:  cpu time   14.6683: real time   15.1552

 eigenvalue-minimisations  :  7680
 total energy-change (2. order) :-0.8911339E+01  (-0.7927944E+02)
 number of electron     672.0000000 magnetization      48.0000000
 augmentation part      672.0000000 magnetization      48.0000000

 Free energy of the ion-electron system (eV)
  ---------------------------------------------------
  alpha Z        PSCENC =      2652.81237852
  Ewald energy   TEWEN  =    -41692.61522925
  -Hartree energ DENC   =    -25911.96730420
  -exchange      EXHF   =         0.00000000
  -V(xc)+E(xc)   XCENC  =      3606.56302223
  PAW double counting   =     55594.23204139   -59034.67079123
  entropy T*S    EENTRO =        -0.00000000
  eigenvalues    EBANDS =    -10300.73503594
  atomic energy  EATOM  =     73862.19814772
  Solvation  Ediel_sol  =         0.00000000
  ---------------------------------------------------
  free energy    TOTEN  =     -1224.18277077 eV

  energy without entropy =    -1224.18277077  energy(sigma->0) =    -1224.18277077


--------------------------------------------------------------------------------------------------------




--------------------------------------- Iteration      1(   7)  ---------------------------------------


    EDDIAG:  cpu time    4.4239: real time    4.8271
  RMM-DIIS:  cpu time    9.0551: real time    9.0621
    ORTHCH:  cpu time    1.1606: real time    1.2437
       DOS:  cpu time    0.0012: real time    0.0012
    --------------------------------------------
      LOOP:  cpu time   14.6407: real time   15.1341

 eigenvalue-minimisations  :  7680
 total energy-change (2. order) :-0.1873117E+01  (-0.4851202E+02)
 number of electron     672.0000000 magnetization      48.0000000
 augmentation part      672.0000000 magnetization      48.0000000

 Free energy of the ion-electron system (eV)
  ---------------------------------------------------
  alpha Z        PSCENC =      2652.81237852
  Ewald energy   TEWEN  =    -41692.61522925
  -Hartree energ DENC   =    -25911.96730420
  -exchange      EXHF   =         0.00000000
  -V(xc)+E(xc)   XCENC  =      3606.56302223
  PAW double counting   =     55594.23204139   -59034.67079123
  entropy T*S    EENTRO =        -0.00000000
  eigenvalues    EBANDS =    -10302.60815251
  atomic energy  EATOM  =     73862.19814772
  Solvation  Ediel_sol  =         0.00000000
  ---------------------------------------------------
  free energy    TOTEN  =     -1226.05588733 eV

  energy without entropy =    -1226.05588733  energy(sigma->0) =    -1226.05588733


--------------------------------------------------------------------------------------------------------




--------------------------------------- Iteration      1(   8)  ---------------------------------------


    EDDIAG:  cpu time    4.4263: real time    4.8088
  RMM-DIIS:  cpu time    9.0559: real time    9.0613
    ORTHCH:  cpu time    1.1709: real time    1.2567
       DOS:  cpu time    0.0016: real time    0.0016
    --------------------------------------------
      LOOP:  cpu time   14.6546: real time   15.1283

 eigenvalue-minimisations  :  7680
 total energy-change (2. order) : 0.5046237E+01  (-0.3019425E+02)
 number of electron     672.0000000 magnetization      48.0000000
 augmentation part      672.0000000 magnetization      48.0000000

 Free energy of the ion-electron system (eV)
  ---------------------------------------------------
  alpha Z        PSCENC =      2652.81237852
  Ewald energy   TEWEN  =    -41692.61522925
  -Hartree energ DENC   =    -25911.96730420
  -exchange      EXHF   =         0.00000000
  -V(xc)+E(xc)   XCENC  =      3606.56302223
  PAW double counting   =     55594.23204139   -59034.67079123
  entropy T*S    EENTRO =        -0.00000000
  eigenvalues    EBANDS =    -10297.56191534
  atomic energy  EATOM  =     73862.19814772
  Solvation  Ediel_sol  =         0.00000000
  ---------------------------------------------------
  free energy    TOTEN  =     -1221.00965016 eV

  energy without entropy =    -1221.00965016  energy(sigma->0) =    -1221.00965016


--------------------------------------------------------------------------------------------------------




--------------------------------------- Iteration      1(   9)  ---------------------------------------


    EDDIAG:  cpu time    4.3944: real time    4.8367
  RMM-DIIS:  cpu time   18.9300: real time   18.9397
    ORTHCH:  cpu time    1.1477: real time    1.2362
       DOS:  cpu time    0.0015: real time    0.0015
    --------------------------------------------
      LOOP:  cpu time   24.4735: real time   25.0141

 eigenvalue-minimisations  : 21774
 total energy-change (2. order) : 0.9385686E+01  (-0.1333750E+02)
 number of electron     672.0000000 magnetization      48.0000000
 augmentation part      672.0000000 magnetization      48.0000000

 Free energy of the ion-electron system (eV)
  ---------------------------------------------------
  alpha Z        PSCENC =      2652.81237852
  Ewald energy   TEWEN  =    -41692.61522925
  -Hartree energ DENC   =    -25911.96730420
  -exchange      EXHF   =         0.00000000
  -V(xc)+E(xc)   XCENC  =      3606.56302223
  PAW double counting   =     55594.23204139   -59034.67079123
  entropy T*S    EENTRO =        -0.00000000
  eigenvalues    EBANDS =    -10288.17622966
  atomic energy  EATOM  =     73862.19814772
  Solvation  Ediel_sol  =         0.00000000
  ---------------------------------------------------
  free energy    TOTEN  =     -1211.62396448 eV

  energy without entropy =    -1211.62396448  energy(sigma->0) =    -1211.62396448


--------------------------------------------------------------------------------------------------------




--------------------------------------- Iteration      1(  10)  ---------------------------------------


    EDDIAG:  cpu time    4.3506: real time    4.7694
  RMM-DIIS:  cpu time   17.4898: real time   17.5342
    ORTHCH:  cpu time    1.1846: real time    1.2697
       DOS:  cpu time    0.0013: real time    0.0013
    --------------------------------------------
      LOOP:  cpu time   23.0264: real time   23.5746

 eigenvalue-minimisations  : 19597
 total energy-change (2. order) :-0.1914150E+01  (-0.5360290E+00)
 number of electron     672.0000000 magnetization      48.0000000
 augmentation part      672.0000000 magnetization      48.0000000

 Free energy of the ion-electron system (eV)
  ---------------------------------------------------
  alpha Z        PSCENC =      2652.81237852
  Ewald energy   TEWEN  =    -41692.61522925
  -Hartree energ DENC   =    -25911.96730420
  -exchange      EXHF   =         0.00000000
  -V(xc)+E(xc)   XCENC  =      3606.56302223
  PAW double counting   =     55594.23204139   -59034.67079123
  entropy T*S    EENTRO =        -0.00000008
  eigenvalues    EBANDS =    -10290.09037930
  atomic energy  EATOM  =     73862.19814772
  Solvation  Ediel_sol  =         0.00000000
  ---------------------------------------------------
  free energy    TOTEN  =     -1213.53811420 eV

  energy without entropy =    -1213.53811413  energy(sigma->0) =    -1213.53811417


--------------------------------------------------------------------------------------------------------




--------------------------------------- Iteration      1(  11)  ---------------------------------------


    EDDIAG:  cpu time    4.3676: real time    4.7810
  RMM-DIIS:  cpu time   19.4837: real time   19.5454
    ORTHCH:  cpu time    1.1552: real time    1.2396
       DOS:  cpu time    0.0014: real time    0.0014
    --------------------------------------------
      LOOP:  cpu time   25.0079: real time   25.5674

 eigenvalue-minimisations  : 22526
 total energy-change (2. order) : 0.7244337E-01  (-0.4378716E-01)
 number of electron     672.0000000 magnetization      48.0000000
 augmentation part      672.0000000 magnetization      48.0000000

 Free energy of the ion-electron system (eV)
  ---------------------------------------------------
  alpha Z        PSCENC =      2652.81237852
  Ewald energy   TEWEN  =    -41692.61522925
  -Hartree energ DENC   =    -25911.96730420
  -exchange      EXHF   =         0.00000000
  -V(xc)+E(xc)   XCENC  =      3606.56302223
  PAW double counting   =     55594.23204139   -59034.67079123
  entropy T*S    EENTRO =        -0.00000006
  eigenvalues    EBANDS =    -10290.01793595
  atomic energy  EATOM  =     73862.19814772
  Solvation  Ediel_sol  =         0.00000000
  ---------------------------------------------------
  free energy    TOTEN  =     -1213.46567083 eV

  energy without entropy =    -1213.46567077  energy(sigma->0) =    -1213.46567080


--------------------------------------------------------------------------------------------------------




--------------------------------------- Iteration      1(  12)  ---------------------------------------


    EDDIAG:  cpu time    4.4611: real time    4.8488
  RMM-DIIS:  cpu time   21.3519: real time   21.4113
    ORTHCH:  cpu time    1.1564: real time    1.2426
       DOS:  cpu time    0.0014: real time    0.0014
    CHARGE:  cpu time    1.7701: real time    1.7737
    MIXING:  cpu time    0.0010: real time    0.0011
    --------------------------------------------
      LOOP:  cpu time   28.7418: real time   29.2788

 eigenvalue-minimisations  : 24526
 total energy-change (2. order) :-0.1034188E-02  (-0.4454134E-02)
 number of electron     672.0000026 magnetization      48.0000009
 augmentation part      239.1170649 magnetization      29.0340925

 Broyden mixing:
  rms(total) = 0.12692E+02    rms(broyden)= 0.12683E+02
  rms(prec ) = 0.14522E+02
  weight for this iteration     100.00

 Free energy of the ion-electron system (eV)
  ---------------------------------------------------
  alpha Z        PSCENC =      2652.81237852
  Ewald energy   TEWEN  =    -41692.61522925
  -Hartree energ DENC   =    -25911.96730420
  -exchange      EXHF   =         0.00000000
  -V(xc)+E(xc)   XCENC  =      3606.56302223
  PAW double counting   =     55594.23204139   -59034.67079123
  entropy T*S    EENTRO =        -0.00000006
  eigenvalues    EBANDS =    -10290.01897013
  atomic energy  EATOM  =     73862.19814772
  Solvation  Ediel_sol  =         0.00000000
  ---------------------------------------------------
  free energy    TOTEN  =     -1213.46670502 eV

  energy without entropy =    -1213.46670496  energy(sigma->0) =    -1213.46670499


--------------------------------------------------------------------------------------------------------




--------------------------------------- Iteration      1(  13)  ---------------------------------------


    POTLOK:  cpu time    0.1718: real time    0.1725
    SETDIJ:  cpu time    5.0082: real time    5.0121
    EDDIAG:  cpu time    4.3747: real time    4.7770
  RMM-DIIS:  cpu time   17.2573: real time   17.3801
    ORTHCH:  cpu time    1.1507: real time    1.2393
       DOS:  cpu time    0.0023: real time    0.0023
    CHARGE:  cpu time    1.7834: real time    1.7840
    MIXING:  cpu time    0.0009: real time    0.0009
    --------------------------------------------
      LOOP:  cpu time   29.7492: real time   30.3683

 eigenvalue-minimisations  : 18769
 total energy-change (2. order) : 0.2277017E+03  (-0.1218641E+03)
 number of electron     671.9999984 magnetization      48.0000008
 augmentation part      268.9524292 magnetization      26.4451887

 Broyden mixing:
  rms(total) = 0.14002E+02    rms(broyden)= 0.13999E+02
  rms(prec ) = 0.15759E+02
  weight for this iteration     100.00

 eigenvalues of (default mixing * dielectric matrix)
  average eigenvalue GAMMA=   0.3195
  0.3195

 Free energy of the ion-electron system (eV)
  ---------------------------------------------------
  alpha Z        PSCENC =      2652.81237852
  Ewald energy   TEWEN  =    -41692.61522925
  -Hartree energ DENC   =    -25245.39886385
  -exchange      EXHF   =         0.00000000
  -V(xc)+E(xc)   XCENC  =      3697.02786874
  PAW double counting   =     59978.38527088   -63403.81391647
  entropy T*S    EENTRO =        -0.07112352
  eigenvalues    EBANDS =    -10834.28949946
  atomic energy  EATOM  =     73862.19814772
  Solvation  Ediel_sol  =         0.00000000
  ---------------------------------------------------
  free energy    TOTEN  =      -985.76496669 eV

  energy without entropy =     -985.69384317  energy(sigma->0) =     -985.72940493


--------------------------------------------------------------------------------------------------------




--------------------------------------- Iteration      1(  14)  ---------------------------------------


    POTLOK:  cpu time    0.1786: real time    0.1787
    SETDIJ:  cpu time    4.9448: real time    4.9457
    EDDIAG:  cpu time    4.3978: real time    4.7711
  RMM-DIIS:  cpu time   17.7294: real time   17.8062
    ORTHCH:  cpu time    1.1542: real time    1.2424
       DOS:  cpu time    0.0014: real time    0.0014
    CHARGE:  cpu time    1.7928: real time    1.7962
    MIXING:  cpu time    0.0010: real time    0.0010
    --------------------------------------------
      LOOP:  cpu time   30.2001: real time   30.7428

 eigenvalue-minimisations  : 19353
 total energy-change (2. order) : 0.6986108E+02  (-0.1766830E+02)
 number of electron     672.0000019 magnetization      48.0000014
 augmentation part      246.6260494 magnetization      32.1435165

 Broyden mixing:
  rms(total) = 0.53589E+01    rms(broyden)= 0.53545E+01
  rms(prec ) = 0.58024E+01
  weight for this iteration     100.00

 eigenvalues of (default mixing * dielectric matrix)
  average eigenvalue GAMMA=   0.7333
  1.1090  0.3576

 Free energy of the ion-electron system (eV)
  ---------------------------------------------------
  alpha Z        PSCENC =      2652.81237852
  Ewald energy   TEWEN  =    -41692.61522925
  -Hartree energ DENC   =    -25857.38343897
  -exchange      EXHF   =         0.00000000
  -V(xc)+E(xc)   XCENC  =      3674.50838710
  PAW double counting   =     63394.93621078   -66877.66439842
  entropy T*S    EENTRO =        -0.00000000
  eigenvalues    EBANDS =    -10072.69594147
  atomic energy  EATOM  =     73862.19814772
  Solvation  Ediel_sol  =         0.00000000
  ---------------------------------------------------
  free energy    TOTEN  =      -915.90388399 eV

  energy without entropy =     -915.90388399  energy(sigma->0) =     -915.90388399


--------------------------------------------------------------------------------------------------------




--------------------------------------- Iteration      1(  15)  ---------------------------------------


    POTLOK:  cpu time    0.1712: real time    0.1714
    SETDIJ:  cpu time    4.9919: real time    4.9955
    EDDIAG:  cpu time    4.3679: real time    4.7723
  RMM-DIIS:  cpu time   17.8494: real time   17.8759
    ORTHCH:  cpu time    1.1528: real time    1.2390
       DOS:  cpu time    0.0016: real time    0.0016
    CHARGE:  cpu time    1.7907: real time    1.7916
    MIXING:  cpu time    0.0009: real time    0.0009
    --------------------------------------------
      LOOP:  cpu time   30.3263: real time   30.8482

 eigenvalue-minimisations  : 20207
 total energy-change (2. order) : 0.1457086E+02  (-0.2201366E+01)
 number of electron     672.0000005 magnetization      48.0000018
 augmentation part      249.6082451 magnetization      33.7644905

 Broyden mixing:
  rms(total) = 0.23102E+01    rms(broyden)= 0.23098E+01
  rms(prec ) = 0.24078E+01
  weight for this iteration     100.00

 eigenvalues of (default mixing * dielectric matrix)
  average eigenvalue GAMMA=   0.9099
  1.6290  0.3863  0.7145

 Free energy of the ion-electron system (eV)
  ---------------------------------------------------
  alpha Z        PSCENC =      2652.81237852
  Ewald energy   TEWEN  =    -41692.61522925
  -Hartree energ DENC   =    -25784.26034542
  -exchange      EXHF   =         0.00000000
  -V(xc)+E(xc)   XCENC  =      3707.45245339
  PAW double counting   =     67519.75048889   -71043.00010542
  entropy T*S    EENTRO =        -0.00000000
  eigenvalues    EBANDS =    -10123.67081075
  atomic energy  EATOM  =     73862.19814772
  Solvation  Ediel_sol  =         0.00000000
  ---------------------------------------------------
  free energy    TOTEN  =      -901.33302233 eV

  energy without entropy =     -901.33302233  energy(sigma->0) =     -901.33302233


--------------------------------------------------------------------------------------------------------




--------------------------------------- Iteration      1(  16)  ---------------------------------------


    POTLOK:  cpu time    0.1694: real time    0.1700
    SETDIJ:  cpu time    5.0481: real time    5.0492
    EDDIAG:  cpu time    4.3669: real time    4.7790
  RMM-DIIS:  cpu time   17.3761: real time   17.4515
    ORTHCH:  cpu time    1.1527: real time    1.2386
       DOS:  cpu time    0.0012: real time    0.0012
    CHARGE:  cpu time    1.7857: real time    1.7895
    MIXING:  cpu time    0.0010: real time    0.0010
    --------------------------------------------
      LOOP:  cpu time   29.9010: real time   30.4800

 eigenvalue-minimisations  : 19259
 total energy-change (2. order) :-0.1222390E+01  (-0.6769274E+00)
 number of electron     672.0000004 magnetization      48.0000019
 augmentation part      251.0231689 magnetization      33.8638838

 Broyden mixing:
  rms(total) = 0.15560E+01    rms(broyden)= 0.15555E+01
  rms(prec ) = 0.16328E+01
  weight for this iteration     100.00

 eigenvalues of (default mixing * dielectric matrix)
  average eigenvalue GAMMA=   0.9642
  2.0858  0.8845  0.3920  0.4944

 Free energy of the ion-electron system (eV)
  ---------------------------------------------------
  alpha Z        PSCENC =      2652.81237852
  Ewald energy   TEWEN  =    -41692.61522925
  -Hartree energ DENC   =    -25735.04525319
  -exchange      EXHF   =         0.00000000
  -V(xc)+E(xc)   XCENC  =      3708.37531972
  PAW double counting   =     70352.82821081   -73904.37429111
  entropy T*S    EENTRO =        -0.00000000
  eigenvalues    EBANDS =    -10146.73469543
  atomic energy  EATOM  =     73862.19814772
  Solvation  Ediel_sol  =         0.00000000
  ---------------------------------------------------
  free energy    TOTEN  =      -902.55541221 eV

  energy without entropy =     -902.55541221  energy(sigma->0) =     -902.55541221


--------------------------------------------------------------------------------------------------------




--------------------------------------- Iteration      1(  17)  ---------------------------------------


    POTLOK:  cpu time    0.1724: real time    0.1731
    SETDIJ:  cpu time    5.0519: real time    5.0558
    EDDIAG:  cpu time    4.3786: real time    4.7803
  RMM-DIIS:  cpu time   18.2285: real time   18.2512
    ORTHCH:  cpu time    1.1552: real time    1.2408
       DOS:  cpu time    0.0011: real time    0.0011
    CHARGE:  cpu time    1.7670: real time    1.7677
    MIXING:  cpu time    0.0020: real time    0.0020
    --------------------------------------------
      LOOP:  cpu time   30.7567: real time   31.2721

 eigenvalue-minimisations  : 20364
 total energy-change (2. order) : 0.4740362E-01  (-0.9228796E-01)
 number of electron     672.0000003 magnetization      48.0000019
 augmentation part      251.1438277 magnetization      33.8677831

 Broyden mixing:
  rms(total) = 0.80279E+00    rms(broyden)= 0.80257E+00
  rms(prec ) = 0.90806E+00
  weight for this iteration     100.00

 eigenvalues of (default mixing * dielectric matrix)
  average eigenvalue GAMMA=   0.9823
  2.2246  1.0956  0.3792  0.6665  0.5455

 Free energy of the ion-electron system (eV)
  ---------------------------------------------------
  alpha Z        PSCENC =      2652.81237852
  Ewald energy   TEWEN  =    -41692.61522925
  -Hartree energ DENC   =    -25721.29395138
  -exchange      EXHF   =         0.00000000
  -V(xc)+E(xc)   XCENC  =      3706.05543224
  PAW double counting   =     71375.12509272   -74936.46278435
  entropy T*S    EENTRO =        -0.00000000
  eigenvalues    EBANDS =    -10148.32709482
  atomic energy  EATOM  =     73862.19814772
  Solvation  Ediel_sol  =         0.00000000
  ---------------------------------------------------
  free energy    TOTEN  =      -902.50800859 eV

  energy without entropy =     -902.50800859  energy(sigma->0) =     -902.50800859


--------------------------------------------------------------------------------------------------------




--------------------------------------- Iteration      1(  18)  ---------------------------------------


    POTLOK:  cpu time    0.1691: real time    0.1694
    SETDIJ:  cpu time    5.0600: real time    5.0609
    EDDIAG:  cpu time    4.3479: real time    4.7716
  RMM-DIIS:  cpu time   17.6152: real time   17.6421
    ORTHCH:  cpu time    1.1534: real time    1.2412
       DOS:  cpu time    0.0011: real time    0.0011
    CHARGE:  cpu time    1.7743: real time    1.7777
    MIXING:  cpu time    0.0032: real time    0.0032
    --------------------------------------------
      LOOP:  cpu time   30.1242: real time   30.6673

 eigenvalue-minimisations  : 19340
 total energy-change (2. order) : 0.4284649E+00  (-0.7028601E-01)
 number of electron     672.0000005 magnetization      48.0000019
 augmentation part      250.6487183 magnetization      33.8415644

 Broyden mixing:
  rms(total) = 0.31095E+00    rms(broyden)= 0.31071E+00
  rms(prec ) = 0.33058E+00
  weight for this iteration     100.00

 eigenvalues of (default mixing * dielectric matrix)
  average eigenvalue GAMMA=   1.0078
[...]
   4      -0.918    -0.921     1.839    -0.101    -0.042    -0.018
   5      -0.807    -0.726     1.533    -0.121     0.369     0.268
   6      -0.899    -1.030     1.929    -0.041    -0.028     0.086
   7      -0.845    -0.766     1.611     0.074     0.450    -0.306
   8      -0.584    -0.805     1.389    -0.053     0.029     0.414
   9      -0.834    -0.662     1.495     0.131    -0.345     0.258
  10      -0.888    -0.868     1.756    -0.032    -0.103    -0.024
  11      -0.609    -0.834     1.443    -0.036     0.094    -0.478
  12      -0.673    -0.923     1.596     0.034    -0.022     0.589
  13      -0.764    -0.662     1.425    -0.136    -0.404    -0.133
  14      -0.881    -0.753     1.634     0.043     0.572    -0.379
  15      -0.510    -0.871     1.381    -0.003     0.006    -0.405
  16      -0.857    -0.776     1.634     0.109    -0.448     0.201
  17       1.392     1.543    -2.935     0.053     0.048    -0.176
  18       1.661     1.357    -3.019     0.130     0.032     0.027
  19       1.447     1.411    -2.858    -0.038    -0.039    -0.078
  20       1.434     1.441    -2.875     0.078    -0.007    -0.079
  21       1.331     1.514    -2.844     0.017     0.093     0.032
  22       1.803     1.129    -2.932     0.122    -0.043     0.011
  23       1.425     1.507    -2.932    -0.056    -0.119     0.085
  24       1.242     1.655    -2.898     0.019     0.156    -0.007
  25      -1.134     0.962     0.172     0.486     0.518    -0.546
  26      -0.860     1.058    -0.198    -1.536     0.838     0.641
  27       0.009     0.747    -0.756    -1.146    -0.762    -1.512
  28      -3.084     0.287     2.797    -2.211     1.127    -0.397
  29      -0.087     1.992    -1.905     0.307    -2.157     0.198
  30      -0.427    -0.788     1.214     0.308     0.167    -0.416
  31      -0.498    -0.240     0.738    -0.443     0.223     0.323
  32      -0.879    -0.548     1.426     0.277     1.285    -0.675
  33      -0.037    -0.430     0.467    -0.556     0.015    -0.722
  34      -0.167    -0.935     1.102     0.243    -1.296    -1.297
  35      -0.565    -1.535     2.100     0.264     1.552    -0.086
  36      -1.350     0.230     1.121    -1.365     0.842     0.738
  37      -0.761     0.168     0.593    -0.056    -0.598     0.579
  38       2.528    -1.733    -0.796    -0.987     1.314     0.458
  39      -0.301    -1.886     2.187     0.316    -0.074     0.012
  40       1.319    -1.496     0.176     0.546    -0.632     0.331
  41      -5.485     5.446     0.039    -5.763     3.523    -5.084
  42      -5.048     3.841     1.207     3.285     2.047     4.252
  43       3.696    -6.261     2.565    -1.381    -5.402     0.780
  44      -1.837     1.105     0.732     6.260    -2.002    -3.662
  45      -4.349     4.279     0.070    -3.592    -1.510     3.390
  46       3.062    -6.073     3.012    -2.778     4.367    -1.046
  47      -3.630     3.947    -0.317    -4.612     1.981    -4.984
  48       5.985    -5.458    -0.527    -1.450    -3.439     1.726
  49      -2.960     4.683    -1.724     3.927    -1.357     4.268
  50       3.667    -7.397     3.731    -1.644     5.493     1.577
  51      -4.725     4.232     0.493    -3.622    -1.150     4.480
  52      -1.373     0.975     0.398     6.366     0.251    -2.819
  53      -3.345     2.484     0.861    -4.728     0.802    -3.523
  54      -2.650     2.173     0.477     4.633     2.010     4.088
  55       3.780    -4.863     1.082     1.052    -4.670     0.722
  56      -1.797     0.993     0.804     4.693    -3.507    -3.381
  57      -4.542     2.121     2.421    -6.435    -1.458     5.409
  58       5.598    -4.554    -1.044     1.292     5.090    -0.985
  59      -3.484     1.711     1.773    -4.235     1.287    -5.399
  60       4.333    -6.894     2.561    -0.578    -5.133     0.363
  61      -4.170     3.510     0.660     5.360     2.346     3.925
  62       3.715    -4.770     1.055    -0.749     3.366     0.395
  63      -2.564     3.467    -0.903    -5.936    -1.323     0.923
  64      -2.164    -0.363     2.527     4.734    -2.848    -4.209
  65      -3.478     3.149     0.329    -4.446     2.165    -5.917
  66      -3.769     2.284     1.485     4.693     1.034     3.788
  67       6.872    -5.973    -0.899     0.001    -3.643     0.323
  68      -2.055     1.776     0.279     4.850    -2.466    -5.021
  69      -3.205     3.593    -0.388    -3.670    -4.033     2.545
  70       4.335    -6.096     1.761    -0.715     4.688     0.115
  71      -4.201     2.243     1.958    -5.033     0.414    -4.146
  72       4.957    -6.107     1.150     0.093    -4.871    -0.428
  73      -3.365     2.209     1.156     2.979     2.818     3.920
  74       6.109    -6.924     0.814     0.512     6.246    -1.271
  75      -4.878     4.645     0.232    -3.498    -3.314     4.002
  76      -3.636     1.507     2.129     4.474    -4.271    -3.711
  77      -1.475     2.714    -1.239    -5.770     2.632    -1.969
  78      -2.635     1.965     0.670     4.648     4.153     2.683
  79       4.658    -5.419     0.762    -0.572    -4.356    -2.266
  80      -1.169     2.401    -1.232     5.761    -2.292    -3.431
  81      -4.055     4.022     0.033    -5.732    -1.944     5.120
  82       6.076    -6.855     0.779    -1.698     4.217     2.001
  83      -0.846    -0.674     1.520    -5.208     2.864    -3.734
  84       8.842    -7.093    -1.749     1.351    -4.862     2.143
  85      -1.450     1.830    -0.380     5.645     2.495     3.559
  86       5.035    -5.497     0.462     0.387     4.797    -0.038
  87      -3.806     0.623     3.184    -3.672    -2.070     4.576
  88      -2.129     1.468     0.661     5.316    -1.448    -3.609
 ---------------------------------------------------------------------


 Total hyperfine coupling parameters after diagonalization (MHz)
 (convention: |A_zz| > |A_xx| > |A_yy|)
 ----------------------------------------------------------------------
  ion      A_xx      A_yy      A_zz     asymmetry (A_yy - A_xx)/ A_zz 
 ----------------------------------------------------------------------
   1       1.895     1.449     4.042      -0.110
   2       0.605     0.510     3.371      -0.028
   3       1.491     1.090     3.654      -0.110
   4       1.229     1.026     3.887      -0.052
   5       2.084     1.746     4.340      -0.078
   6       0.313     0.157     3.133      -0.050
   7       2.212     1.931     4.658      -0.060
   8       1.600     1.282     3.637      -0.087
   9       1.905     1.519     4.068      -0.095
  10       0.389     0.320     2.995      -0.023
  11       1.922     1.604     4.079      -0.078
  12       2.287     1.899     4.683      -0.083
  13       2.214     1.857     4.290      -0.083
  14       1.867     1.552     4.424      -0.071
  15       2.115     1.683     4.077      -0.106
  16       2.376     2.058     4.804      -0.066
  17      14.311     9.990    14.498      -0.298
  18      16.073    11.744    16.473      -0.263
  19      14.342    10.093    14.424      -0.295
  20      13.901     9.664    14.057      -0.301
  21      12.872     8.694    13.057      -0.320
  22      14.029     9.989    14.745      -0.274
  23      14.740    10.405    14.882      -0.291
  24      14.136     9.985    14.545      -0.285
  25     101.803   100.091   102.836      -0.017
  26      99.916    97.348   101.516      -0.025
  27      95.185    92.346    96.628      -0.029
  28      95.488    90.207    97.763      -0.054
  29      96.174    91.502    96.903      -0.048
  30      96.731    95.932    98.287      -0.008
  31      95.228    94.240    95.997      -0.010
  32      97.747    96.430   100.237      -0.013
  33      93.393    92.226    94.251      -0.012
  34      96.083    95.095    99.154      -0.010
  35      96.724    96.115   100.640      -0.006
  36      99.901    96.493   100.507      -0.034
  37      92.337    91.462    93.618      -0.009
  38      98.764    97.153   102.630      -0.016
  39     100.746    99.041   103.178      -0.017
  40      96.049    94.280    97.632      -0.018
  41       8.549     3.349    22.794      -0.228
  42       6.635     2.344    16.651      -0.258
  43      -2.556     1.621    12.615       0.331
  44       4.877    -0.566    14.618      -0.372
  45       5.346     1.456    14.560      -0.267
  46       5.829     0.050    14.838      -0.389
  47       7.302     4.764    19.764      -0.128
  48       4.770     0.514    14.302      -0.298
  49       8.019     2.305    16.669      -0.343
  50       7.712     0.491    17.889      -0.404
  51       5.476     1.645    15.939      -0.240
  52      10.827     3.314    17.451      -0.431
  53       8.134     2.899    16.138      -0.324
  54       5.399     2.196    15.498      -0.207
  55       4.343     0.904    13.583      -0.253
  56       5.465     2.366    15.635      -0.198
  57       7.737     0.238    18.910      -0.397
  58       5.602     2.541    16.657      -0.184
  59       5.038     0.920    15.660      -0.263
  60       5.876     0.710    16.321      -0.317
  61       5.559     0.501    16.257      -0.311
  62       5.688     1.836    12.791      -0.301
  63       7.990     2.792    16.453      -0.316
  64       5.122     1.010    15.266      -0.269
  65      -1.526     0.653    13.987       0.156
  66       6.080     0.534    14.338      -0.387
  67       5.583     1.899    16.211      -0.227
  68       2.164    -0.236    14.053      -0.171
  69       4.390    -0.958    12.770      -0.419
  70       6.514     2.089    16.193      -0.273
  71       9.151     2.245    17.191      -0.402
  72       5.175     1.191    15.619      -0.255
  73       3.470     0.775    12.958      -0.208
  74       4.826     0.330    17.953      -0.250
  75       4.795    -0.020    15.367      -0.313
  76       4.685    -0.198    15.215      -0.321
  77       6.222     2.469    16.108      -0.233
  78       4.003    -0.943    13.221      -0.374
  79       8.024     2.451    16.529      -0.337
  80       6.866     4.418    18.256      -0.134
  81       6.078     1.840    18.927      -0.224
  82       7.532     0.134    16.472      -0.449
  83       4.787     0.616    14.532      -0.287
  84       7.741     1.681    20.834      -0.291
  85       2.677    -0.455    13.493      -0.232
  86       5.729     2.753    16.345      -0.182
  87       2.296    -1.572    12.296      -0.315
  88       6.005     1.222    14.733      -0.325
 ---------------------------------------------------------------------



--------------------------------------------------------------------------------------------------------


 stress matrix after NEB project (eV)
    -43.51306      1.78241      1.49345
      1.79471    -40.08580     -1.06572
      1.46658     -1.07593    -56.42686
  FORCES: max atom, RMS     2.840622    1.225692
  FORCE total and by dimension   11.498011    2.587634
  Stress total and by dimension   81.837161   56.426857
     LOOP+:  cpu time  790.1385: real time  806.6226
    4ORBIT:  cpu time    0.0000: real time    0.0000
 


 total charge     
 
# of ion       s       p       d       tot
------------------------------------------
    1        0.051   5.994   0.000   6.045
    2        0.048   5.992   0.000   6.040
    3        0.049   5.992   0.000   6.041
    4        0.053   5.999   0.000   6.052
    5        0.047   5.988   0.000   6.035
    6        0.048   5.992   0.000   6.040
    7        0.051   5.993   0.000   6.044
    8        0.056   5.999   0.000   6.055
    9        0.050   5.992   0.000   6.042
   10        0.047   5.990   0.000   6.036
   11        0.046   5.988   0.000   6.034
   12        0.052   5.994   0.000   6.046
   13        0.052   5.994   0.000   6.046
   14        0.059   6.004   0.000   6.062
   15        0.049   5.991   0.000   6.040
   16        0.052   5.993   0.000   6.045
   17        0.150   6.129   0.084   6.363
   18        0.149   6.128   0.084   6.360
   19        0.145   6.122   0.079   6.346
   20        0.150   6.130   0.086   6.365
   21        0.144   6.120   0.077   6.341
   22        0.151   6.132   0.087   6.370
   23        0.150   6.130   0.085   6.366
   24        0.146   6.123   0.080   6.349
   25        0.380   6.466   4.847  11.693
   26        0.366   6.433   4.815  11.615
   27        0.379   6.460   4.847  11.686
   28        0.396   6.494   4.885  11.776
   29        0.392   6.489   4.878  11.759
   30        0.388   6.478   4.861  11.728
   31        0.392   6.489   4.867  11.748
   32        0.376   6.461   4.828  11.665
   33        0.373   6.448   4.817  11.638
   34        0.376   6.460   4.831  11.666
   35        0.391   6.483   4.875  11.749
   36        0.364   6.433   4.804  11.602
   37        0.399   6.507   4.878  11.785
   38        0.353   6.402   4.790  11.545
   39        0.368   6.438   4.814  11.619
   40        0.364   6.429   4.805  11.598
   41        1.606   3.497   0.000   5.102
   42        1.599   3.511   0.000   5.110
   43        1.598   3.485   0.000   5.084
   44        1.598   3.499   0.000   5.097
   45        1.598   3.500   0.000   5.098
   46        1.600   3.552   0.000   5.152
   47        1.600   3.512   0.000   5.112
   48        1.596   3.484   0.000   5.080
   49        1.600   3.531   0.000   5.132
   50        1.603   3.503   0.000   5.106
   51        1.597   3.519   0.000   5.116
   52        1.601   3.550   0.000   5.151
   53        1.596   3.511   0.000   5.107
   54        1.599   3.544   0.000   5.143
   55        1.597   3.522   0.000   5.119
   56        1.598   3.521   0.000   5.119
   57        1.605   3.512   0.000   5.117
   58        1.600   3.478   0.000   5.078
   59        1.603   3.533   0.000   5.135
   60        1.600   3.501   0.000   5.101
   61        1.601   3.525   0.000   5.126
   62        1.595   3.527   0.000   5.122
   63        1.597   3.512   0.000   5.109
   64        1.597   3.519   0.000   5.116
   65        1.601   3.478   0.000   5.079
   66        1.600   3.518   0.000   5.118
   67        1.598   3.508   0.000   5.106
   68        1.599   3.460   0.000   5.058
   69        1.595   3.460   0.000   5.055
   70        1.599   3.530   0.000   5.130
   71        1.600   3.530   0.000   5.130
   72        1.596   3.495   0.000   5.091
   73        1.598   3.522   0.000   5.119
   74        1.603   3.531   0.000   5.134
   75        1.598   3.479   0.000   5.077
   76        1.599   3.510   0.000   5.109
   77        1.599   3.504   0.000   5.103
   78        1.599   3.477   0.000   5.076
   79        1.597   3.525   0.000   5.122
   80        1.600   3.495   0.000   5.095
   81        1.602   3.491   0.000   5.093
   82        1.598   3.509   0.000   5.107
   83        1.598   3.498   0.000   5.097
   84        1.606   3.486   0.000   5.093
   85        1.598   3.484   0.000   5.082
   86        1.596   3.486   0.000   5.082
   87        1.597   3.510   0.000   5.107
   88        1.598   3.510   0.000   5.108
--------------------------------------------------
tot         84.813 416.622  78.104 579.540
 


 magnetization (x)
 
# of ion       s       p       d       tot
------------------------------------------
    1        0.002   0.000   0.000   0.002
    2        0.001   0.001   0.000   0.002
    3        0.002   0.000   0.000   0.002
    4        0.001   0.001   0.000   0.002
    5        0.002   0.000   0.000   0.002
    6        0.001   0.000   0.000   0.001
    7        0.002   0.000   0.000   0.002
    8        0.001   0.000   0.000   0.002
    9        0.002   0.000   0.000   0.002
   10        0.001   0.000   0.000   0.001
   11        0.002   0.000   0.000   0.002
   12        0.002   0.000   0.000   0.002
   13        0.002   0.000   0.000   0.002
   14        0.002  -0.000   0.000   0.002
   15        0.002   0.000   0.000   0.002
   16        0.002   0.000   0.000   0.003
   17        0.007   0.002   0.001   0.011
   18        0.008   0.003   0.001   0.012
   19        0.007   0.002   0.001   0.010
   20        0.007   0.002   0.001   0.010
   21        0.007   0.001   0.001   0.009
   22        0.007   0.003   0.001   0.012
   23        0.007   0.003   0.001   0.011
   24        0.007   0.002   0.001   0.010
   25        0.017   0.032   2.747   2.796
   26        0.016   0.030   2.770   2.816
   27        0.015   0.029   2.740   2.783
   28        0.015   0.031   2.693   2.739
   29        0.015   0.031   2.708   2.754
   30        0.015   0.030   2.730   2.775
   31        0.015   0.031   2.726   2.772
   32        0.016   0.031   2.756   2.803
   33        0.014   0.030   2.766   2.811
   34        0.015   0.030   2.753   2.799
   35        0.016   0.031   2.711   2.758
   36        0.016   0.030   2.786   2.832
   37        0.014   0.031   2.712   2.757
   38        0.015   0.029   2.804   2.848
   39        0.017   0.031   2.788   2.836
   40        0.015   0.029   2.778   2.822
   41        0.003   0.061   0.000   0.064
   42        0.002   0.039   0.000   0.041
   43        0.001   0.007   0.000   0.009
   44        0.002   0.022   0.000   0.024
   45        0.002   0.027   0.000   0.029
   46        0.002   0.047   0.000   0.049
   47        0.003   0.055   0.000   0.058
   48        0.002   0.019   0.000   0.021
   49        0.002   0.050   0.000   0.052
   50        0.002   0.045   0.000   0.047
   51        0.002   0.038   0.000   0.040
   52        0.002   0.069   0.000   0.071
   53        0.002   0.049   0.000   0.051
   54        0.002   0.042   0.000   0.044
   55        0.002   0.031   0.000   0.033
   56        0.002   0.040   0.000   0.042
   57        0.002   0.051   0.000   0.053
   58        0.002   0.033   0.000   0.035
   59        0.002   0.039   0.000   0.041
   60        0.002   0.040   0.000   0.042
   61        0.002   0.042   0.000   0.044
   62        0.002   0.029   0.000   0.031
   63        0.002   0.050   0.000   0.052
   64        0.002   0.035   0.000   0.037
   65        0.002   0.003   0.000   0.005
   66        0.002   0.039   0.000   0.041
   67        0.002   0.039   0.000   0.041
   68        0.002   0.007   0.000   0.009
   69        0.002   0.006   0.000   0.007
   70        0.002   0.040   0.000   0.042
   71        0.002   0.060   0.000   0.062
   72        0.002   0.029   0.000   0.031
   73        0.002   0.022   0.000   0.024
   74        0.002   0.042   0.000   0.044
   75        0.002   0.015   0.000   0.017
   76        0.002   0.028   0.000   0.030
   77        0.002   0.029   0.000   0.031
   78        0.002   0.011   0.000   0.013
   79        0.002   0.045   0.000   0.047
   80        0.003   0.043   0.000   0.046
   81        0.002   0.042   0.000   0.044
   82        0.002   0.040   0.000   0.042
   83        0.002   0.026   0.000   0.028
   84        0.003   0.041   0.000   0.044
   85        0.002   0.003   0.000   0.005
   86        0.002   0.031   0.000   0.034
   87        0.001   0.016   0.000   0.017
   88        0.002   0.031   0.000   0.033
--------------------------------------------------
tot          0.428   2.156  43.978  46.561
 

 total amount of memory used by VASP MPI-rank0    94434. kBytes
=======================================================================

   base      :      30000. kBytes
   nonlr-proj:      13675. kBytes
   fftplans  :       1275. kBytes
   grid      :      22786. kBytes
   one-center:       2737. kBytes
   wavefun   :      23961. kBytes
 
  
  
 General timing and accounting informations for this job:
 ========================================================
  
                  Total CPU time used (sec):      811.032
                            User time (sec):      802.742
                          System time (sec):        8.290
                         Elapsed time (sec):      829.998
  
                   Maximum memory used (kb):      194940.
                   Average memory used (kb):           0.
  
                          Minor page faults:       296027
                          Major page faults:            0
                 Voluntary context switches:       272228
