 vasp.5.4.4.18Apr17-6-g9f103f2a35 (build Dec 02 2020 12:53:39) complex          
  
 executed on             LinuxIFC date 2021.08.04  09:27:23
 running on  112 total cores
 distrk:  each k-point on  112 cores,    1 groups
 distr:  one band on NCORES_PER_BAND=   1 cores,  112 groups


--------------------------------------------------------------------------------------------------------


 INCAR:
 POTCAR:    PAW_PBE Na_pv 19Sep2006               
 POTCAR:    PAW_PBE Mg_pv 13Apr2007               
 POTCAR:    PAW_PBE Mn_pv 02Aug2007               
 POTCAR:    PAW_PBE O 08Apr2002                   

 ----------------------------------------------------------------------------- 
|                                                                             |
|           W    W    AA    RRRRR   N    N  II  N    N   GGGG   !!!           |
|           W    W   A  A   R    R  NN   N  II  NN   N  G    G  !!!           |
|           W    W  A    A  R    R  N N  N  II  N N  N  G       !!!           |
|           W WW W  AAAAAA  RRRRR   N  N N  II  N  N N  G  GGG   !            |
|           WW  WW  A    A  R   R   N   NN  II  N   NN  G    G                |
|           W    W  A    A  R    R  N    N  II  N    N   GGGG   !!!           |
|                                                                             |
|      For optimal performance we recommend to set                            |
|        NCORE= 4 - approx SQRT( number of cores)                             |
|      NCORE specifies how many cores store one orbital (NPAR=cpu/NCORE).     |
|      This setting can  greatly improve the performance of VASP for DFT.     |
|      The default,   NCORE=1            might be grossly inefficient         |
|      on modern multi-core architectures or massively parallel machines.     |
|      Do your own testing !!!!                                               |
|      Unfortunately you need to use the default for GW and RPA calculations. |
|      (for HF NCORE is supported but not extensively tested yet)             |
|                                                                             |
 ----------------------------------------------------------------------------- 

 POTCAR:    PAW_PBE Na_pv 19Sep2006               
   VRHFIN =Na: p6s1                                                             
   LEXCH  = PE                                                                  
   EATOM  =   766.0439 eV,   56.3026 Ry                                         
                                                                                
   TITEL  = PAW_PBE Na_pv 19Sep2006                                             
   LULTRA =        F    use ultrasoft PP ?                                      
   IUNSCR =        1    unscreen: 0-lin 1-nonlin 2-no                           
   RPACOR =    1.800    partial core radius                                     
   POMASS =   22.990; ZVAL   =    7.000    mass and valenz                      
   RCORE  =    2.200    outmost cutoff radius                                   
   RWIGS  =    2.200; RWIGS  =    1.164    wigner-seitz radius (au A)           
   ENMAX  =  259.561; ENMIN  =  194.671 eV                                      
   ICORE  =        2    local potential                                         
   LCOR   =        T    correct aug charges                                     
   LPAW   =        T    paw PP                                                  
   EAUG   =  368.056                                                            
   DEXC   =    0.000                                                            
   RMAX   =    2.245    core radius for proj-oper                               
   RAUG   =    1.300    factor for augmentation sphere                          
   RDEP   =    2.259    radius for radial grids                                 
   RDEPT  =    1.738    core radius for aug-charge                              
                                                                                
   Atomic configuration                                                         
    5 entries                                                                   
     n  l   j            E        occ.                                          
     1  0  0.50     -1033.6933   2.0000                                         
     2  0  0.50       -56.7526   2.0000                                         
     2  1  1.50       -28.6721   6.0000                                         
     3  0  0.50        -2.7440   1.0000                                         
     3  2  1.50        -1.3606   0.0000                                         
   Description                                                                  
     l       E           TYP  RCUT    TYP  RCUT                                 
     1    -28.6720912     23  2.000                                             
     1      6.8029130     23  2.000                                             
     0     -2.7439560     23  2.200                                             
     0     34.0145650     23  2.200                                             
     2     -1.3605826     23  2.200                                             
  local pseudopotential read in
  partial core-charges read in
  partial kinetic energy density read in
  atomic valenz-charges read in
  non local Contribution for L=           1  read in
    real space projection operators read in
  non local Contribution for L=           1  read in
    real space projection operators read in
  non local Contribution for L=           0  read in
    real space projection operators read in
  non local Contribution for L=           0  read in
    real space projection operators read in
    PAW grid and wavefunctions read in
 
   number of l-projection  operators is LMAX  =           4
   number of lm-projection operators is LMMAX =           8
 
 POTCAR:    PAW_PBE Mg_pv 13Apr2007               
   VRHFIN =Mg: p6s2                                                             
   LEXCH  = PE                                                                  
   EATOM  =  1056.7344 eV,   77.6678 Ry                                         
                                                                                
   TITEL  = PAW_PBE Mg_pv 13Apr2007                                             
   LULTRA =        F    use ultrasoft PP ?                                      
   IUNSCR =        1    unscreen: 0-lin 1-nonlin 2-no                           
   RPACOR =    1.500    partial core radius                                     
   POMASS =   24.305; ZVAL   =    8.000    mass and valenz                      
   RCORE  =    2.000    outmost cutoff radius                                   
   RWIGS  =    2.000; RWIGS  =    1.058    wigner-seitz radius (au A)           
   ENMAX  =  403.929; ENMIN  =  302.947 eV                                      
   RCLOC  =    1.506    cutoff for local pot                                    
   LCOR   =        T    correct aug charges                                     
   LPAW   =        T    paw PP                                                  
   EAUG   =  758.780                                                            
   DEXC   =    0.000                                                            
   RMAX   =    2.045    core radius for proj-oper                               
   RAUG   =    1.300    factor for augmentation sphere                          
   RDEP   =    2.025    radius for radial grids                                 
   RDEPT  =    1.557    core radius for aug-charge                              
                                                                                
   Atomic configuration                                                         
    5 entries                                                                   
     n  l   j            E        occ.                                          
     1  0  0.50     -1259.6230   2.0000                                         
     2  0  0.50       -79.8442   2.0000                                         
     2  1  1.50       -46.6121   6.0000                                         
     3  0  0.50        -4.7055   2.0000                                         
     3  2  1.50        -1.3606   0.0000                                         
   Description                                                                  
     l       E           TYP  RCUT    TYP  RCUT                                 
     1    -46.6121073     23  1.600                                             
     1      2.7211652     23  1.600                                             
     0     -4.7054661     23  2.000                                             
     0     61.2262170     23  2.000                                             
     2     -1.3605826     23  2.000                                             
  local pseudopotential read in
  partial core-charges read in
  partial kinetic energy density read in
  atomic valenz-charges read in
  non local Contribution for L=           1  read in
    real space projection operators read in
  non local Contribution for L=           1  read in
    real space projection operators read in
  non local Contribution for L=           0  read in
    real space projection operators read in
  non local Contribution for L=           0  read in
    real space projection operators read in
  non local Contribution for L=           2  read in
    real space projection operators read in
    PAW grid and wavefunctions read in
 
   number of l-projection  operators is LMAX  =           5
   number of lm-projection operators is LMMAX =          13
 
 POTCAR:    PAW_PBE Mn_pv 02Aug2007               
   VRHFIN =Mn: 3p4s3d                                                           
   LEXCH  = PE                                                                  
   EATOM  =  2025.2664 eV,  148.8529 Ry                                         
                                                                                
   TITEL  = PAW_PBE Mn_pv 02Aug2007                                             
   LULTRA =        F    use ultrasoft PP ?                                      
   IUNSCR =        1    unscreen: 0-lin 1-nonlin 2-no                           
   RPACOR =    2.080    partial core radius                                     
   POMASS =   54.938; ZVAL   =   13.000    mass and valenz                      
   RCORE  =    2.300    outmost cutoff radius                                   
   RWIGS  =    2.500; RWIGS  =    1.323    wigner-seitz radius (au A)           
   ENMAX  =  269.864; ENMIN  =  202.398 eV                                      
   ICORE  =        3    local potential                                         
   LCOR   =        T    correct aug charges                                     
   LPAW   =        T    paw PP                                                  
   EAUG   =  569.085                                                            
   DEXC   =    0.000                                                            
   RMAX   =    2.343    core radius for proj-oper                               
   RAUG   =    1.300    factor for augmentation sphere                          
   RDEP   =    2.338    radius for radial grids                                 
   RDEPT  =    1.798    core radius for aug-charge                              
                                                                                
   Atomic configuration                                                         
    8 entries                                                                   
     n  l   j            E        occ.                                          
     1  0  0.50     -6424.8287   2.0000                                         
     2  0  0.50      -739.1154   2.0000                                         
     2  1  1.50      -625.3949   6.0000                                         
     3  0  0.50       -81.6100   2.0000                                         
     3  1  1.50       -50.4667   6.0000                                         
     3  2  2.50        -3.3745   6.0000                                         
     4  0  0.50        -4.1331   1.0000                                         
     4  3  2.50        -1.3606   0.0000                                         
   Description                                                                  
     l       E           TYP  RCUT    TYP  RCUT                                 
     1    -50.4666628     23  2.000                                             
     1     -1.3605826     23  2.000                                             
     2     -3.3744729     23  2.300                                             
     2     -4.7350555     23  2.300                                             
     0     -4.1331431     23  2.300                                             
     0      7.6656591     23  2.300                                             
     3      9.5240782     23  2.300                                             
  local pseudopotential read in
  partial core-charges read in
  partial kinetic energy density read in
  atomic valenz-charges read in
  non local Contribution for L=           1  read in
    real space projection operators read in
  non local Contribution for L=           1  read in
    real space projection operators read in
  non local Contribution for L=           2  read in
    real space projection operators read in
  non local Contribution for L=           2  read in
    real space projection operators read in
  non local Contribution for L=           0  read in
    real space projection operators read in
  non local Contribution for L=           0  read in
    real space projection operators read in
    PAW grid and wavefunctions read in
 
   number of l-projection  operators is LMAX  =           6
   number of lm-projection operators is LMMAX =          18
 
 POTCAR:    PAW_PBE O 08Apr2002                   
   VRHFIN =O: s2p4                                                              
   LEXCH  = PE                                                                  
   EATOM  =   432.3788 eV,   31.7789 Ry                                         
                                                                                
   TITEL  = PAW_PBE O 08Apr2002                                                 
   LULTRA =        F    use ultrasoft PP ?                                      
   IUNSCR =        1    unscreen: 0-lin 1-nonlin 2-no                           
   RPACOR =    1.200    partial core radius                                     
   POMASS =   16.000; ZVAL   =    6.000    mass and valenz                      
   RCORE  =    1.520    outmost cutoff radius                                   
   RWIGS  =    1.550; RWIGS  =    0.820    wigner-seitz radius (au A)           
   ENMAX  =  400.000; ENMIN  =  300.000 eV                                      
   ICORE  =        2    local potential                                         
   LCOR   =        T    correct aug charges                                     
   LPAW   =        T    paw PP                                                  
   EAUG   =  605.392                                                            
   DEXC   =    0.000                                                            
   RMAX   =    1.553    core radius for proj-oper                               
   RAUG   =    1.300    factor for augmentation sphere                          
   RDEP   =    1.550    radius for radial grids                                 
   RDEPT  =    1.329    core radius for aug-charge                              
                                                                                
   Atomic configuration                                                         
    4 entries                                                                   
     n  l   j            E        occ.                                          
     1  0  0.50      -514.6923   2.0000                                         
     2  0  0.50       -23.9615   2.0000                                         
     2  1  0.50        -9.0305   4.0000                                         
     3  2  1.50        -9.5241   0.0000                                         
   Description                                                                  
     l       E           TYP  RCUT    TYP  RCUT                                 
     0    -23.9615318     23  1.200                                             
     0     -9.5240782     23  1.200                                             
     1     -9.0304911     23  1.520                                             
     1      8.1634956     23  1.520                                             
     2     -9.5240782      7  1.500                                             
  local pseudopotential read in
  partial core-charges read in
  partial kinetic energy density read in
  kinetic energy density of atom read in
  atomic valenz-charges read in
  non local Contribution for L=           0  read in
    real space projection operators read in
  non local Contribution for L=           0  read in
    real space projection operators read in
  non local Contribution for L=           1  read in
    real space projection operators read in
  non local Contribution for L=           1  read in
    real space projection operators read in
    PAW grid and wavefunctions read in
 
   number of l-projection  operators is LMAX  =           4
   number of lm-projection operators is LMMAX =           8
 
 Optimization of the real space projectors (new method)

 maximal supplied QI-value         = 17.01
 optimisation between [QCUT,QGAM] = [ 10.20, 20.41] = [ 29.16,116.64] Ry 
 Optimized for a Real-space Cutoff    1.30 Angstroem

   l    n(q)    QCUT    max X(q) W(low)/X(q) W(high)/X(q)  e(spline) 
   1      7    10.205     4.940    0.23E-03    0.84E-03    0.11E-06
   1      7    10.205     6.253    0.40E-03    0.13E-02    0.18E-06
   0      8    10.205    37.438    0.23E-03    0.37E-03    0.42E-07
   0      8    10.205     9.606    0.16E-03    0.26E-03    0.31E-07
 Optimization of the real space projectors (new method)

 maximal supplied QI-value         = 18.90
 optimisation between [QCUT,QGAM] = [ 10.20, 20.41] = [ 29.16,116.64] Ry 
 Optimized for a Real-space Cutoff    1.26 Angstroem

   l    n(q)    QCUT    max X(q) W(low)/X(q) W(high)/X(q)  e(spline) 
   1      7    10.205     2.974    0.63E-04    0.14E-03    0.13E-06
   1      7    10.205     4.279    0.11E-03    0.45E-03    0.24E-06
   0      8    10.205    16.381    0.44E-03    0.15E-03    0.55E-07
   0      8    10.205     5.611    0.31E-03    0.11E-03    0.40E-07
   2      7    10.205     4.652    0.50E-03    0.47E-03    0.57E-07
 Optimization of the real space projectors (new method)

 maximal supplied QI-value         = 16.25
 optimisation between [QCUT,QGAM] = [ 10.24, 20.48] = [ 29.35,117.42] Ry 
 Optimized for a Real-space Cutoff    1.34 Angstroem

   l    n(q)    QCUT    max X(q) W(low)/X(q) W(high)/X(q)  e(spline) 
   1      8    10.239     3.658    0.23E-03    0.30E-03    0.98E-07
   1      8    10.239     5.612    0.32E-03    0.65E-03    0.21E-06
   2      7    10.239    55.373    0.42E-03    0.45E-03    0.65E-07
   2      7    10.239    50.863    0.43E-03    0.48E-03    0.67E-07
   0      8    10.239    79.536    0.11E-03    0.21E-03    0.56E-07
   0      8    10.239    38.668    0.96E-04    0.19E-03    0.52E-07
 Optimization of the real space projectors (new method)

 maximal supplied QI-value         = 24.76
 optimisation between [QCUT,QGAM] = [ 10.15, 20.30] = [ 28.85,115.39] Ry 
 Optimized for a Real-space Cutoff    1.38 Angstroem

   l    n(q)    QCUT    max X(q) W(low)/X(q) W(high)/X(q)  e(spline) 
   0      8    10.150    20.381    0.22E-03    0.32E-03    0.29E-06
   0      8    10.150    15.268    0.23E-03    0.35E-03    0.30E-06
   1      8    10.150     5.964    0.46E-03    0.53E-03    0.21E-06
   1      8    10.150     5.382    0.38E-03    0.45E-03    0.19E-06
  PAW_PBE Na_pv 19Sep2006               :
 energy of atom  1       EATOM= -766.0439
 kinetic energy error for atom=    0.0103 (will be added to EATOM!!)
  PAW_PBE Mg_pv 13Apr2007               :
 energy of atom  2       EATOM=-1056.7344
 kinetic energy error for atom=    0.0820 (will be added to EATOM!!)
  PAW_PBE Mn_pv 02Aug2007               :
 energy of atom  3       EATOM=-2025.2664
 kinetic energy error for atom=    0.0284 (will be added to EATOM!!)
  PAW_PBE O 08Apr2002                   :
 energy of atom  4       EATOM= -432.3788
 kinetic energy error for atom=    0.1156 (will be added to EATOM!!)
 
 
 POSCAR: Na Mg Mn  O                             
  positions in cartesian coordinates
  No initial velocities read in

 METAGGA = SCAN     LMAXTAU =  6    LMIXTAU =  F

 exchange correlation table for  LEXCH =        8
   RHO(1)=    0.500       N(1)  =     2000
   RHO(2)=  100.500       N(2)  =     4000

 VTST: version 3.2, (02/03/18)

 CHAIN: initializing optimizer
 
 OPT: Using VASP Dynamics algorithm
 CHAIN: Read ICHAIN            0
 
 POSCAR: Na Mg Mn  O                             
  positions in cartesian coordinates
  No initial velocities read in
 


--------------------------------------------------------------------------------------------------------


 ion  position               nearest neighbor table
   1  0.408  0.395  0.250-  50 2.32  87 2.32  78 2.33  41 2.37
   2  0.598  0.588  0.750-  82 2.28  85 2.29  45 2.34  33 2.85  35 2.94
   3  0.896  0.004  0.764-  72 2.22  59 2.37
   4  0.396  0.252  0.739-  44 2.26  45 2.26  48 2.30
   5  0.833  0.106  0.262-  63 2.32  54 2.33  62 2.33
   6  0.634  0.754  0.243-  74 2.28  79 2.32  65 2.37
   7  0.146  0.399  0.743-  58 2.19
   8  0.909  0.538  0.746-  68 2.23  57 2.25  71 2.35
   9  0.109  0.547  0.243-  55 2.21  75 2.33  64 2.37  77 2.38  37 2.83  39 2.88
  10  0.624  0.251  0.255-  52 2.34  43 2.38  62 2.38
  11  0.144  0.072  0.255-  76 2.30  41 2.35  27 2.84  25 2.89
  12  0.665  0.102  0.747-  49 2.31  46 2.32  59 2.35  56 2.35  31 2.86  29 2.93
  13  0.139  0.901  0.745-  44 2.30  70 2.33
  14  0.371  0.758  0.741-  81 2.26  84 2.29  80 2.36
  15  0.819  0.588  0.257-  75 2.32  74 2.35  52 2.35  66 2.36  65 2.38
  16  0.400  0.912  0.247-  42 2.16  51 2.30  86 2.33
  17  0.772  0.395  0.991-  71 1.93  53 2.04  49 2.05  43 2.12  60 2.13  66 2.19  26 2.78  33 2.86

  18  0.475  0.248  0.498-  51 2.00  46 2.02  52 2.03  50 2.06  45 2.08  44 2.14  28 2.84
  19  0.284  0.398  0.995-  48 2.00  61 2.05  83 2.05  41 2.05  78 2.07  55 2.10
  20  0.977  0.256  0.503-  64 1.98  63 2.03  58 2.08  57 2.08  56 2.09  62 2.13  32 2.78  28 2.81
                            39 2.81
  21  0.284  0.909  0.001-  67 1.98  84 2.01  47 2.04  42 2.09  77 2.11  73 2.12  29 2.80  25 2.83
                            26 2.84  34 2.86
  22  0.967  0.747  0.487-  76 1.95  69 1.99  75 2.07  68 2.10  74 2.13  70 2.16
  23  0.786  0.898  0.013-  65 1.98  54 2.08  72 2.08  59 2.10  85 2.11  79 2.14  34 2.81  25 2.84
                            33 2.85
  24  0.467  0.752  0.495-  81 1.98  88 1.99  80 2.01  82 2.07  87 2.11  86 2.15  31 2.83  40 2.85

  25  0.114  0.065  0.998-  61 1.83  47 1.91  72 1.92  41 1.93  67 1.94  54 1.95  34 2.80  21 2.83
                            23 2.84  11 2.89  26 2.94  30 2.94
  26  0.452  0.237  0.001-  48 1.91  41 1.92  49 1.98  47 2.01  42 2.01  43 2.02  17 2.78  21 2.84
                            29 2.86  33 2.89  25 2.94
  27  0.130  0.078  0.508-  63 1.88  69 1.92  58 1.93  50 1.94  76 1.95  44 1.99  11 2.84  36 2.90
                            32 2.90  40 2.91
  28  0.802  0.405  0.495-  62 1.81  57 1.86  46 1.93  75 1.94  68 1.97  52 1.99  20 2.81  18 2.84
                            31 2.84  39 2.88  35 2.95
  29  0.606  0.061  0.004-  49 1.86  84 1.89  42 1.89  79 1.92  59 1.97  53 2.01  21 2.80  26 2.86
                            38 2.90  12 2.93  30 2.98
  30  0.950  0.241  0.007-  55 1.87  59 1.92  61 1.93  54 1.95  53 1.96  60 1.97  37 2.82  25 2.94
                            29 2.98
  31  0.636  0.078  0.493-  88 1.88  51 1.88  62 1.90  81 1.93  46 1.94  56 1.97  24 2.83  28 2.84
                            40 2.85  12 2.86  36 2.92
  32  0.297  0.413  0.502-  50 1.87  80 1.88  64 1.89  45 1.93  87 1.95  58 2.00  20 2.78  39 2.87
                            27 2.90  35 2.96
  33  0.618  0.570  0.002-  85 1.91  65 1.94  43 1.94  48 1.95  71 1.96  78 2.01  23 2.85   2 2.85
                            17 2.86  26 2.89  34 2.92  38 2.93
  34  0.955  0.742  0.004-  73 1.84  72 1.84  66 1.89  67 1.89  65 1.90  71 1.99  25 2.80  23 2.81
                            21 2.86  37 2.86  33 2.92
  35  0.637  0.580  0.491-  74 1.85  87 1.87  52 1.87  82 1.89  68 1.94  45 1.96  40 2.85   2 2.94
                            28 2.95  32 2.96
  36  0.299  0.913  0.500-  81 1.90  76 1.90  44 1.91  51 1.93  70 1.93  86 1.96  39 2.89  27 2.90
                            31 2.92
  37  0.106  0.564  0.991-  73 1.84  60 1.84  77 1.90  66 1.93  55 1.93  83 1.94  30 2.82   9 2.83
                            34 2.86  38 2.89
  38  0.438  0.727  0.008-  77 1.88  83 1.89  78 1.91  85 1.94  79 1.97  84 1.97  37 2.89  29 2.90
                            33 2.93
  39  0.134  0.580  0.498-  86 1.86  64 1.88  75 1.89  57 1.89  70 1.92  80 1.93  20 2.81  32 2.87
                            28 2.88   9 2.88  36 2.89
  40  0.795  0.909  0.499-  56 1.85  82 1.91  63 1.97  74 1.98  69 1.99  88 2.02  24 2.85  31 2.85
                            35 2.85  27 2.91
  41  0.282  0.221  0.090-  26 1.92  25 1.93  19 2.05  11 2.35   1 2.37
  42  0.463  0.078  0.104-  29 1.89  26 2.01  21 2.09  16 2.16
  43  0.609  0.409  0.103-  33 1.94  26 2.02  17 2.12  10 2.38
  44  0.295  0.067  0.598-  36 1.91  27 1.99  18 2.14   4 2.26  13 2.30
  45  0.469  0.425  0.589-  32 1.93  35 1.96  18 2.08   4 2.26   2 2.34
  46  0.646  0.242  0.590-  28 1.93  31 1.94  18 2.02  12 2.32
  47  0.277  0.077  0.903-  25 1.91  26 2.01  21 2.04
  48  0.459  0.401  0.909-  26 1.91  33 1.95  19 2.00   4 2.30
  49  0.600  0.206  0.904-  29 1.86  26 1.98  17 2.05  12 2.31
  50  0.291  0.248  0.418-  32 1.87  27 1.94  18 2.06   1 2.32
  51  0.469  0.071  0.411-  31 1.88  36 1.93  18 2.00  16 2.30
  52  0.643  0.425  0.403-  35 1.87  28 1.99  18 2.03  10 2.34  15 2.35
  53  0.779  0.233  0.097-  30 1.96  29 2.01  17 2.04
  54  0.966  0.085  0.100-  25 1.95  30 1.95  23 2.08   5 2.33
  55  0.107  0.407  0.090-  30 1.87  37 1.93  19 2.10   9 2.21
  56  0.795  0.066  0.586-  40 1.85  31 1.97  20 2.09  12 2.35
  57  0.966  0.433  0.590-  28 1.86  39 1.89  20 2.08   8 2.25
  58  0.143  0.243  0.605-  27 1.93  32 2.00  20 2.08   7 2.19
  59  0.786  0.078  0.918-  30 1.92  29 1.97  23 2.10  12 2.35   3 2.37
  60  0.962  0.403  0.900-  37 1.84  30 1.97  17 2.13
  61  0.098  0.214  0.915-  25 1.83  30 1.93  19 2.05
  62  0.790  0.249  0.406-  28 1.81  31 1.90  20 2.13   5 2.33  10 2.38
  63  0.973  0.077  0.415-  27 1.88  40 1.97  20 2.03   5 2.32
  64  0.145  0.426  0.411-  39 1.88  32 1.89  20 1.98   9 2.37
  65  0.787  0.724  0.096-  34 1.90  33 1.94  23 1.98   6 2.37  15 2.38
  66  0.959  0.583  0.091-  34 1.89  37 1.93  17 2.19  15 2.36
  67  0.112  0.903  0.094-  34 1.89  25 1.94  21 1.98
  68  0.793  0.568  0.587-  35 1.94  28 1.97  22 2.10   8 2.23
  69  0.965  0.908  0.590-  27 1.92  40 1.99  22 1.99
  70  0.146  0.745  0.594-  39 1.92  36 1.93  22 2.16  13 2.33
  71  0.786  0.572  0.912-  17 1.93  33 1.96  34 1.99   8 2.35
  72  0.957  0.894  0.910-  34 1.84  25 1.92  23 2.08   3 2.22
  73  0.097  0.721  0.914-  37 1.84  34 1.84  21 2.12
  74  0.778  0.740  0.396-  35 1.85  40 1.98  22 2.13   6 2.28  15 2.35
  75  0.971  0.565  0.403-  39 1.89  28 1.94  22 2.07  15 2.32   9 2.33
  76  0.142  0.922  0.412-  36 1.90  27 1.95  22 1.95  11 2.30
  77  0.266  0.714  0.088-  38 1.88  37 1.90  21 2.11   9 2.38
  78  0.450  0.572  0.099-  38 1.91  33 2.01  19 2.07   1 2.33
  79  0.598  0.899  0.101-  29 1.92  38 1.97  23 2.14   6 2.32
  80  0.298  0.576  0.586-  32 1.88  39 1.93  24 2.01  14 2.36
  81  0.467  0.922  0.585-  36 1.90  31 1.93  24 1.98  14 2.26
  82  0.639  0.737  0.586-  35 1.89  40 1.91  24 2.07   2 2.28
  83  0.282  0.577  0.908-  38 1.89  37 1.94  19 2.05
  84  0.453  0.899  0.913-  29 1.89  38 1.97  21 2.01  14 2.29
  85  0.601  0.724  0.916-  33 1.91  38 1.94  23 2.11   2 2.29
  86  0.274  0.741  0.402-  39 1.86  36 1.96  24 2.15  16 2.33
  87  0.469  0.565  0.408-  35 1.87  32 1.95  24 2.11   1 2.32
  88  0.633  0.921  0.399-  31 1.88  24 1.99  40 2.02
 
  LATTYP: Found a hexagonal cell.
 ALAT       =    10.0190000534
 C/A-ratio  =     1.1196726572
  
  Lattice vectors:
  
 A1 = (  10.0190000534,   0.0000000000,   0.0000000000)
 A2 = (  -5.0095000267,   8.6767085668,   0.0000000000)
 A3 = (   0.0000000000,   0.0000000000,  11.2180004120)


Analysis of symmetry for initial positions (statically):
=====================================================================
 Subroutine PRICEL returns:
 Original cell was already a primitive cell.
 

 Routine SETGRP: Setting up the symmetry group for a 
 hexagonal supercell.


 Subroutine GETGRP returns: Found  1 space group operations
 (whereof  1 operations were pure point group operations)
 out of a pool of 24 trial point group operations.


The static configuration has the point symmetry C_1 .


Analysis of symmetry for dynamics (positions and initial velocities):
=====================================================================
 Subroutine PRICEL returns:
 Original cell was already a primitive cell.
 

 Routine SETGRP: Setting up the symmetry group for a 
 hexagonal supercell.


 Subroutine GETGRP returns: Found  1 space group operations
 (whereof  1 operations were pure point group operations)
 out of a pool of 24 trial point group operations.


The dynamic configuration has the point symmetry C_1 .


Analysis of structural, dynamic, and magnetic symmetry:
=====================================================================
 Subroutine PRICEL returns:
 Original cell was already a primitive cell.
 

 Routine SETGRP: Setting up the symmetry group for a 
 hexagonal supercell.


 Subroutine GETGRP returns: Found  1 space group operations
 (whereof  1 operations were pure point group operations)
 out of a pool of 24 trial point group operations.


The magnetic configuration has the point symmetry C_1 .


 Subroutine INISYM returns: Found  1 space group operations
 (whereof  1 operations are pure point group operations),
 and found     1 'primitive' translations

 
 

Automatic generation of k-mesh.
 generate k-points for:    2    2    2
Space group operators:
 irot       det(A)        alpha          n_x          n_y          n_z        tau_x        tau_y        tau_z
    1     1.000000     0.000000     1.000000     0.000000     0.000000     0.000000     0.000000     0.000000
 
 Subroutine IBZKPT returns following result:
 ===========================================
 
 Found      8 irreducible k-points:
 
 Following reciprocal coordinates:
            Coordinates               Weight
  0.000000  0.000000  0.000000      1.000000
  0.500000 -0.000000 -0.000000      1.000000
  0.000000  0.500000  0.000000      1.000000
  0.500000  0.500000 -0.000000      1.000000
  0.000000  0.000000  0.500000      1.000000
  0.500000 -0.000000  0.500000      1.000000
  0.000000  0.500000  0.500000      1.000000
  0.500000  0.500000  0.500000      1.000000
 
 Following cartesian coordinates:
            Coordinates               Weight
  0.000000  0.000000  0.000000      1.000000
  0.049905  0.028813 -0.000000      1.000000
  0.000000  0.057626  0.000000      1.000000
  0.049905  0.086438 -0.000000      1.000000
  0.000000  0.000000  0.044571      1.000000
  0.049905  0.028813  0.044571      1.000000
  0.000000  0.057626  0.044571      1.000000
  0.049905  0.086438  0.044571      1.000000
 


--------------------------------------------------------------------------------------------------------




 Dimension of arrays:
   k-points           NKPTS =      8   k-points in BZ     NKDIM =      8   number of bands    NBANDS=    448
   number of dos      NEDOS =    301   number of ions     NIONS =     88
   non local maximal  LDIM  =      6   non local SUM 2l+1 LMDIM =     18
   total plane-waves  NPLWV = 140000
   max r-space proj   IRMAX =   1632   max aug-charges    IRDMAX=   4555
   dimension x,y,z NGX =    50 NGY =   50 NGZ =   56
   dimension x,y,z NGXF=   100 NGYF=  100 NGZF=  112
   support grid    NGXF=   100 NGYF=  100 NGZF=  112
   ions per type =              16   8  16  48
   NGX,Y,Z   is equivalent  to a cutoff of   8.30,  8.30,  8.30 a.u.
   NGXF,Y,Z  is equivalent  to a cutoff of  16.59, 16.59, 16.60 a.u.

 SYSTEM =  unknown system                          
 POSCAR =  Na Mg Mn  O                             

 Startparameter for this run:
   NWRITE =      2    write-flag & timer
   PREC   = normal    normal or accurate (medium, high low for compatibility)
   ISTART =      0    job   : 0-new  1-cont  2-samecut
   ICHARG =      1    charge: 1-file 2-atom 10-const
   ISPIN  =      2    spin polarized calculation?
   LNONCOLLINEAR =      F non collinear calculations
   LSORBIT =      F    spin-orbit coupling
   INIWAV =      1    electr: 0-lowe 1-rand  2-diag
   LASPH  =      T    aspherical Exc in radial PAW
   METAGGA=      F    non-selfconsistent MetaGGA calc.

 Electronic Relaxation 1
   ENCUT  =  400.0 eV  29.40 Ry    5.42 a.u.  16.34 16.34 18.29*2*pi/ulx,y,z
   ENINI  =  400.0     initial cutoff
   ENAUG  =  758.8 eV  augmentation charge cutoff
   NELM   =    200;   NELMIN=  6; NELMDL=-12     # of ELM steps 
   EDIFF  = 0.1E-04   stopping-criterion for ELM
   LREAL  =      T    real-space projection
   NLSPLINE    = F    spline interpolate recip. space projectors
   LCOMPAT=      F    compatible to vasp.4.4
   GGA_COMPAT  = T    GGA compatible to vasp.4.4-vasp.4.6
   LMAXPAW     = -100 max onsite density
   LMAXMIX     =    4 max onsite mixed and CHGCAR
   VOSKOWN=      0    Vosko Wilk Nusair interpolation
   ROPT   =   -0.00050  -0.00050  -0.00050  -0.00050
 Ionic relaxation
   EDIFFG = 0.1E-03   stopping-criterion for IOM
   NSW    =      1    number of steps for IOM
   NBLOCK =      1;   KBLOCK =      1    inner block; outer block 
   IBRION =     -1    ionic relax: 0-MD 1-quasi-New 2-CG
   NFREE  =      0    steps in history (QN), initial steepest desc. (CG)
   ISIF   =      2    stress and relaxation
   IWAVPR =     10    prediction:  0-non 1-charg 2-wave 3-comb
   ISYM   =      2    0-nonsym 1-usesym 2-fastsym
   LCORR  =      T    Harris-Foulkes like correction to forces

   POTIM  = 0.5000    time-step for ionic-motion
   TEIN   =    0.0    initial temperature
   TEBEG  =    0.0;   TEEND  =   0.0 temperature during run
   SMASS  =  -3.00    Nose mass-parameter (am)
   estimated Nose-frequenzy (Omega)   =  0.10E-29 period in steps =****** mass=  -0.229E-26a.u.
   SCALEE = 1.0000    scale energy and forces
   NPACO  =    256;   APACO  = 16.0  distance and # of slots for P.C.
   PSTRESS=    0.0 pullay stress

  Mass of Ions in am
   POMASS =  22.99 24.30 54.94 16.00
  Ionic Valenz
   ZVAL   =   7.00  8.00 13.00  6.00
  Atomic Wigner-Seitz radii
   RWIGS  =  -1.00 -1.00 -1.00 -1.00
  virtual crystal weights 
   VCA    =   1.00  1.00  1.00  1.00
   NELECT =     672.0000    total number of electrons
   NUPDOWN=      48.0000    fix difference up-down

 DOS related values:
   EMIN   =  10.00;   EMAX   =-10.00  energy-range for DOS
   EFERMI =   0.00
   ISMEAR =     0;   SIGMA  =   0.05  broadening in eV -4-tet -1-fermi 0-gaus

 Electronic relaxation 2 (details)
   IALGO  =     48    algorithm
   LDIAG  =      T    sub-space diagonalisation (order eigenvalues)
   LSUBROT=      F    optimize rotation matrix (better conditioning)
   TURBO    =      0    0=normal 1=particle mesh
   IRESTART =      0    0=no restart 2=restart with 2 vectors
   NREBOOT  =      0    no. of reboots
   NMIN     =      0    reboot dimension
   EREF     =   0.00    reference energy to select bands
   IMIX   =      4    mixing-type and parameters
     AMIX     =   0.40;   BMIX     =  1.00
     AMIX_MAG =   1.60;   BMIX_MAG =  1.00
     AMIN     =   0.10
     WC   =   100.;   INIMIX=   1;  MIXPRE=   1;  MAXMIX= -45

 Intra band minimization:
   WEIMIN = 0.0000     energy-eigenvalue tresh-hold
   EBREAK =  0.56E-08  absolut break condition
   DEPER  =   0.30     relativ break condition  

   TIME   =   0.40     timestep for ELM

  volume/ion in A,a.u.               =      11.08        74.78
  Fermi-wavevector in a.u.,A,eV,Ry     =   1.445993  2.732531 28.448379  2.090897
  Thomas-Fermi vector in A             =   2.564112
 
 Write flags
   LWAVE        =      F    write WAVECAR
   LDOWNSAMPLE  =      F    k-point downsampling of WAVECAR
   LCHARG       =      F    write CHGCAR
   LVTOT        =      F    write LOCPOT, total local potential
   LVHAR        =      F    write LOCPOT, Hartree potential only
   LELF         =      F    write electronic localiz. function (ELF)
   LORBIT       =     11    0 simple, 1 ext, 2 COOP (PROOUT), +10 PAW based schemes


 Dipole corrections
   LMONO  =      F    monopole corrections only (constant potential shift)
   LDIPOL =      F    correct potential (dipole corrections)
   IDIPOL =      0    1-x, 2-y, 3-z, 4-all directions 
   EPSILON=  1.0000000 bulk dielectric constant

 Exchange correlation treatment:
   GGA     =    --    GGA type
   LEXCH   =     8    internal setting for exchange type
   VOSKOWN=      0    Vosko Wilk Nusair interpolation
   LHFCALC =     F    Hartree Fock is set to
   LHFONE  =     F    Hartree Fock one center treatment
   AEXX    =    0.0000 exact exchange contribution

 Linear response parameters
   LEPSILON=     F    determine dielectric tensor
   LRPA    =     F    only Hartree local field effects (RPA)
   LNABLA  =     F    use nabla operator in PAW spheres
   LVEL    =     F    velocity operator in full k-point grid
   LINTERFAST=   F  fast interpolation
   KINTER  =     0    interpolate to denser k-point grid
   CSHIFT  =0.1000    complex shift for real part using Kramers Kronig
   OMEGAMAX=  -1.0    maximum frequency
   DEG_THRESHOLD= 0.2000000E-02 threshold for treating states as degnerate
   RTIME   =   -0.100 relaxation time in fs
  (WPLASMAI=    0.000 imaginary part of plasma frequency in eV, 0.658/RTIME)
   DFIELD  = 0.0000000 0.0000000 0.0000000 field for delta impulse in time
 
 Orbital magnetization related:
   ORBITALMAG=     F  switch on orbital magnetization
   LCHIMAG   =     F  perturbation theory with respect to B field
   DQ        =  0.001000  dq finite difference perturbation B field
   LLRAUG    =     F  two centre corrections for induced B field



--------------------------------------------------------------------------------------------------------


 Static calculation
 charge density and potential will be updated during run
 spin polarized calculation
 RMM-DIIS sequential band-by-band
 perform sub-space diagonalisation
    before iterative eigenvector-optimisation
 modified Broyden-mixing scheme, WC =      100.0
 initial mixing is a Kerker type mixing with AMIX =  0.4000 and BMIX =      1.0000
 Hartree-type preconditioning will be used
 using additional bands          112
 real space projection scheme for non local part
 use partial core corrections
 calculate Harris-corrections to forces 
   (improved forces if not selfconsistent)
 use gradient corrections 
 use of overlap-Matrix (Vanderbilt PP)
 Gauss-broadening in eV      SIGMA  =   0.05


--------------------------------------------------------------------------------------------------------


  energy-cutoff  :      400.00
  volume of cell :      975.20
      direct lattice vectors                 reciprocal lattice vectors
    10.019000053  0.000000000  0.000000000     0.099810360  0.057625538 -0.000000000
    -5.009500027  8.676708567  0.000000000     0.000000000  0.115251076  0.000000000
     0.000000000  0.000000000 11.218000412     0.000000000  0.000000000  0.089142446

  length of vectors
    10.019000053 10.019000053 11.218000412     0.115251076  0.115251076  0.089142446


 
 k-points in units of 2pi/SCALE and weight: read from INCAR                         
   0.00000000  0.00000000  0.00000000       0.125
   0.04990518  0.02881277 -0.00000000       0.125
   0.00000000  0.05762554  0.00000000       0.125
   0.04990518  0.08643831 -0.00000000       0.125
   0.00000000  0.00000000  0.04457122       0.125
   0.04990518  0.02881277  0.04457122       0.125
   0.00000000  0.05762554  0.04457122       0.125
   0.04990518  0.08643831  0.04457122       0.125
 
 k-points in reciprocal lattice and weights: read from INCAR                         
   0.00000000  0.00000000  0.00000000       0.125
   0.50000000 -0.00000000 -0.00000000       0.125
   0.00000000  0.50000000  0.00000000       0.125
   0.50000000  0.50000000 -0.00000000       0.125
   0.00000000  0.00000000  0.50000000       0.125
   0.50000000 -0.00000000  0.50000000       0.125
   0.00000000  0.50000000  0.50000000       0.125
   0.50000000  0.50000000  0.50000000       0.125
 
 position of ions in fractional coordinates (direct lattice) 
   0.40787153  0.39524599  0.24991085
   0.59792149  0.58831723  0.75019074
   0.89599031  0.00381810  0.76351575
   0.39559794  0.25215207  0.73948473
   0.83347197  0.10618938  0.26249954
   0.63446006  0.75371701  0.24349705
   0.14610147  0.39882437  0.74336599
   0.90881848  0.53786854  0.74572292
   0.10939102  0.54721803  0.24287305
   0.62398687  0.25068854  0.25509359
   0.14384755  0.07166559  0.25509983
   0.66533042  0.10163597  0.74670616
   0.13890648  0.90064962  0.74497769
   0.37107040  0.75777105  0.74098856
   0.81864475  0.58840037  0.25740862
   0.39962688  0.91232093  0.24650472
   0.77170825  0.39451942  0.99099831
   0.47519305  0.24788086  0.49759938
   0.28358200  0.39756204  0.99499907
   0.97654697  0.25595651  0.50275092
   0.28370323  0.90875589  0.00129637
   0.96715498  0.74711164  0.48728738
   0.78641286  0.89789808  0.01316322
   0.46744055  0.75171131  0.49453644
   0.11353672  0.06510319  0.99844744
   0.45197455  0.23658510  0.00058519
   0.13020480  0.07819002  0.50750221
   0.80219891  0.40533803  0.49472899
   0.60641845  0.06114432  0.00408235
   0.95016088  0.24073299  0.00660542
   0.63603723  0.07763589  0.49255391
   0.29686940  0.41277403  0.50202619
   0.61821115  0.56973102  0.00248424
   0.95465544  0.74219042  0.00377237
   0.63742239  0.57994111  0.49122123
   0.29944918  0.91348464  0.50041360
   0.10567199  0.56447903  0.99111253
   0.43780302  0.72656122  0.00797977
   0.13368533  0.58021426  0.49813066
   0.79542488  0.90865792  0.49870831
   0.28164239  0.22147223  0.09032358
   0.46274715  0.07805644  0.10350953
   0.60946212  0.40859388  0.10346764
   0.29490571  0.06669135  0.59843375
   0.46920973  0.42521654  0.58922087
   0.64557014  0.24217132  0.59046708
   0.27684680  0.07685760  0.90285253
   0.45939085  0.40075796  0.90855764
   0.60037812  0.20627177  0.90402029
   0.29066863  0.24823814  0.41765019
   0.46931615  0.07117347  0.41079514
   0.64342295  0.42470598  0.40254589
   0.77879215  0.23288324  0.09676056
   0.96602487  0.08460190  0.09984845
   0.10714458  0.40676945  0.08962292
   0.79542285  0.06557572  0.58625243
   0.96581762  0.43339591  0.59041003
   0.14253672  0.24285246  0.60506059
   0.78592750  0.07776578  0.91828308
   0.96233968  0.40317823  0.89985734
   0.09817936  0.21423677  0.91522550
   0.78986741  0.24884551  0.40599392
   0.97314004  0.07700171  0.41487251
   0.14461210  0.42567754  0.41114457
   0.78732425  0.72431613  0.09641914
   0.95868582  0.58268754  0.09073275
   0.11244581  0.90295530  0.09400695
   0.79258564  0.56794002  0.58727579
   0.96494122  0.90823956  0.59001692
   0.14595040  0.74455076  0.59385628
   0.78619891  0.57205448  0.91165980
   0.95706661  0.89403141  0.90950255
   0.09675460  0.72119859  0.91370116
   0.77791607  0.73993035  0.39583971
   0.97068115  0.56527887  0.40286681
   0.14235694  0.92235436  0.41170885
   0.26645024  0.71387323  0.08782269
   0.45004163  0.57158541  0.09920752
   0.59750170  0.89899182  0.10068550
   0.29774135  0.57603756  0.58579869
   0.46724119  0.92162137  0.58494560
   0.63946915  0.73743516  0.58598500
   0.28225377  0.57748857  0.90829913
   0.45319905  0.89917737  0.91252448
   0.60078855  0.72409831  0.91563555
   0.27440478  0.74105289  0.40217506
   0.46895440  0.56538259  0.40752985
   0.63319192  0.92057489  0.39926902
 
 position of ions in cartesian coordinates  (Angst):
   2.10648005  3.42943427  2.80350000
   3.04340029  5.10465717  8.41564000
   8.95780013  0.03312857  8.56512000
   2.70034000  2.18785000  8.29554000
   7.81859997  0.92137430  2.94472000
   2.58091000  6.53978287  2.73155000
  -0.53412005  3.46048287  8.33908000
   6.41099992  4.66692857  8.36552000
  -1.64530011  4.74805140  2.72455000
   4.99590021  2.17515140  2.86164000
   1.08219987  0.62182143  2.86171000
   6.15680011  0.88186573  8.37655000
  -3.12010029  7.81467430  8.35716000
  -0.07829971  6.57495857  8.31241000
   5.25441008  5.10537857  2.88761000
  -0.56640997  7.91594283  2.76529000
   5.75540000  3.42313000 11.11701941
   3.51920000  2.15079000  5.58207000
   0.84962100  3.44953000 11.16190000
   8.50181000  2.22086000  5.63986000
  -1.70999000  7.88501000  0.01454270
   5.94727000  6.48247000  5.46639000
   3.38105000  7.79080000  0.14766500
   0.91758900  6.52238000  5.54771000
   0.81138997  0.56488143 11.20058381
   3.34316000  2.05278000  0.00656463
   0.91282900  0.67843200  5.69316000
   6.00669000  3.51700000  5.54987000
   5.76940403  0.53053143  0.04579580
   8.31371000  2.08877000  0.07409959
   5.98354000  0.67362400  5.52547000
   0.90654300  3.58152000  5.63173000
   3.33979000  4.94339000  0.02786820
   5.84669000  6.43977000  0.04231850
   3.48112000  5.03198000  5.51052000
  -1.57592000  7.92604000  5.61364000
  -1.76903000  4.89782000 11.11830081
   0.74664000  6.30416000  0.08951710
  -1.56719000  5.03435000  5.58803000
   3.41744000  7.88416000  5.59451000
   1.71231000  1.92165000  1.01325000
   4.24524000  0.67727300  1.16117000
   4.05935000  3.54525000  1.16070000
   2.62057003  0.57866143  6.71323000
   2.57089000  3.68948000  6.60988000
   5.25481000  2.10125000  6.62386000
   2.38871000  0.66687100 10.12820000
   2.59504000  3.47726000 10.19220000
   4.98187000  1.78976000 10.14130000
   1.66866000  2.15389000  4.68520000
   4.34553503  0.61755143  4.60830000
   4.31889000  3.68505000  4.51576000
   6.63609000  2.02066000  1.08546000
   9.25479000  0.73406600  1.12010000
  -0.96423005  3.52942000  1.00539000
   7.64084003  0.56898143  6.57658000
   7.50543000  3.76045000  6.62322000
   0.21150600  2.10716000  6.78757000
   7.48464000  0.67475100 10.30130000
   7.62196000  3.49826000 10.09460000
  -0.08956005  1.85887000 10.26700000
   6.66709000  2.15916000  4.55444000
   9.36415003  0.66812143  4.65404000
  -0.68356300  3.69348000  4.61222000
   4.25974000  6.28468000  1.08163000
   6.68610000  5.05581000  1.01784000
  -3.39676005  7.83468000  1.05457000
   5.09582000  4.92785000  6.58806000
   5.11792000  7.88053000  6.61881000
  -2.26755000  6.46025000  6.66188000
   5.01122000  4.96355000 10.22700000
   5.11020000  7.75725000 10.20280000
  -2.64346005  6.25763000 10.24990000
   4.08726000  6.42016000  4.44053000
   6.89349000  4.90476000  4.51936000
  -3.19426000  8.00300000  4.61855000
  -0.90658300  6.19407000  0.98519500
   1.64561000  4.95948000  1.11291000
   1.48287000  7.80029000  1.12949000
   0.09741040  4.99811000  6.57149000
   0.06442730  7.99664000  6.56192000
   2.71266000  6.39851000  6.57358000
  -0.06502850  5.01070000 10.18930000
   0.03617220  7.80190000 10.23670000
   2.39193000  6.28279000 10.27160000
  -0.96304300  6.42990000  4.51160000
   1.86617000  4.90566000  4.57167000
   1.73233000  7.98756000  4.47900000
 


--------------------------------------------------------------------------------------------------------


 k-point  1 :   0.0000 0.0000 0.0000  plane waves:   17725
 k-point  2 :   0.5000-0.0000-0.0000  plane waves:   17736
 k-point  3 :   0.0000 0.5000 0.0000  plane waves:   17736
 k-point  4 :   0.5000 0.5000-0.0000  plane waves:   17736
 k-point  5 :   0.0000 0.0000 0.5000  plane waves:   17676
 k-point  6 :   0.5000-0.0000 0.5000  plane waves:   17700
 k-point  7 :   0.0000 0.5000 0.5000  plane waves:   17700
 k-point  8 :   0.5000 0.5000 0.5000  plane waves:   17700

 maximum and minimum number of plane-waves per node :     17736    17676

 maximum number of plane-waves:     17736
 maximum index in each direction: 
   IXMAX=   16   IYMAX=   16   IZMAX=   18
   IXMIN=  -16   IYMIN=  -16   IZMIN=  -18


 serial   3D FFT for wavefunctions
 parallel 3D FFT for charge:
    minimum data exchange during FFTs selected (reduces bandwidth)


 total amount of memory used by VASP MPI-rank0    88173. kBytes
=======================================================================

   base      :      30000. kBytes
   nonlr-proj:      13664. kBytes
   fftplans  :        992. kBytes
   grid      :      21513. kBytes
   one-center:       2737. kBytes
   wavefun   :      19267. kBytes
 
     INWAV:  cpu time    0.0000: real time    0.0001
 Broyden mixing: mesh for mixing (old mesh)
   NGX = 33   NGY = 33   NGZ = 37
  (NGX  =100   NGY  =100   NGZ  =112)
  gives a total of  40293 points

 initial charge density was supplied:
 charge density of overlapping atoms calculated
 number of electron     672.0000000 magnetization      48.0000000
 keeping initial charge density in first step


--------------------------------------------------------------------------------------------------------


 Maximum index for non-local projection operator         1547
 Maximum index for augmentation-charges          243 (set IRDMAX)


--------------------------------------------------------------------------------------------------------


 First call to EWALD:  gamma=   0.179
 Maximum number of real-space cells 3x 3x 2
 Maximum number of reciprocal cells 3x 3x 3

    FEWALD:  cpu time    0.0025: real time    0.0030


--------------------------------------- Iteration      1(   1)  ---------------------------------------


    POTLOK:  cpu time    0.2020: real time    0.2033
    SETDIJ:  cpu time    3.1219: real time    3.1245
    EDDIAG:  cpu time    3.7708: real time    3.7872
  RMM-DIIS:  cpu time    6.5929: real time    6.6054
    ORTHCH:  cpu time    1.1342: real time    1.1376
       DOS:  cpu time    0.0020: real time    0.0021
    --------------------------------------------
      LOOP:  cpu time   14.8238: real time   14.8602

 eigenvalue-minimisations  :  7168
 total energy-change (2. order) : 0.1880006E+04  (-0.3594478E+05)
 number of electron     672.0000000 magnetization      48.0000000
 augmentation part      672.0000000 magnetization      48.0000000

 Free energy of the ion-electron system (eV)
  ---------------------------------------------------
  alpha Z        PSCENC =      2652.81237852
  Ewald energy   TEWEN  =    -41765.66199159
  -Hartree energ DENC   =    -25845.89758369
  -exchange      EXHF   =         0.00000000
  -V(xc)+E(xc)   XCENC  =      3606.37284259
  PAW double counting   =     55594.23204139   -59034.67079123
  entropy T*S    EENTRO =        -0.06448459
  eigenvalues    EBANDS =     -7189.31465417
  atomic energy  EATOM  =     73862.19814772
  Solvation  Ediel_sol  =         0.00000000
  ---------------------------------------------------
  free energy    TOTEN  =      1880.00590496 eV

  energy without entropy =     1880.07038955  energy(sigma->0) =     1880.03814725


--------------------------------------------------------------------------------------------------------




--------------------------------------- Iteration      1(   2)  ---------------------------------------


    EDDIAG:  cpu time    3.7389: real time    3.7482
  RMM-DIIS:  cpu time    6.6208: real time    6.6313
    ORTHCH:  cpu time    1.1309: real time    1.1341
       DOS:  cpu time    0.0014: real time    0.0014
    --------------------------------------------
      LOOP:  cpu time   11.4920: real time   11.5150

 eigenvalue-minimisations  :  7168
 total energy-change (2. order) :-0.2729077E+04  (-0.8702468E+04)
 number of electron     672.0000000 magnetization      48.0000000
 augmentation part      672.0000000 magnetization      48.0000000

 Free energy of the ion-electron system (eV)
  ---------------------------------------------------
  alpha Z        PSCENC =      2652.81237852
  Ewald energy   TEWEN  =    -41765.66199159
  -Hartree energ DENC   =    -25845.89758369
  -exchange      EXHF   =         0.00000000
  -V(xc)+E(xc)   XCENC  =      3606.37284259
  PAW double counting   =     55594.23204139   -59034.67079123
  entropy T*S    EENTRO =        -0.04480104
  eigenvalues    EBANDS =     -9918.41174921
  atomic energy  EATOM  =     73862.19814772
  Solvation  Ediel_sol  =         0.00000000
  ---------------------------------------------------
  free energy    TOTEN  =      -849.07150654 eV

  energy without entropy =     -849.02670550  energy(sigma->0) =     -849.04910602


--------------------------------------------------------------------------------------------------------




--------------------------------------- Iteration      1(   3)  ---------------------------------------


    EDDIAG:  cpu time    3.7130: real time    3.7202
  RMM-DIIS:  cpu time    6.5384: real time    6.6475
    ORTHCH:  cpu time    1.1671: real time    1.1703
       DOS:  cpu time    0.0014: real time    0.0014
    --------------------------------------------
      LOOP:  cpu time   11.4199: real time   11.5394

 eigenvalue-minimisations  :  7168
 total energy-change (2. order) : 0.3167661E+03  (-0.1563538E+04)
 number of electron     672.0000000 magnetization      48.0000000
 augmentation part      672.0000000 magnetization      48.0000000

 Free energy of the ion-electron system (eV)
  ---------------------------------------------------
  alpha Z        PSCENC =      2652.81237852
  Ewald energy   TEWEN  =    -41765.66199159
  -Hartree energ DENC   =    -25845.89758369
  -exchange      EXHF   =         0.00000000
  -V(xc)+E(xc)   XCENC  =      3606.37284259
  PAW double counting   =     55594.23204139   -59034.67079123
  entropy T*S    EENTRO =        -0.03291594
  eigenvalues    EBANDS =     -9601.65752204
  atomic energy  EATOM  =     73862.19814772
  Solvation  Ediel_sol  =         0.00000000
  ---------------------------------------------------
  free energy    TOTEN  =      -532.30539426 eV

  energy without entropy =     -532.27247832  energy(sigma->0) =     -532.28893629


--------------------------------------------------------------------------------------------------------




--------------------------------------- Iteration      1(   4)  ---------------------------------------


    EDDIAG:  cpu time    3.7720: real time    3.7802
  RMM-DIIS:  cpu time    6.6266: real time    6.6385
    ORTHCH:  cpu time    1.1476: real time    1.1508
       DOS:  cpu time    0.0013: real time    0.0013
    --------------------------------------------
      LOOP:  cpu time   11.5476: real time   11.5708

 eigenvalue-minimisations  :  7168
 total energy-change (2. order) :-0.5244624E+03  (-0.5065738E+03)
 number of electron     672.0000000 magnetization      48.0000000
 augmentation part      672.0000000 magnetization      48.0000000

 Free energy of the ion-electron system (eV)
  ---------------------------------------------------
  alpha Z        PSCENC =      2652.81237852
  Ewald energy   TEWEN  =    -41765.66199159
  -Hartree energ DENC   =    -25845.89758369
  -exchange      EXHF   =         0.00000000
  -V(xc)+E(xc)   XCENC  =      3606.37284259
  PAW double counting   =     55594.23204139   -59034.67079123
  entropy T*S    EENTRO =        -0.00256831
  eigenvalues    EBANDS =    -10126.15023097
  atomic energy  EATOM  =     73862.19814772
  Solvation  Ediel_sol  =         0.00000000
  ---------------------------------------------------
  free energy    TOTEN  =     -1056.76775556 eV

  energy without entropy =    -1056.76518725  energy(sigma->0) =    -1056.76647141


--------------------------------------------------------------------------------------------------------




--------------------------------------- Iteration      1(   5)  ---------------------------------------


    EDDIAG:  cpu time    3.7231: real time    3.7304
  RMM-DIIS:  cpu time    6.6714: real time    6.6824
    ORTHCH:  cpu time    1.1439: real time    1.1472
       DOS:  cpu time    0.0011: real time    0.0011
    --------------------------------------------
      LOOP:  cpu time   11.5395: real time   11.5611

 eigenvalue-minimisations  :  7168
 total energy-change (2. order) :-0.1487255E+03  (-0.2128568E+03)
 number of electron     672.0000000 magnetization      48.0000000
 augmentation part      672.0000000 magnetization      48.0000000

 Free energy of the ion-electron system (eV)
  ---------------------------------------------------
  alpha Z        PSCENC =      2652.81237852
  Ewald energy   TEWEN  =    -41765.66199159
  -Hartree energ DENC   =    -25845.89758369
  -exchange      EXHF   =         0.00000000
  -V(xc)+E(xc)   XCENC  =      3606.37284259
  PAW double counting   =     55594.23204139   -59034.67079123
  entropy T*S    EENTRO =        -0.00000000
  eigenvalues    EBANDS =    -10274.87828541
  atomic energy  EATOM  =     73862.19814772
  Solvation  Ediel_sol  =         0.00000000
  ---------------------------------------------------
  free energy    TOTEN  =     -1205.49324169 eV

  energy without entropy =    -1205.49324169  energy(sigma->0) =    -1205.49324169


--------------------------------------------------------------------------------------------------------




--------------------------------------- Iteration      1(   6)  ---------------------------------------


    EDDIAG:  cpu time    3.7271: real time    3.7360
  RMM-DIIS:  cpu time    6.5965: real time    6.6259
    ORTHCH:  cpu time    1.1386: real time    1.1420
       DOS:  cpu time    0.0011: real time    0.0011
    --------------------------------------------
      LOOP:  cpu time   11.4633: real time   11.5050

 eigenvalue-minimisations  :  7168
 total energy-change (2. order) :-0.2190632E+02  (-0.1153661E+03)
 number of electron     672.0000000 magnetization      48.0000000
 augmentation part      672.0000000 magnetization      48.0000000

 Free energy of the ion-electron system (eV)
  ---------------------------------------------------
  alpha Z        PSCENC =      2652.81237852
  Ewald energy   TEWEN  =    -41765.66199159
  -Hartree energ DENC   =    -25845.89758369
  -exchange      EXHF   =         0.00000000
  -V(xc)+E(xc)   XCENC  =      3606.37284259
  PAW double counting   =     55594.23204139   -59034.67079123
  entropy T*S    EENTRO =        -0.00000000
  eigenvalues    EBANDS =    -10296.78460254
  atomic energy  EATOM  =     73862.19814772
  Solvation  Ediel_sol  =         0.00000000
  ---------------------------------------------------
  free energy    TOTEN  =     -1227.39955882 eV

  energy without entropy =    -1227.39955882  energy(sigma->0) =    -1227.39955882


--------------------------------------------------------------------------------------------------------




--------------------------------------- Iteration      1(   7)  ---------------------------------------


    EDDIAG:  cpu time    3.7405: real time    3.7469
  RMM-DIIS:  cpu time    6.5988: real time    6.6251
    ORTHCH:  cpu time    1.1424: real time    1.1458
       DOS:  cpu time    0.0012: real time    0.0012
    --------------------------------------------
      LOOP:  cpu time   11.4829: real time   11.5190

 eigenvalue-minimisations  :  7168
 total energy-change (2. order) :-0.6562132E+01  (-0.7595186E+02)
 number of electron     672.0000000 magnetization      48.0000000
 augmentation part      672.0000000 magnetization      48.0000000

 Free energy of the ion-electron system (eV)
  ---------------------------------------------------
  alpha Z        PSCENC =      2652.81237852
  Ewald energy   TEWEN  =    -41765.66199159
  -Hartree energ DENC   =    -25845.89758369
  -exchange      EXHF   =         0.00000000
  -V(xc)+E(xc)   XCENC  =      3606.37284259
  PAW double counting   =     55594.23204139   -59034.67079123
  entropy T*S    EENTRO =        -0.00000000
  eigenvalues    EBANDS =    -10303.34673466
  atomic energy  EATOM  =     73862.19814772
  Solvation  Ediel_sol  =         0.00000000
  ---------------------------------------------------
  free energy    TOTEN  =     -1233.96169094 eV

  energy without entropy =    -1233.96169094  energy(sigma->0) =    -1233.96169094


--------------------------------------------------------------------------------------------------------




--------------------------------------- Iteration      1(   8)  ---------------------------------------


    EDDIAG:  cpu time    3.7276: real time    3.7361
  RMM-DIIS:  cpu time    6.5961: real time    6.6076
    ORTHCH:  cpu time    1.1753: real time    1.1916
       DOS:  cpu time    0.0010: real time    0.0010
    --------------------------------------------
      LOOP:  cpu time   11.5000: real time   11.5364

 eigenvalue-minimisations  :  7168
 total energy-change (2. order) : 0.4578265E+01  (-0.5252854E+02)
 number of electron     672.0000000 magnetization      48.0000000
 augmentation part      672.0000000 magnetization      48.0000000

 Free energy of the ion-electron system (eV)
  ---------------------------------------------------
  alpha Z        PSCENC =      2652.81237852
  Ewald energy   TEWEN  =    -41765.66199159
  -Hartree energ DENC   =    -25845.89758369
  -exchange      EXHF   =         0.00000000
  -V(xc)+E(xc)   XCENC  =      3606.37284259
  PAW double counting   =     55594.23204139   -59034.67079123
  entropy T*S    EENTRO =        -0.00000000
  eigenvalues    EBANDS =    -10298.76847012
  atomic energy  EATOM  =     73862.19814772
  Solvation  Ediel_sol  =         0.00000000
  ---------------------------------------------------
  free energy    TOTEN  =     -1229.38342641 eV

  energy without entropy =    -1229.38342641  energy(sigma->0) =    -1229.38342641


--------------------------------------------------------------------------------------------------------




--------------------------------------- Iteration      1(   9)  ---------------------------------------


    EDDIAG:  cpu time    3.8196: real time    3.8224
  RMM-DIIS:  cpu time   13.8365: real time   13.8418
    ORTHCH:  cpu time    1.1403: real time    1.1426
       DOS:  cpu time    0.0012: real time    0.0012
    --------------------------------------------
      LOOP:  cpu time   18.7976: real time   18.8080

 eigenvalue-minimisations  : 20229
 total energy-change (2. order) : 0.1799286E+02  (-0.2348403E+02)
 number of electron     672.0000000 magnetization      48.0000000
 augmentation part      672.0000000 magnetization      48.0000000

 Free energy of the ion-electron system (eV)
  ---------------------------------------------------
  alpha Z        PSCENC =      2652.81237852
  Ewald energy   TEWEN  =    -41765.66199159
  -Hartree energ DENC   =    -25845.89758369
  -exchange      EXHF   =         0.00000000
  -V(xc)+E(xc)   XCENC  =      3606.37284259
  PAW double counting   =     55594.23204139   -59034.67079123
  entropy T*S    EENTRO =        -0.00000000
  eigenvalues    EBANDS =    -10280.77560574
  atomic energy  EATOM  =     73862.19814772
  Solvation  Ediel_sol  =         0.00000000
  ---------------------------------------------------
  free energy    TOTEN  =     -1211.39056202 eV

  energy without entropy =    -1211.39056202  energy(sigma->0) =    -1211.39056202


--------------------------------------------------------------------------------------------------------




--------------------------------------- Iteration      1(  10)  ---------------------------------------


    EDDIAG:  cpu time    3.7217: real time    3.7246
  RMM-DIIS:  cpu time   15.7230: real time   15.7692
    ORTHCH:  cpu time    1.1440: real time    1.1468
       DOS:  cpu time    0.0014: real time    0.0014
    --------------------------------------------
      LOOP:  cpu time   20.5901: real time   20.6419

 eigenvalue-minimisations  : 20312
 total energy-change (2. order) :-0.3032132E+01  (-0.1031235E+01)
 number of electron     672.0000000 magnetization      48.0000000
 augmentation part      672.0000000 magnetization      48.0000000

 Free energy of the ion-electron system (eV)
  ---------------------------------------------------
  alpha Z        PSCENC =      2652.81237852
  Ewald energy   TEWEN  =    -41765.66199159
  -Hartree energ DENC   =    -25845.89758369
  -exchange      EXHF   =         0.00000000
  -V(xc)+E(xc)   XCENC  =      3606.37284259
  PAW double counting   =     55594.23204139   -59034.67079123
  entropy T*S    EENTRO =        -0.00000132
  eigenvalues    EBANDS =    -10283.80773640
  atomic energy  EATOM  =     73862.19814772
  Solvation  Ediel_sol  =         0.00000000
  ---------------------------------------------------
  free energy    TOTEN  =     -1214.42269400 eV

  energy without entropy =    -1214.42269268  energy(sigma->0) =    -1214.42269334


--------------------------------------------------------------------------------------------------------




--------------------------------------- Iteration      1(  11)  ---------------------------------------


    EDDIAG:  cpu time    3.7982: real time    3.8025
  RMM-DIIS:  cpu time   15.2756: real time   15.2810
    ORTHCH:  cpu time    1.2115: real time    1.2266
       DOS:  cpu time    0.0011: real time    0.0011
    --------------------------------------------
      LOOP:  cpu time   20.2864: real time   20.3112

 eigenvalue-minimisations  : 21677
 total energy-change (2. order) : 0.1029104E+00  (-0.9619516E-01)
 number of electron     672.0000000 magnetization      48.0000000
 augmentation part      672.0000000 magnetization      48.0000000

 Free energy of the ion-electron system (eV)
  ---------------------------------------------------
  alpha Z        PSCENC =      2652.81237852
  Ewald energy   TEWEN  =    -41765.66199159
  -Hartree energ DENC   =    -25845.89758369
  -exchange      EXHF   =         0.00000000
  -V(xc)+E(xc)   XCENC  =      3606.37284259
  PAW double counting   =     55594.23204139   -59034.67079123
  entropy T*S    EENTRO =        -0.00000134
  eigenvalues    EBANDS =    -10283.70482593
  atomic energy  EATOM  =     73862.19814772
  Solvation  Ediel_sol  =         0.00000000
  ---------------------------------------------------
  free energy    TOTEN  =     -1214.31978355 eV

  energy without entropy =    -1214.31978222  energy(sigma->0) =    -1214.31978288


--------------------------------------------------------------------------------------------------------




--------------------------------------- Iteration      1(  12)  ---------------------------------------


    EDDIAG:  cpu time    3.7882: real time    3.7914
  RMM-DIIS:  cpu time   16.0376: real time   16.0438
    ORTHCH:  cpu time    1.1490: real time    1.1513
       DOS:  cpu time    0.0013: real time    0.0013
    CHARGE:  cpu time    1.3470: real time    1.3476
    MIXING:  cpu time    0.0013: real time    0.0015
    --------------------------------------------
      LOOP:  cpu time   22.3244: real time   22.3369

 eigenvalue-minimisations  : 22786
 total energy-change (2. order) : 0.7112329E-02  (-0.6709576E-02)
 number of electron     671.9999607 magnetization      47.9999965
 augmentation part      239.1117071 magnetization      29.0497715

 Broyden mixing:
  rms(total) = 0.12633E+02    rms(broyden)= 0.12624E+02
  rms(prec ) = 0.14470E+02
  weight for this iteration     100.00

 Free energy of the ion-electron system (eV)
  ---------------------------------------------------
  alpha Z        PSCENC =      2652.81237852
  Ewald energy   TEWEN  =    -41765.66199159
  -Hartree energ DENC   =    -25845.89758369
  -exchange      EXHF   =         0.00000000
  -V(xc)+E(xc)   XCENC  =      3606.37284259
  PAW double counting   =     55594.23204139   -59034.67079123
  entropy T*S    EENTRO =        -0.00000122
  eigenvalues    EBANDS =    -10283.69771372
  atomic energy  EATOM  =     73862.19814772
  Solvation  Ediel_sol  =         0.00000000
  ---------------------------------------------------
  free energy    TOTEN  =     -1214.31267122 eV

  energy without entropy =    -1214.31267000  energy(sigma->0) =    -1214.31267061


--------------------------------------------------------------------------------------------------------




--------------------------------------- Iteration      1(  13)  ---------------------------------------


    POTLOK:  cpu time    0.1952: real time    0.1960
    SETDIJ:  cpu time    3.2941: real time    3.2947
    EDDIAG:  cpu time    3.7086: real time    3.7125
  RMM-DIIS:  cpu time   12.9807: real time   13.0143
    ORTHCH:  cpu time    1.1575: real time    1.1596
       DOS:  cpu time    0.0016: real time    0.0016
    CHARGE:  cpu time    1.3480: real time    1.3485
    MIXING:  cpu time    0.0012: real time    0.0013
    --------------------------------------------
      LOOP:  cpu time   22.6870: real time   22.7286

 eigenvalue-minimisations  : 17305
 total energy-change (2. order) : 0.2249167E+03  (-0.1376911E+03)
 number of electron     671.9999533 magnetization      47.9999963
 augmentation part      268.9871893 magnetization      26.4603231

 Broyden mixing:
  rms(total) = 0.14002E+02    rms(broyden)= 0.13999E+02
  rms(prec ) = 0.15747E+02
  weight for this iteration     100.00

 eigenvalues of (default mixing * dielectric matrix)
  average eigenvalue GAMMA=   0.3192
  0.3192

 Free energy of the ion-electron system (eV)
  ---------------------------------------------------
  alpha Z        PSCENC =      2652.81237852
  Ewald energy   TEWEN  =    -41765.66199159
  -Hartree energ DENC   =    -25181.06690783
  -exchange      EXHF   =         0.00000000
  -V(xc)+E(xc)   XCENC  =      3696.89233812
  PAW double counting   =     59945.80338162   -63371.09544616
  entropy T*S    EENTRO =        -0.07302145
  eigenvalues    EBANDS =    -10829.20487487
  atomic energy  EATOM  =     73862.19814772
  Solvation  Ediel_sol  =         0.00000000
  ---------------------------------------------------
  free energy    TOTEN  =      -989.39599591 eV

  energy without entropy =     -989.32297446  energy(sigma->0) =     -989.35948519


--------------------------------------------------------------------------------------------------------




--------------------------------------- Iteration      1(  14)  ---------------------------------------


    POTLOK:  cpu time    0.2006: real time    0.2022
    SETDIJ:  cpu time    3.2868: real time    3.2872
    EDDIAG:  cpu time    3.7067: real time    3.7108
  RMM-DIIS:  cpu time   13.5612: real time   13.6347
    ORTHCH:  cpu time    1.1808: real time    1.1831
       DOS:  cpu time    0.0010: real time    0.0010
    CHARGE:  cpu time    1.3552: real time    1.3556
    MIXING:  cpu time    0.0009: real time    0.0009
    --------------------------------------------
      LOOP:  cpu time   23.2933: real time   23.3754

 eigenvalue-minimisations  : 17740
 total energy-change (2. order) : 0.7322120E+02  (-0.1878472E+02)
 number of electron     671.9999579 magnetization      47.9999939
 augmentation part      246.7143093 magnetization      32.1794050

 Broyden mixing:
  rms(total) = 0.52969E+01    rms(broyden)= 0.52927E+01
  rms(prec ) = 0.57392E+01
  weight for this iteration     100.00

 eigenvalues of (default mixing * dielectric matrix)
  average eigenvalue GAMMA=   0.7308
  1.1015  0.3600

 Free energy of the ion-electron system (eV)
  ---------------------------------------------------
  alpha Z        PSCENC =      2652.81237852
  Ewald energy   TEWEN  =    -41765.66199159
  -Hartree energ DENC   =    -25789.56704185
  -exchange      EXHF   =         0.00000000
  -V(xc)+E(xc)   XCENC  =      3674.76304260
  PAW double counting   =     63374.29409667   -66856.49189688
  entropy T*S    EENTRO =        -0.00000000
  eigenvalues    EBANDS =    -10068.52153180
  atomic energy  EATOM  =     73862.19814772
  Solvation  Ediel_sol  =         0.00000000
  ---------------------------------------------------
  free energy    TOTEN  =      -916.17479660 eV

  energy without entropy =     -916.17479660  energy(sigma->0) =     -916.17479660


--------------------------------------------------------------------------------------------------------




--------------------------------------- Iteration      1(  15)  ---------------------------------------


    POTLOK:  cpu time    0.2025: real time    0.2037
    SETDIJ:  cpu time    3.2944: real time    3.2960
    EDDIAG:  cpu time    3.7239: real time    3.7260
  RMM-DIIS:  cpu time   13.6268: real time   13.6325
    ORTHCH:  cpu time    1.1718: real time    1.1849
       DOS:  cpu time    0.0011: real time    0.0011
    CHARGE:  cpu time    1.3543: real time    1.3548
    MIXING:  cpu time    0.0006: real time    0.0006
    --------------------------------------------
      LOOP:  cpu time   23.3755: real time   23.3997

 eigenvalue-minimisations  : 18381
 total energy-change (2. order) : 0.1395215E+02  (-0.2542632E+01)
 number of electron     671.9999578 magnetization      47.9999921
 augmentation part      249.6066097 magnetization      33.7755267

 Broyden mixing:
  rms(total) = 0.23530E+01    rms(broyden)= 0.23525E+01
  rms(prec ) = 0.24562E+01
  weight for this iteration     100.00

 eigenvalues of (default mixing * dielectric matrix)
  average eigenvalue GAMMA=   0.8889
  1.5776  0.3895  0.6995

 Free energy of the ion-electron system (eV)
  ---------------------------------------------------
  alpha Z        PSCENC =      2652.81237852
  Ewald energy   TEWEN  =    -41765.66199159
  -Hartree energ DENC   =    -25717.23936158
  -exchange      EXHF   =         0.00000000
  -V(xc)+E(xc)   XCENC  =      3706.91278648
  PAW double counting   =     67466.98104391   -70989.66321455
  entropy T*S    EENTRO =        -0.00000000
  eigenvalues    EBANDS =    -10118.56243593
  atomic energy  EATOM  =     73862.19814772
  Solvation  Ediel_sol  =         0.00000000
  ---------------------------------------------------
  free energy    TOTEN  =      -902.22264701 eV

  energy without entropy =     -902.22264701  energy(sigma->0) =     -902.22264701


--------------------------------------------------------------------------------------------------------




--------------------------------------- Iteration      1(  16)  ---------------------------------------


    POTLOK:  cpu time    0.2044: real time    0.2045
    SETDIJ:  cpu time    3.3368: real time    3.3373
    EDDIAG:  cpu time    3.7168: real time    3.7187
  RMM-DIIS:  cpu time   13.3190: real time   13.3253
    ORTHCH:  cpu time    1.1449: real time    1.1470
       DOS:  cpu time    0.0015: real time    0.0015
    CHARGE:  cpu time    1.3573: real time    1.3578
    MIXING:  cpu time    0.0011: real time    0.0011
    --------------------------------------------
      LOOP:  cpu time   23.0818: real time   23.0932

 eigenvalue-minimisations  : 17733
 total energy-change (2. order) :-0.9450408E+00  (-0.7414063E+00)
 number of electron     671.9999576 magnetization      47.9999913
 augmentation part      250.9201802 magnetization      33.8898673

 Broyden mixing:
  rms(total) = 0.15731E+01    rms(broyden)= 0.15726E+01
  rms(prec ) = 0.16464E+01
  weight for this iteration     100.00

 eigenvalues of (default mixing * dielectric matrix)
  average eigenvalue GAMMA=   0.9571
  2.0668  0.8782  0.3936  0.4897

 Free energy of the ion-electron system (eV)
  ---------------------------------------------------
  alpha Z        PSCENC =      2652.81237852
  Ewald energy   TEWEN  =    -41765.66199159
  -Hartree energ DENC   =    -25672.13798030
  -exchange      EXHF   =         0.00000000
  -V(xc)+E(xc)   XCENC  =      3707.90698204
  PAW double counting   =     70197.36624296   -73747.53790822
  entropy T*S    EENTRO =        -0.00000000
  eigenvalues    EBANDS =    -10138.11355893
  atomic energy  EATOM  =     73862.19814772
  Solvation  Ediel_sol  =         0.00000000
  ---------------------------------------------------
  free energy    TOTEN  =      -903.16768780 eV

  energy without entropy =     -903.16768780  energy(sigma->0) =     -903.16768780


--------------------------------------------------------------------------------------------------------




--------------------------------------- Iteration      1(  17)  ---------------------------------------


    POTLOK:  cpu time    0.2049: real time    0.2056
    SETDIJ:  cpu time    3.3398: real time    3.3414
    EDDIAG:  cpu time    3.7905: real time    3.8052
  RMM-DIIS:  cpu time   13.5728: real time   13.5786
    ORTHCH:  cpu time    1.1493: real time    1.1515
       DOS:  cpu time    0.0012: real time    0.0012
    CHARGE:  cpu time    1.3551: real time    1.3556
    MIXING:  cpu time    0.0017: real time    0.0016
    --------------------------------------------
      LOOP:  cpu time   23.4153: real time   23.4406

 eigenvalue-minimisations  : 18602
 total energy-change (2. order) : 0.4623206E-02  (-0.1163665E+00)
 number of electron     671.9999578 magnetization      47.9999909
 augmentation part      251.1215639 magnetization      33.8923067

 Broyden mixing:
  rms(total) = 0.80410E+00    rms(broyden)= 0.80383E+00
  rms(prec ) = 0.90859E+00
  weight for this iteration     100.00

 eigenvalues of (default mixing * dielectric matrix)
  average eigenvalue GAMMA=   0.9731
  2.2067  1.0795  0.3799  0.6581  0.5410

 Free energy of the ion-electron system (eV)
  ---------------------------------------------------
  alpha Z        PSCENC =      2652.81237852
  Ewald energy   TEWEN  =    -41765.66199159
  -Hartree energ DENC   =    -25656.37589256
  -exchange      EXHF   =         0.00000000
  -V(xc)+E(xc)   XCENC  =      3705.98620056
  PAW double counting   =     71298.56609876   -74859.37297412
  entropy T*S    EENTRO =        -0.00000000
  eigenvalues    EBANDS =    -10141.31503189
  atomic energy  EATOM  =     73862.19814772
  Solvation  Ediel_sol  =         0.00000000
  ---------------------------------------------------
  free energy    TOTEN  =      -903.16306459 eV

  energy without entropy =     -903.16306459  energy(sigma->0) =     -903.16306459


--------------------------------------------------------------------------------------------------------




--------------------------------------- Iteration      1(  18)  ---------------------------------------


    POTLOK:  cpu time    0.1951: real time    0.1951
    SETDIJ:  cpu time    3.3142: real time    3.3147
    EDDIAG:  cpu time    3.7141: real time    3.7161
  RMM-DIIS:  cpu time   13.3891: real time   13.4148
    ORTHCH:  cpu time    1.1584: real time    1.1606
       DOS:  cpu time    0.0012: real time    0.0012
    CHARGE:  cpu time    1.3544: real time    1.3549
    MIXING:  cpu time    0.0009: real time    0.0009
    --------------------------------------------
      LOOP:  cpu time   23.1275: real time   23.1584

 eigenvalue-minimisations  : 17721
 total energy-change (2. order) : 0.4162009E+00  (-0.6930455E-01)
 number of electron     671.9999578 magnetization      47.9999907
 augmentation part      250.6555190 magnetization      33.8730344

 Broyden mixing:
  rms(total) = 0.32459E+00    rms(broyden)= 0.32442E+00
  rms(prec ) = 0.34347E+00
  weight for this iteration     100.00

[...]
   4      -0.664    -0.644     1.308     0.106     0.292    -0.060
   5      -0.610    -0.770     1.380     0.020    -0.110    -0.449
   6      -0.778    -0.719     1.496    -0.107     0.451     0.274
   7      -0.737    -0.728     1.464    -0.128    -0.426    -0.243
   8      -0.626    -0.891     1.517     0.030     0.001     0.456
   9      -0.973    -0.904     1.877     0.062    -0.015     0.010
  10      -0.803    -0.672     1.475    -0.073     0.527     0.246
  11      -0.902    -0.933     1.836    -0.010     0.004     0.046
  12      -0.885    -0.946     1.831     0.049    -0.022     0.013
  13      -0.807    -0.732     1.539    -0.138    -0.434    -0.369
  14      -0.725    -0.597     1.322     0.143     0.345    -0.150
  15      -0.631    -0.880     1.511    -0.010    -0.055    -0.497
  16      -0.729    -0.749     1.478     0.166    -0.328     0.209
  17       1.370     1.474    -2.844    -0.045    -0.060    -0.023
  18       1.536     1.381    -2.916    -0.111    -0.082    -0.093
  19       1.529     1.413    -2.941    -0.027    -0.043     0.062
  20       1.361     1.601    -2.962     0.031     0.108    -0.110
  21       1.600     1.372    -2.971     0.059     0.007     0.023
  22       1.324     1.604    -2.928     0.055    -0.000     0.097
  23       1.398     1.463    -2.861    -0.070    -0.101    -0.032
  24       1.389     1.614    -3.003     0.035    -0.059    -0.066
  25      -0.001    -0.400     0.401     1.191    -0.675    -0.338
  26       0.036     1.100    -1.136     1.065     0.060     0.600
  27      -0.539    -1.441     1.981     0.169    -0.569    -0.437
  28       0.873    -0.280    -0.593    -1.031    -0.342    -1.443
  29       0.800    -0.248    -0.552     0.206     0.168     0.305
  30      -0.196    -0.911     1.107    -0.327    -0.737    -0.536
  31      -0.389    -1.160     1.550    -0.300     0.366    -0.905
  32      -1.179    -0.922     2.101     1.197     0.262    -0.557
  33      -1.400     0.300     1.100     0.722    -1.320     0.497
  34      -0.161    -0.635     0.796     1.100     0.143     0.114
  35       0.013    -0.070     0.057     0.574     0.624     0.381
  36      -0.219    -0.405     0.624    -0.733    -0.505    -0.325
  37       0.196    -0.759     0.563     1.409    -0.308    -1.882
  38      -1.495     0.180     1.315    -0.318    -1.124     0.171
  39       0.391    -0.274    -0.116    -0.475    -0.392    -0.485
  40       1.111    -3.220     2.109     0.018    -0.262    -0.723
  41      -3.789     3.651     0.138    -5.293     3.009    -2.773
  42      -1.277     2.965    -1.687     5.704     2.555     2.974
  43       6.593    -5.773    -0.820    -1.342    -4.496    -0.583
  44      -3.807     2.607     1.199     4.438    -1.523    -4.631
  45      -3.725     3.129     0.596    -3.635    -2.000     2.878
  46       5.062    -5.585     0.523    -0.269     5.811    -0.725
  47      -3.259     2.196     1.063    -5.333     2.109    -4.637
  48       4.833    -6.177     1.345     1.358    -4.559     1.067
  49      -1.495     2.170    -0.675     6.951     2.216     3.523
  50       3.586    -4.965     1.379     0.497     5.043     0.266
  51      -4.809     2.847     1.962    -3.531    -2.851     3.350
  52      -1.785     0.438     1.347     5.058    -1.753    -3.202
  53      -2.886     1.211     1.675    -4.815     3.002    -4.147
  54      -1.569     1.377     0.192     5.627     2.607     3.344
  55       5.364    -6.353     0.989    -1.812    -6.083    -0.395
  56      -1.461    -0.436     1.897     5.740    -1.840    -4.160
  57      -2.608     3.285    -0.677    -6.200    -2.576     1.030
  58       5.625    -5.469    -0.156     0.483     3.542    -0.233
  59      -3.379     1.569     1.810    -4.301     1.513    -3.659
  60       6.710    -6.367    -0.344    -0.050    -4.048    -0.066
  61      -2.323     1.448     0.874     5.984     2.831     3.751
  62       6.219    -7.038     0.819    -0.681     4.552    -0.691
  63      -3.202     1.621     1.581    -3.975    -3.329     3.686
  64      -3.809     1.744     2.065     5.800    -3.586    -4.641
  65      -1.607     0.952     0.655    -5.380    -0.414    -3.368
  66      -0.125     0.586    -0.460     6.037     4.515     3.537
  67       4.898    -5.732     0.834    -1.262    -5.537    -0.115
  68      -1.916     2.292    -0.376     5.625    -3.042    -3.439
  69      -3.834     0.297     3.537    -3.639    -3.298     4.917
  70       6.888    -5.867    -1.021    -0.944     4.554     0.747
  71      -4.166     1.900     2.266    -2.178     3.958    -3.612
  72       4.844    -5.740     0.896     0.304    -4.499    -0.003
  73      -1.601     0.024     1.577     6.221     3.802     2.464
  74       6.399    -5.560    -0.839    -0.364     3.762     0.243
  75      -1.389     1.231     0.159    -5.097    -2.902     4.094
  76      -3.296     2.273     1.023     5.027    -2.225    -4.699
  77      -6.238     4.437     1.801    -3.649     2.599    -4.108
  78      -4.227     3.141     1.087     4.147     2.467     5.247
  79       3.770    -5.845     2.075    -0.226    -3.934     0.655
  80      -2.940     0.990     1.950     4.352    -2.190    -4.663
  81      -3.610     2.753     0.856    -3.924    -1.308     4.521
  82       6.144    -6.832     0.688    -0.435     5.825     1.322
  83      -3.198     2.633     0.565    -3.938     0.022    -5.377
  84       5.364    -5.653     0.289    -1.007    -5.091    -0.467
  85      -3.113     1.476     1.637     5.867     1.370     4.744
  86       7.387    -6.716    -0.671     0.884     3.347     0.456
  87      -3.992     2.631     1.361    -5.056    -1.408     4.514
  88      -1.951     0.764     1.187     4.356    -2.809    -4.207
 ---------------------------------------------------------------------


 Total hyperfine coupling parameters after diagonalization (MHz)
 (convention: |A_zz| > |A_xx| > |A_yy|)
 ----------------------------------------------------------------------
  ion      A_xx      A_yy      A_zz     asymmetry (A_yy - A_xx)/ A_zz 
 ----------------------------------------------------------------------
   1       2.138     1.749     4.194      -0.093
   2       0.302     0.209     2.967      -0.031
   3       2.032     1.714     4.060      -0.078
   4       1.255     1.020     3.164      -0.074
   5       1.181     0.936     3.273      -0.075
   6       2.277     1.944     4.525      -0.074
   7       1.662     1.317     3.835      -0.090
   8       2.097     1.744     4.321      -0.082
   9       0.970     0.828     3.715      -0.038
  10       2.072     1.738     4.325      -0.077
  11       0.163     0.126     2.899      -0.013
  12       0.621     0.505     3.309      -0.035
  13       2.491     2.081     4.784      -0.086
  14       1.843     1.467     3.735      -0.101
  15       2.069     1.720     4.312      -0.081
  16       1.733     1.345     3.850      -0.101
  17      12.357     8.157    12.494      -0.336
  18      14.564    10.318    14.831      -0.286
  19      15.411    11.061    15.539      -0.280
  20      15.033    10.705    15.280      -0.283
  21      14.771    10.442    15.028      -0.288
  22      14.175     9.931    14.477      -0.293
  23      14.060     9.841    14.212      -0.297
  24      15.329    10.940    15.565      -0.282
  25      96.891    95.537    98.465      -0.014
  26      99.475    98.673   101.860      -0.008
  27      97.568    96.717   100.386      -0.008
  28      97.122    94.360    98.160      -0.028
  29      92.120    91.513    93.129      -0.007
  30      97.158    96.047    98.843      -0.011
  31      98.433    97.407   100.781      -0.010
  32      97.568    95.114    99.643      -0.025
  33      98.647    95.824    99.775      -0.028
  34      95.941    93.843    96.313      -0.022
  35      92.423    92.142    93.878      -0.003
  36      97.684    96.081    98.173      -0.016
  37      98.463    95.949   100.883      -0.025
  38      96.361    94.280    97.953      -0.021
  39      97.072    95.810    97.447      -0.013
  40     102.907    98.540   104.120      -0.042
  41       5.203    -0.278    14.844      -0.369
  42       3.805     1.620    15.363      -0.142
  43       5.480     1.846    16.829      -0.216
  44       4.627     0.469    14.857      -0.280
  45       2.646    -1.485    10.566      -0.391
  46       4.480     2.137    16.896      -0.139
  47       3.103    -1.298    14.075      -0.313
  48       5.810     0.310    15.043      -0.366
  49       7.406     2.897    19.037      -0.237
  50       3.763     1.445    14.108      -0.164
  51       5.108    -0.413    13.538      -0.408
  52       5.938     0.958    13.740      -0.362
  53       2.669    -1.160    13.247      -0.289
  54       2.365    -1.442    12.489      -0.305
  55       7.615     3.442    20.138      -0.207
  56       7.577     1.537    16.492      -0.366
  57       8.128     1.995    16.779      -0.366
  58       6.637     2.901    15.741      -0.237
  59       4.408    -0.390    12.543      -0.382
  60       7.783     3.599    18.519      -0.226
  61       5.647     0.893    16.276      -0.292
  62       8.710     3.363    19.336      -0.276
  63       5.221     1.577    14.998      -0.243
  64       7.318     2.112    19.430      -0.268
  65       7.141     0.037    13.044      -0.545
  66       3.000     0.390    15.970      -0.163
  67       7.224     4.015    18.862      -0.170
  68       4.446     1.190    15.616      -0.209
  69       3.310     0.269    15.164      -0.201
  70       4.618     1.102    16.338      -0.215
  71       3.815    -0.964    12.489      -0.383
  72       7.073     3.357    16.897      -0.220
  73       7.333     1.134    16.741      -0.370
  74       6.176     2.968    16.579      -0.194
  75       3.050     0.616    14.254      -0.171
  76       4.604     0.724    15.749      -0.246
  77       6.765     0.385    16.730      -0.381
  78       3.335     0.314    15.571      -0.194
  79       5.149     0.322    13.196      -0.366
  80       5.330     1.720    15.642      -0.231
  81       4.481     1.018    14.398      -0.241
  82       6.228     1.550    18.671      -0.251
  83       4.868     0.069    14.395      -0.333
  84       4.095     0.723    15.222      -0.222
  85       7.178     0.971    17.088      -0.363
  86       6.744     1.838    17.279      -0.284
  87       3.552    -1.720    13.565      -0.389
  88       5.855     3.334    16.325      -0.154
 ---------------------------------------------------------------------



--------------------------------------------------------------------------------------------------------


 stress matrix after NEB project (eV)
    -48.72372     -3.91680     -3.86236
     -3.91590    -40.26848     -3.60154
     -3.83515     -3.57379    -56.35249
  FORCES: max atom, RMS     3.098210    1.113798
  FORCE total and by dimension   10.448355    2.395308
  Stress total and by dimension   85.189192   56.352486
     LOOP+:  cpu time  611.7706: real time  612.9158
    4ORBIT:  cpu time    0.0000: real time    0.0000
 


 total charge     
 
# of ion       s       p       d       tot
------------------------------------------
    1        0.051   5.992   0.000   6.043
    2        0.050   5.993   0.000   6.043
    3        0.047   5.989   0.000   6.036
    4        0.052   5.995   0.000   6.047
    5        0.049   5.991   0.000   6.040
    6        0.053   5.995   0.000   6.049
    7        0.047   5.989   0.000   6.037
    8        0.051   5.993   0.000   6.044
    9        0.051   5.997   0.000   6.048
   10        0.053   5.995   0.000   6.048
   11        0.048   5.992   0.000   6.040
   12        0.049   5.992   0.000   6.041
   13        0.048   5.990   0.000   6.038
   14        0.049   5.991   0.000   6.040
   15        0.053   5.995   0.000   6.048
   16        0.051   5.995   0.000   6.047
   17        0.150   6.128   0.083   6.360
   18        0.151   6.130   0.085   6.366
   19        0.148   6.128   0.084   6.361
   20        0.149   6.128   0.084   6.360
   21        0.150   6.130   0.085   6.366
   22        0.149   6.128   0.084   6.360
   23        0.147   6.123   0.080   6.349
   24        0.151   6.132   0.087   6.369
   25        0.383   6.473   4.850  11.706
   26        0.351   6.401   4.784  11.535
   27        0.370   6.444   4.812  11.626
   28        0.385   6.473   4.856  11.713
   29        0.379   6.462   4.834  11.675
   30        0.369   6.443   4.809  11.620
   31        0.382   6.469   4.848  11.699
   32        0.377   6.460   4.828  11.666
   33        0.363   6.427   4.804  11.593
   34        0.395   6.499   4.873  11.767
   35        0.393   6.491   4.862  11.746
   36        0.377   6.460   4.828  11.665
   37        0.393   6.493   4.873  11.759
   38        0.372   6.447   4.815  11.634
   39        0.392   6.492   4.870  11.755
   40        0.359   6.421   4.801  11.581
   41        1.599   3.507   0.000   5.106
   42        1.599   3.502   0.000   5.101
   43        1.598   3.472   0.000   5.070
   44        1.598   3.498   0.000   5.096
   45        1.596   3.514   0.000   5.110
   46        1.601   3.490   0.000   5.091
   47        1.599   3.489   0.000   5.087
   48        1.598   3.514   0.000   5.112
   49        1.601   3.494   0.000   5.095
   50        1.598   3.524   0.000   5.122
   51        1.598   3.536   0.000   5.134
   52        1.595   3.532   0.000   5.126
   53        1.596   3.482   0.000   5.078
   54        1.597   3.490   0.000   5.087
   55        1.604   3.500   0.000   5.103
   56        1.599   3.514   0.000   5.112
   57        1.601   3.528   0.000   5.128
   58        1.597   3.489   0.000   5.086
   59        1.595   3.508   0.000   5.103
   60        1.599   3.500   0.000   5.099
   61        1.601   3.518   0.000   5.119
   62        1.601   3.538   0.000   5.139
   63        1.599   3.511   0.000   5.110
   64        1.603   3.519   0.000   5.122
   65        1.598   3.527   0.000   5.125
   66        1.600   3.498   0.000   5.098
   67        1.603   3.501   0.000   5.104
   68        1.599   3.487   0.000   5.086
   69        1.600   3.492   0.000   5.092
   70        1.598   3.490   0.000   5.089
   71        1.598   3.505   0.000   5.103
   72        1.600   3.530   0.000   5.130
   73        1.601   3.537   0.000   5.138
   74        1.598   3.513   0.000   5.111
   75        1.599   3.516   0.000   5.115
   76        1.602   3.510   0.000   5.111
   77        1.601   3.512   0.000   5.113
   78        1.599   3.485   0.000   5.083
   79        1.595   3.498   0.000   5.092
   80        1.598   3.531   0.000   5.129
   81        1.599   3.529   0.000   5.128
   82        1.602   3.500   0.000   5.101
   83        1.597   3.512   0.000   5.108
   84        1.599   3.506   0.000   5.106
   85        1.600   3.488   0.000   5.087
   86        1.600   3.498   0.000   5.098
   87        1.600   3.504   0.000   5.104
   88        1.598   3.506   0.000   5.105
--------------------------------------------------
tot         84.791 416.607  78.017 579.416
 


 magnetization (x)
 
# of ion       s       p       d       tot
------------------------------------------
    1        0.002   0.000   0.000   0.002
    2        0.001   0.000   0.000   0.001
    3        0.002   0.001   0.000   0.002
    4        0.001   0.000   0.000   0.002
    5        0.001  -0.000   0.000   0.001
    6        0.002   0.000   0.000   0.002
    7        0.002  -0.000   0.000   0.002
    8        0.002   0.000   0.000   0.002
    9        0.001   0.001   0.000   0.002
   10        0.002   0.000   0.000   0.002
   11        0.001   0.000   0.000   0.001
   12        0.001   0.001   0.000   0.002
   13        0.002   0.000   0.000   0.003
   14        0.002   0.000   0.000   0.002
   15        0.002   0.000   0.000   0.002
   16        0.002   0.000   0.000   0.002
   17        0.006   0.002   0.001   0.009
   18        0.007   0.003   0.001   0.011
   19        0.008   0.003   0.001   0.012
   20        0.008   0.002   0.001   0.011
   21        0.008   0.002   0.001   0.011
   22        0.007   0.002   0.001   0.011
   23        0.007   0.002   0.001   0.011
   24        0.008   0.003   0.001   0.012
   25        0.016   0.031   2.737   2.783
   26        0.016   0.029   2.812   2.857
   27        0.016   0.030   2.776   2.821
   28        0.015   0.031   2.735   2.781
   29        0.014   0.029   2.747   2.790
   30        0.016   0.030   2.773   2.819
   31        0.016   0.031   2.750   2.797
   32        0.016   0.030   2.760   2.806
   33        0.015   0.029   2.788   2.832
   34        0.015   0.031   2.713   2.759
   35        0.014   0.031   2.719   2.764
   36        0.016   0.031   2.749   2.796
   37        0.016   0.032   2.715   2.763
   38        0.015   0.030   2.766   2.810
   39        0.016   0.032   2.713   2.761
   40        0.016   0.029   2.793   2.839
   41        0.002   0.022   0.000   0.024
   42        0.002   0.024   0.000   0.026
   43        0.002   0.022   0.000   0.024
   44        0.002   0.028   0.000   0.030
   45        0.001   0.013   0.000   0.014
   46        0.002   0.030   0.000   0.032
   47        0.002   0.011   0.000   0.012
   48        0.002   0.030   0.000   0.031
   49        0.002   0.048   0.000   0.051
   50        0.002   0.033   0.000   0.035
   51        0.002   0.031   0.000   0.032
   52        0.002   0.036   0.000   0.038
   53        0.002   0.012   0.000   0.013
   54        0.001   0.012   0.000   0.013
   55        0.003   0.055   0.000   0.058
   56        0.002   0.048   0.000   0.050
   57        0.002   0.047   0.000   0.049
   58        0.002   0.030   0.000   0.032
   59        0.002   0.024   0.000   0.026
   60        0.003   0.052   0.000   0.055
   61        0.002   0.040   0.000   0.042
   62        0.002   0.064   0.000   0.067
   63        0.002   0.031   0.000   0.033
   64        0.002   0.053   0.000   0.055
   65        0.002   0.028   0.000   0.030
   66        0.002   0.032   0.000   0.034
   67        0.003   0.047   0.000   0.050
   68        0.002   0.029   0.000   0.031
   69        0.002   0.015   0.000   0.016
   70        0.002   0.032   0.000   0.034
   71        0.002   0.012   0.000   0.013
   72        0.002   0.054   0.000   0.056
   73        0.002   0.058   0.000   0.060
   74        0.002   0.043   0.000   0.045
   75        0.002   0.024   0.000   0.026
   76        0.002   0.025   0.000   0.027
   77        0.002   0.042   0.000   0.044
   78        0.002   0.016   0.000   0.018
   79        0.002   0.033   0.000   0.034
   80        0.002   0.039   0.000   0.041
   81        0.002   0.031   0.000   0.033
   82        0.002   0.042   0.000   0.044
   83        0.002   0.028   0.000   0.030
   84        0.002   0.026   0.000   0.028
   85        0.002   0.038   0.000   0.040
   86        0.002   0.044   0.000   0.047
   87        0.002   0.018   0.000   0.020
   88        0.002   0.033   0.000   0.035
--------------------------------------------------
tot          0.427   2.096  44.055  46.579
 

 total amount of memory used by VASP MPI-rank0    88173. kBytes
=======================================================================

   base      :      30000. kBytes
   nonlr-proj:      13664. kBytes
   fftplans  :        992. kBytes
   grid      :      21513. kBytes
   one-center:       2737. kBytes
   wavefun   :      19267. kBytes
 
  
  
 General timing and accounting informations for this job:
 ========================================================
  
                  Total CPU time used (sec):      630.427
                            User time (sec):      624.934
                          System time (sec):        5.494
                         Elapsed time (sec):      634.032
  
                   Maximum memory used (kb):      184160.
                   Average memory used (kb):           0.
  
                          Minor page faults:       305231
                          Major page faults:            0
                 Voluntary context switches:         3842
