 vasp.5.4.4.18Apr17-6-g9f103f2a35 (build Dec 02 2020 12:53:39) complex          
  
 executed on             LinuxIFC date 2021.08.04  08:54:05
 running on  112 total cores
 distrk:  each k-point on  112 cores,    1 groups
 distr:  one band on NCORES_PER_BAND=   1 cores,  112 groups


--------------------------------------------------------------------------------------------------------


 INCAR:
 POTCAR:    PAW_PBE Na_pv 19Sep2006               
 POTCAR:    PAW_PBE Mg_pv 13Apr2007               
 POTCAR:    PAW_PBE Mn_pv 02Aug2007               
 POTCAR:    PAW_PBE O 08Apr2002                   

 ----------------------------------------------------------------------------- 
|                                                                             |
|           W    W    AA    RRRRR   N    N  II  N    N   GGGG   !!!           |
|           W    W   A  A   R    R  NN   N  II  NN   N  G    G  !!!           |
|           W    W  A    A  R    R  N N  N  II  N N  N  G       !!!           |
|           W WW W  AAAAAA  RRRRR   N  N N  II  N  N N  G  GGG   !            |
|           WW  WW  A    A  R   R   N   NN  II  N   NN  G    G                |
|           W    W  A    A  R    R  N    N  II  N    N   GGGG   !!!           |
|                                                                             |
|      For optimal performance we recommend to set                            |
|        NCORE= 4 - approx SQRT( number of cores)                             |
|      NCORE specifies how many cores store one orbital (NPAR=cpu/NCORE).     |
|      This setting can  greatly improve the performance of VASP for DFT.     |
|      The default,   NCORE=1            might be grossly inefficient         |
|      on modern multi-core architectures or massively parallel machines.     |
|      Do your own testing !!!!                                               |
|      Unfortunately you need to use the default for GW and RPA calculations. |
|      (for HF NCORE is supported but not extensively tested yet)             |
|                                                                             |
 ----------------------------------------------------------------------------- 

 POTCAR:    PAW_PBE Na_pv 19Sep2006               
   VRHFIN =Na: p6s1                                                             
   LEXCH  = PE                                                                  
   EATOM  =   766.0439 eV,   56.3026 Ry                                         
                                                                                
   TITEL  = PAW_PBE Na_pv 19Sep2006                                             
   LULTRA =        F    use ultrasoft PP ?                                      
   IUNSCR =        1    unscreen: 0-lin 1-nonlin 2-no                           
   RPACOR =    1.800    partial core radius                                     
   POMASS =   22.990; ZVAL   =    7.000    mass and valenz                      
   RCORE  =    2.200    outmost cutoff radius                                   
   RWIGS  =    2.200; RWIGS  =    1.164    wigner-seitz radius (au A)           
   ENMAX  =  259.561; ENMIN  =  194.671 eV                                      
   ICORE  =        2    local potential                                         
   LCOR   =        T    correct aug charges                                     
   LPAW   =        T    paw PP                                                  
   EAUG   =  368.056                                                            
   DEXC   =    0.000                                                            
   RMAX   =    2.245    core radius for proj-oper                               
   RAUG   =    1.300    factor for augmentation sphere                          
   RDEP   =    2.259    radius for radial grids                                 
   RDEPT  =    1.738    core radius for aug-charge                              
                                                                                
   Atomic configuration                                                         
    5 entries                                                                   
     n  l   j            E        occ.                                          
     1  0  0.50     -1033.6933   2.0000                                         
     2  0  0.50       -56.7526   2.0000                                         
     2  1  1.50       -28.6721   6.0000                                         
     3  0  0.50        -2.7440   1.0000                                         
     3  2  1.50        -1.3606   0.0000                                         
   Description                                                                  
     l       E           TYP  RCUT    TYP  RCUT                                 
     1    -28.6720912     23  2.000                                             
     1      6.8029130     23  2.000                                             
     0     -2.7439560     23  2.200                                             
     0     34.0145650     23  2.200                                             
     2     -1.3605826     23  2.200                                             
  local pseudopotential read in
  partial core-charges read in
  partial kinetic energy density read in
  atomic valenz-charges read in
  non local Contribution for L=           1  read in
    real space projection operators read in
  non local Contribution for L=           1  read in
    real space projection operators read in
  non local Contribution for L=           0  read in
    real space projection operators read in
  non local Contribution for L=           0  read in
    real space projection operators read in
    PAW grid and wavefunctions read in
 
   number of l-projection  operators is LMAX  =           4
   number of lm-projection operators is LMMAX =           8
 
 POTCAR:    PAW_PBE Mg_pv 13Apr2007               
   VRHFIN =Mg: p6s2                                                             
   LEXCH  = PE                                                                  
   EATOM  =  1056.7344 eV,   77.6678 Ry                                         
                                                                                
   TITEL  = PAW_PBE Mg_pv 13Apr2007                                             
   LULTRA =        F    use ultrasoft PP ?                                      
   IUNSCR =        1    unscreen: 0-lin 1-nonlin 2-no                           
   RPACOR =    1.500    partial core radius                                     
   POMASS =   24.305; ZVAL   =    8.000    mass and valenz                      
   RCORE  =    2.000    outmost cutoff radius                                   
   RWIGS  =    2.000; RWIGS  =    1.058    wigner-seitz radius (au A)           
   ENMAX  =  403.929; ENMIN  =  302.947 eV                                      
   RCLOC  =    1.506    cutoff for local pot                                    
   LCOR   =        T    correct aug charges                                     
   LPAW   =        T    paw PP                                                  
   EAUG   =  758.780                                                            
   DEXC   =    0.000                                                            
   RMAX   =    2.045    core radius for proj-oper                               
   RAUG   =    1.300    factor for augmentation sphere                          
   RDEP   =    2.025    radius for radial grids                                 
   RDEPT  =    1.557    core radius for aug-charge                              
                                                                                
   Atomic configuration                                                         
    5 entries                                                                   
     n  l   j            E        occ.                                          
     1  0  0.50     -1259.6230   2.0000                                         
     2  0  0.50       -79.8442   2.0000                                         
     2  1  1.50       -46.6121   6.0000                                         
     3  0  0.50        -4.7055   2.0000                                         
     3  2  1.50        -1.3606   0.0000                                         
   Description                                                                  
     l       E           TYP  RCUT    TYP  RCUT                                 
     1    -46.6121073     23  1.600                                             
     1      2.7211652     23  1.600                                             
     0     -4.7054661     23  2.000                                             
     0     61.2262170     23  2.000                                             
     2     -1.3605826     23  2.000                                             
  local pseudopotential read in
  partial core-charges read in
  partial kinetic energy density read in
  atomic valenz-charges read in
  non local Contribution for L=           1  read in
    real space projection operators read in
  non local Contribution for L=           1  read in
    real space projection operators read in
  non local Contribution for L=           0  read in
    real space projection operators read in
  non local Contribution for L=           0  read in
    real space projection operators read in
  non local Contribution for L=           2  read in
    real space projection operators read in
    PAW grid and wavefunctions read in
 
   number of l-projection  operators is LMAX  =           5
   number of lm-projection operators is LMMAX =          13
 
 POTCAR:    PAW_PBE Mn_pv 02Aug2007               
   VRHFIN =Mn: 3p4s3d                                                           
   LEXCH  = PE                                                                  
   EATOM  =  2025.2664 eV,  148.8529 Ry                                         
                                                                                
   TITEL  = PAW_PBE Mn_pv 02Aug2007                                             
   LULTRA =        F    use ultrasoft PP ?                                      
   IUNSCR =        1    unscreen: 0-lin 1-nonlin 2-no                           
   RPACOR =    2.080    partial core radius                                     
   POMASS =   54.938; ZVAL   =   13.000    mass and valenz                      
   RCORE  =    2.300    outmost cutoff radius                                   
   RWIGS  =    2.500; RWIGS  =    1.323    wigner-seitz radius (au A)           
   ENMAX  =  269.864; ENMIN  =  202.398 eV                                      
   ICORE  =        3    local potential                                         
   LCOR   =        T    correct aug charges                                     
   LPAW   =        T    paw PP                                                  
   EAUG   =  569.085                                                            
   DEXC   =    0.000                                                            
   RMAX   =    2.343    core radius for proj-oper                               
   RAUG   =    1.300    factor for augmentation sphere                          
   RDEP   =    2.338    radius for radial grids                                 
   RDEPT  =    1.798    core radius for aug-charge                              
                                                                                
   Atomic configuration                                                         
    8 entries                                                                   
     n  l   j            E        occ.                                          
     1  0  0.50     -6424.8287   2.0000                                         
     2  0  0.50      -739.1154   2.0000                                         
     2  1  1.50      -625.3949   6.0000                                         
     3  0  0.50       -81.6100   2.0000                                         
     3  1  1.50       -50.4667   6.0000                                         
     3  2  2.50        -3.3745   6.0000                                         
     4  0  0.50        -4.1331   1.0000                                         
     4  3  2.50        -1.3606   0.0000                                         
   Description                                                                  
     l       E           TYP  RCUT    TYP  RCUT                                 
     1    -50.4666628     23  2.000                                             
     1     -1.3605826     23  2.000                                             
     2     -3.3744729     23  2.300                                             
     2     -4.7350555     23  2.300                                             
     0     -4.1331431     23  2.300                                             
     0      7.6656591     23  2.300                                             
     3      9.5240782     23  2.300                                             
  local pseudopotential read in
  partial core-charges read in
  partial kinetic energy density read in
  atomic valenz-charges read in
  non local Contribution for L=           1  read in
    real space projection operators read in
  non local Contribution for L=           1  read in
    real space projection operators read in
  non local Contribution for L=           2  read in
    real space projection operators read in
  non local Contribution for L=           2  read in
    real space projection operators read in
  non local Contribution for L=           0  read in
    real space projection operators read in
  non local Contribution for L=           0  read in
    real space projection operators read in
    PAW grid and wavefunctions read in
 
   number of l-projection  operators is LMAX  =           6
   number of lm-projection operators is LMMAX =          18
 
 POTCAR:    PAW_PBE O 08Apr2002                   
   VRHFIN =O: s2p4                                                              
   LEXCH  = PE                                                                  
   EATOM  =   432.3788 eV,   31.7789 Ry                                         
                                                                                
   TITEL  = PAW_PBE O 08Apr2002                                                 
   LULTRA =        F    use ultrasoft PP ?                                      
   IUNSCR =        1    unscreen: 0-lin 1-nonlin 2-no                           
   RPACOR =    1.200    partial core radius                                     
   POMASS =   16.000; ZVAL   =    6.000    mass and valenz                      
   RCORE  =    1.520    outmost cutoff radius                                   
   RWIGS  =    1.550; RWIGS  =    0.820    wigner-seitz radius (au A)           
   ENMAX  =  400.000; ENMIN  =  300.000 eV                                      
   ICORE  =        2    local potential                                         
   LCOR   =        T    correct aug charges                                     
   LPAW   =        T    paw PP                                                  
   EAUG   =  605.392                                                            
   DEXC   =    0.000                                                            
   RMAX   =    1.553    core radius for proj-oper                               
   RAUG   =    1.300    factor for augmentation sphere                          
   RDEP   =    1.550    radius for radial grids                                 
   RDEPT  =    1.329    core radius for aug-charge                              
                                                                                
   Atomic configuration                                                         
    4 entries                                                                   
     n  l   j            E        occ.                                          
     1  0  0.50      -514.6923   2.0000                                         
     2  0  0.50       -23.9615   2.0000                                         
     2  1  0.50        -9.0305   4.0000                                         
     3  2  1.50        -9.5241   0.0000                                         
   Description                                                                  
     l       E           TYP  RCUT    TYP  RCUT                                 
     0    -23.9615318     23  1.200                                             
     0     -9.5240782     23  1.200                                             
     1     -9.0304911     23  1.520                                             
     1      8.1634956     23  1.520                                             
     2     -9.5240782      7  1.500                                             
  local pseudopotential read in
  partial core-charges read in
  partial kinetic energy density read in
  kinetic energy density of atom read in
  atomic valenz-charges read in
  non local Contribution for L=           0  read in
    real space projection operators read in
  non local Contribution for L=           0  read in
    real space projection operators read in
  non local Contribution for L=           1  read in
    real space projection operators read in
  non local Contribution for L=           1  read in
    real space projection operators read in
    PAW grid and wavefunctions read in
 
   number of l-projection  operators is LMAX  =           4
   number of lm-projection operators is LMMAX =           8
 
 Optimization of the real space projectors (new method)

 maximal supplied QI-value         = 17.01
 optimisation between [QCUT,QGAM] = [ 10.20, 20.41] = [ 29.16,116.64] Ry 
 Optimized for a Real-space Cutoff    1.30 Angstroem

   l    n(q)    QCUT    max X(q) W(low)/X(q) W(high)/X(q)  e(spline) 
   1      7    10.205     4.940    0.23E-03    0.84E-03    0.11E-06
   1      7    10.205     6.253    0.40E-03    0.13E-02    0.18E-06
   0      8    10.205    37.438    0.23E-03    0.37E-03    0.42E-07
   0      8    10.205     9.606    0.16E-03    0.26E-03    0.31E-07
 Optimization of the real space projectors (new method)

 maximal supplied QI-value         = 18.90
 optimisation between [QCUT,QGAM] = [ 10.20, 20.41] = [ 29.16,116.64] Ry 
 Optimized for a Real-space Cutoff    1.26 Angstroem

   l    n(q)    QCUT    max X(q) W(low)/X(q) W(high)/X(q)  e(spline) 
   1      7    10.205     2.974    0.63E-04    0.14E-03    0.13E-06
   1      7    10.205     4.279    0.11E-03    0.45E-03    0.24E-06
   0      8    10.205    16.381    0.44E-03    0.15E-03    0.55E-07
   0      8    10.205     5.611    0.31E-03    0.11E-03    0.40E-07
   2      7    10.205     4.652    0.50E-03    0.47E-03    0.57E-07
 Optimization of the real space projectors (new method)

 maximal supplied QI-value         = 16.25
 optimisation between [QCUT,QGAM] = [ 10.24, 20.48] = [ 29.35,117.42] Ry 
 Optimized for a Real-space Cutoff    1.34 Angstroem

   l    n(q)    QCUT    max X(q) W(low)/X(q) W(high)/X(q)  e(spline) 
   1      8    10.239     3.658    0.23E-03    0.30E-03    0.98E-07
   1      8    10.239     5.612    0.32E-03    0.65E-03    0.21E-06
   2      7    10.239    55.373    0.42E-03    0.45E-03    0.65E-07
   2      7    10.239    50.863    0.43E-03    0.48E-03    0.67E-07
   0      8    10.239    79.536    0.11E-03    0.21E-03    0.56E-07
   0      8    10.239    38.668    0.96E-04    0.19E-03    0.52E-07
 Optimization of the real space projectors (new method)

 maximal supplied QI-value         = 24.76
 optimisation between [QCUT,QGAM] = [ 10.15, 20.30] = [ 28.85,115.39] Ry 
 Optimized for a Real-space Cutoff    1.38 Angstroem

   l    n(q)    QCUT    max X(q) W(low)/X(q) W(high)/X(q)  e(spline) 
   0      8    10.150    20.381    0.22E-03    0.32E-03    0.29E-06
   0      8    10.150    15.268    0.23E-03    0.35E-03    0.30E-06
   1      8    10.150     5.964    0.46E-03    0.53E-03    0.21E-06
   1      8    10.150     5.382    0.38E-03    0.45E-03    0.19E-06
  PAW_PBE Na_pv 19Sep2006               :
 energy of atom  1       EATOM= -766.0439
 kinetic energy error for atom=    0.0103 (will be added to EATOM!!)
  PAW_PBE Mg_pv 13Apr2007               :
 energy of atom  2       EATOM=-1056.7344
 kinetic energy error for atom=    0.0820 (will be added to EATOM!!)
  PAW_PBE Mn_pv 02Aug2007               :
 energy of atom  3       EATOM=-2025.2664
 kinetic energy error for atom=    0.0284 (will be added to EATOM!!)
  PAW_PBE O 08Apr2002                   :
 energy of atom  4       EATOM= -432.3788
 kinetic energy error for atom=    0.1156 (will be added to EATOM!!)
 
 
 POSCAR: Na Mg Mn  O                             
  positions in cartesian coordinates
  No initial velocities read in

 METAGGA = SCAN     LMAXTAU =  6    LMIXTAU =  F

 exchange correlation table for  LEXCH =        8
   RHO(1)=    0.500       N(1)  =     2000
   RHO(2)=  100.500       N(2)  =     4000

 VTST: version 3.2, (02/03/18)

 CHAIN: initializing optimizer
 
 OPT: Using VASP Dynamics algorithm
 CHAIN: Read ICHAIN            0
 
 POSCAR: Na Mg Mn  O                             
  positions in cartesian coordinates
  No initial velocities read in
 


--------------------------------------------------------------------------------------------------------


 ion  position               nearest neighbor table
   1  0.329  0.950  0.245-  51 2.28  42 2.37  36 2.92
   2  0.317  0.350  0.763-  48 2.20  61 2.25  58 2.32
   3  0.818  0.289  0.752-  46 2.21  49 2.23  57 2.35
   4  0.094  0.849  0.765-  73 2.17  72 2.30  34 2.92
   5  0.816  0.480  0.240-  52 2.20  66 2.27  75 2.34  43 2.36
   6  0.702  0.077  0.255-  62 2.24  79 2.27  53 2.35  31 2.92  29 2.97
   7  0.158  0.589  0.746-  70 2.16  83 2.32  39 2.76  37 2.90
   8  0.690  0.567  0.748-  71 2.14  68 2.17  35 2.88  33 2.89
   9  0.630  0.734  0.234-  78 2.12  65 2.36
  10  0.479  0.363  0.250-  50 2.25  43 2.32  41 2.34
  11  0.983  0.890  0.253-  76 2.32  65 2.34  67 2.38
  12  0.573  0.826  0.743-  82 2.26  85 2.27  81 2.32  38 2.95
  13  0.470  0.075  0.748-  81 2.37  46 2.38
  14  0.953  0.065  0.754-  56 2.26  69 2.36  72 2.38
  15  0.130  0.241  0.253-  54 2.21  64 2.31  50 2.34  63 2.36
  16  0.139  0.564  0.249-  55 2.26  66 2.32  86 2.36  75 2.37  37 2.76  39 2.82
  17  0.813  0.425  0.998-  43 2.01  71 2.02  49 2.04  60 2.05  53 2.09  66 2.12  34 2.84  26 2.85

  18  0.485  0.227  0.501-  51 2.03  46 2.03  45 2.03  44 2.11  52 2.20  50 2.24  31 2.76  28 2.82

  19  0.321  0.419  0.004-  48 1.97  41 1.99  78 2.03  55 2.06  61 2.09  83 2.17  26 2.81  33 2.84

  20  0.981  0.237  0.510-  57 1.97  63 2.06  64 2.07  58 2.10  56 2.10  62 2.14  39 2.84  28 2.84

  21  0.324  0.923  0.992-  84 1.93  42 1.98  77 2.02  73 2.04  67 2.07  47 2.10  38 2.75  29 2.78

  22  0.973  0.726  0.500-  68 2.02  74 2.03  75 2.06  76 2.07  70 2.16  69 2.24  36 2.82  35 2.85

  23  0.810  0.932  0.003-  79 1.99  59 2.00  72 2.06  54 2.08  85 2.18  30 2.78  29 2.80
  24  0.477  0.725  0.496-  87 2.03  88 2.05  80 2.14  86 2.15  82 2.17  81 2.20  35 2.85  32 2.85

  25  0.150  0.083  0.001-  47 1.85  67 1.89  41 1.90  61 1.93  72 1.94  54 1.96  34 2.87  30 2.88
                            26 2.92
  26  0.485  0.259  0.990-  43 1.91  41 1.91  42 1.91  48 1.92  49 1.97  47 2.02  19 2.81  17 2.85
                            29 2.86  33 2.88  25 2.92
  27  0.144  0.070  0.491-  63 1.88  76 1.93  44 1.94  50 1.95  69 1.96  58 1.97  32 2.84  40 2.87
                            36 2.92
  28  0.810  0.392  0.501-  62 1.82  68 1.87  52 1.90  75 1.93  46 1.95  57 1.99  18 2.82  20 2.84
                            31 2.86  39 2.92  35 2.93
  29  0.645  0.089  0.997-  59 1.85  42 1.91  79 1.94  84 1.95  53 1.96  49 2.02  21 2.78  23 2.80
                            26 2.86  38 2.91   6 2.97  30 2.97
  30  0.986  0.252  0.003-  59 1.90  61 1.92  54 1.92  60 1.93  55 1.95  53 2.00  23 2.78  25 2.88
                            37 2.90  29 2.97
  31  0.639  0.063  0.511-  46 1.90  51 1.91  62 1.91  56 1.93  81 1.96  88 2.00  18 2.76  28 2.86
                             6 2.92  40 2.93  36 2.97
  32  0.315  0.397  0.500-  80 1.85  58 1.87  64 1.93  87 1.94  45 1.95  50 1.99  27 2.84  24 2.85
                            35 2.86  39 2.91
  33  0.648  0.591  1.000-  85 1.83  43 1.87  78 1.91  48 1.93  65 1.95  71 2.05  19 2.84  26 2.88
                             8 2.89  34 2.91  38 2.95
  34  0.983  0.753  0.008-  73 1.87  71 1.92  65 1.94  66 1.94  67 1.95  72 2.01  17 2.84  25 2.87
                            37 2.91  33 2.91   4 2.92
  35  0.644  0.564  0.494-  74 1.86  45 1.90  68 1.92  87 1.92  52 1.93  82 1.98  24 2.85  22 2.85
                            32 2.86   8 2.88  40 2.92  28 2.93
  36  0.297  0.887  0.501-  70 1.85  86 1.88  44 1.90  81 1.92  76 1.92  51 2.02  39 2.81  22 2.82
                            27 2.92   1 2.92  31 2.97
  37  0.152  0.586  0.004-  66 1.90  60 1.90  73 1.91  77 1.92  55 1.94  83 1.99  16 2.76  38 2.77
                            30 2.90   7 2.90  34 2.91
  38  0.471  0.754  0.994-  83 1.87  84 1.88  77 1.89  78 1.92  85 1.96  79 1.99  21 2.75  37 2.77
                            29 2.91  33 2.95  12 2.95
  39  0.147  0.563  0.500-  57 1.86  86 1.88  80 1.92  64 1.94  75 1.95  70 1.99   7 2.76  36 2.81
                            16 2.82  20 2.84  32 2.91  28 2.92
  40  0.814  0.900  0.504-  69 1.82  88 1.82  74 1.89  82 1.96  63 2.02  56 2.04  27 2.87  35 2.92
                            31 2.93
  41  0.320  0.242  0.085-  25 1.90  26 1.91  19 1.99  10 2.34
  42  0.486  0.100  0.084-  29 1.91  26 1.91  21 1.98   1 2.37
  43  0.637  0.425  0.084-  33 1.87  26 1.91  17 2.01  10 2.32   5 2.36
  44  0.292  0.047  0.588-  36 1.90  27 1.94  18 2.11
  45  0.487  0.406  0.588-  35 1.90  32 1.95  18 2.03
  46  0.655  0.230  0.602-  31 1.90  28 1.95  18 2.03   3 2.21  13 2.38
  47  0.301  0.094  0.901-  25 1.85  26 2.02  21 2.10
  48  0.489  0.428  0.906-  26 1.92  33 1.93  19 1.97   2 2.20
  49  0.648  0.257  0.894-  26 1.97  29 2.02  17 2.04   3 2.23
  50  0.301  0.233  0.391-  27 1.95  32 1.99  18 2.24  10 2.25  15 2.34
  51  0.481  0.050  0.409-  31 1.91  36 2.02  18 2.03   1 2.28
  52  0.671  0.417  0.401-  28 1.90  35 1.93  18 2.20   5 2.20
  53  0.813  0.247  0.094-  29 1.96  30 2.00  17 2.09   6 2.35
  54  0.996  0.099  0.099-  30 1.92  25 1.96  23 2.08  15 2.21
  55  0.144  0.419  0.097-  37 1.94  30 1.95  19 2.06  16 2.26
  56  0.798  0.060  0.606-  31 1.93  40 2.04  20 2.10  14 2.26
  57  0.989  0.414  0.593-  39 1.86  20 1.97  28 1.99   3 2.35
  58  0.168  0.238  0.595-  32 1.87  27 1.97  20 2.10   2 2.32
  59  0.813  0.107  0.914-  29 1.85  30 1.90  23 2.00
  60  0.993  0.421  0.915-  37 1.90  30 1.93  17 2.05
  61  0.140  0.241  0.908-  30 1.92  25 1.93  19 2.09   2 2.25
  62  0.791  0.228  0.417-  28 1.82  31 1.91  20 2.14   6 2.24
  63  0.983  0.069  0.405-  27 1.88  40 2.02  20 2.06  15 2.36
  64  0.156  0.405  0.408-  32 1.93  39 1.94  20 2.07  15 2.31
  65  0.814  0.738  0.102-  34 1.94  33 1.95  11 2.34   9 2.36
  66  0.999  0.597  0.098-  37 1.90  34 1.94  17 2.12   5 2.27  16 2.32
  67  0.151  0.925  0.092-  25 1.89  34 1.95  21 2.07  11 2.38
  68  0.797  0.546  0.585-  28 1.87  35 1.92  22 2.02   8 2.17
  69  0.976  0.925  0.595-  40 1.82  27 1.96  22 2.24  14 2.36
  70  0.160  0.733  0.601-  36 1.85  39 1.99  22 2.16   7 2.16
  71  0.828  0.604  0.904-  34 1.92  17 2.02  33 2.05   8 2.14
  72  0.982  0.922  0.911-  25 1.94  34 2.01  23 2.06   4 2.30  14 2.38
  73  0.135  0.742  0.918-  34 1.87  37 1.91  21 2.04   4 2.17
  74  0.799  0.734  0.413-  35 1.86  40 1.89  22 2.03
  75  0.975  0.550  0.407-  28 1.93  39 1.95  22 2.06   5 2.34  16 2.37
  76  0.148  0.905  0.404-  36 1.92  27 1.93  22 2.07  11 2.32
  77  0.316  0.751  0.091-  38 1.89  37 1.92  21 2.02
  78  0.492  0.605  0.088-  33 1.91  38 1.92  19 2.03   9 2.12
  79  0.633  0.922  0.092-  29 1.94  38 1.99  23 1.99   6 2.27
  80  0.295  0.539  0.592-  32 1.85  39 1.92  24 2.14
  81  0.462  0.904  0.598-  36 1.92  31 1.96  24 2.20  12 2.32  13 2.37
  82  0.661  0.728  0.601-  40 1.96  35 1.98  24 2.17  12 2.26
  83  0.318  0.599  0.899-  38 1.87  37 1.99  19 2.17   7 2.32
  84  0.487  0.919  0.904-  38 1.88  21 1.93  29 1.95
  85  0.630  0.733  0.908-  33 1.83  38 1.96  23 2.18  12 2.27
  86  0.289  0.728  0.406-  39 1.88  36 1.88  24 2.15  16 2.36
  87  0.477  0.552  0.401-  35 1.92  32 1.94  24 2.03
  88  0.665  0.908  0.417-  40 1.82  31 2.00  24 2.05
 
  LATTYP: Found a hexagonal cell.
 ALAT       =    10.0190000534
 C/A-ratio  =     1.1196726572
  
  Lattice vectors:
  
 A1 = (  10.0190000534,   0.0000000000,   0.0000000000)
 A2 = (  -5.0095000267,   8.6767085668,   0.0000000000)
 A3 = (   0.0000000000,   0.0000000000,  11.2180004120)


Analysis of symmetry for initial positions (statically):
=====================================================================
 Subroutine PRICEL returns:
 Original cell was already a primitive cell.
 

 Routine SETGRP: Setting up the symmetry group for a 
 hexagonal supercell.


 Subroutine GETGRP returns: Found  1 space group operations
 (whereof  1 operations were pure point group operations)
 out of a pool of 24 trial point group operations.


The static configuration has the point symmetry C_1 .


Analysis of symmetry for dynamics (positions and initial velocities):
=====================================================================
 Subroutine PRICEL returns:
 Original cell was already a primitive cell.
 

 Routine SETGRP: Setting up the symmetry group for a 
 hexagonal supercell.


 Subroutine GETGRP returns: Found  1 space group operations
 (whereof  1 operations were pure point group operations)
 out of a pool of 24 trial point group operations.


The dynamic configuration has the point symmetry C_1 .


Analysis of structural, dynamic, and magnetic symmetry:
=====================================================================
 Subroutine PRICEL returns:
 Original cell was already a primitive cell.
 

 Routine SETGRP: Setting up the symmetry group for a 
 hexagonal supercell.


 Subroutine GETGRP returns: Found  1 space group operations
 (whereof  1 operations were pure point group operations)
 out of a pool of 24 trial point group operations.


The magnetic configuration has the point symmetry C_1 .


 Subroutine INISYM returns: Found  1 space group operations
 (whereof  1 operations are pure point group operations),
 and found     1 'primitive' translations

 
 

Automatic generation of k-mesh.
 generate k-points for:    2    2    2
Space group operators:
 irot       det(A)        alpha          n_x          n_y          n_z        tau_x        tau_y        tau_z
    1     1.000000     0.000000     1.000000     0.000000     0.000000     0.000000     0.000000     0.000000
 
 Subroutine IBZKPT returns following result:
 ===========================================
 
 Found      8 irreducible k-points:
 
 Following reciprocal coordinates:
            Coordinates               Weight
  0.000000  0.000000  0.000000      1.000000
  0.500000 -0.000000 -0.000000      1.000000
  0.000000  0.500000  0.000000      1.000000
  0.500000  0.500000 -0.000000      1.000000
  0.000000  0.000000  0.500000      1.000000
  0.500000 -0.000000  0.500000      1.000000
  0.000000  0.500000  0.500000      1.000000
  0.500000  0.500000  0.500000      1.000000
 
 Following cartesian coordinates:
            Coordinates               Weight
  0.000000  0.000000  0.000000      1.000000
  0.049905  0.028813 -0.000000      1.000000
  0.000000  0.057626  0.000000      1.000000
  0.049905  0.086438 -0.000000      1.000000
  0.000000  0.000000  0.044571      1.000000
  0.049905  0.028813  0.044571      1.000000
  0.000000  0.057626  0.044571      1.000000
  0.049905  0.086438  0.044571      1.000000
 


--------------------------------------------------------------------------------------------------------




 Dimension of arrays:
   k-points           NKPTS =      8   k-points in BZ     NKDIM =      8   number of bands    NBANDS=    448
   number of dos      NEDOS =    301   number of ions     NIONS =     88
   non local maximal  LDIM  =      6   non local SUM 2l+1 LMDIM =     18
   total plane-waves  NPLWV = 140000
   max r-space proj   IRMAX =   1632   max aug-charges    IRDMAX=   4555
   dimension x,y,z NGX =    50 NGY =   50 NGZ =   56
   dimension x,y,z NGXF=   100 NGYF=  100 NGZF=  112
   support grid    NGXF=   100 NGYF=  100 NGZF=  112
   ions per type =              16   8  16  48
   NGX,Y,Z   is equivalent  to a cutoff of   8.30,  8.30,  8.30 a.u.
   NGXF,Y,Z  is equivalent  to a cutoff of  16.59, 16.59, 16.60 a.u.

 SYSTEM =  unknown system                          
 POSCAR =  Na Mg Mn  O                             

 Startparameter for this run:
   NWRITE =      2    write-flag & timer
   PREC   = normal    normal or accurate (medium, high low for compatibility)
   ISTART =      0    job   : 0-new  1-cont  2-samecut
   ICHARG =      1    charge: 1-file 2-atom 10-const
   ISPIN  =      2    spin polarized calculation?
   LNONCOLLINEAR =      F non collinear calculations
   LSORBIT =      F    spin-orbit coupling
   INIWAV =      1    electr: 0-lowe 1-rand  2-diag
   LASPH  =      T    aspherical Exc in radial PAW
   METAGGA=      F    non-selfconsistent MetaGGA calc.

 Electronic Relaxation 1
   ENCUT  =  400.0 eV  29.40 Ry    5.42 a.u.  16.34 16.34 18.29*2*pi/ulx,y,z
   ENINI  =  400.0     initial cutoff
   ENAUG  =  758.8 eV  augmentation charge cutoff
   NELM   =    200;   NELMIN=  6; NELMDL=-12     # of ELM steps 
   EDIFF  = 0.1E-04   stopping-criterion for ELM
   LREAL  =      T    real-space projection
   NLSPLINE    = F    spline interpolate recip. space projectors
   LCOMPAT=      F    compatible to vasp.4.4
   GGA_COMPAT  = T    GGA compatible to vasp.4.4-vasp.4.6
   LMAXPAW     = -100 max onsite density
   LMAXMIX     =    4 max onsite mixed and CHGCAR
   VOSKOWN=      0    Vosko Wilk Nusair interpolation
   ROPT   =   -0.00050  -0.00050  -0.00050  -0.00050
 Ionic relaxation
   EDIFFG = 0.1E-03   stopping-criterion for IOM
   NSW    =      1    number of steps for IOM
   NBLOCK =      1;   KBLOCK =      1    inner block; outer block 
   IBRION =     -1    ionic relax: 0-MD 1-quasi-New 2-CG
   NFREE  =      0    steps in history (QN), initial steepest desc. (CG)
   ISIF   =      2    stress and relaxation
   IWAVPR =     10    prediction:  0-non 1-charg 2-wave 3-comb
   ISYM   =      2    0-nonsym 1-usesym 2-fastsym
   LCORR  =      T    Harris-Foulkes like correction to forces

   POTIM  = 0.5000    time-step for ionic-motion
   TEIN   =    0.0    initial temperature
   TEBEG  =    0.0;   TEEND  =   0.0 temperature during run
   SMASS  =  -3.00    Nose mass-parameter (am)
   estimated Nose-frequenzy (Omega)   =  0.10E-29 period in steps =****** mass=  -0.229E-26a.u.
   SCALEE = 1.0000    scale energy and forces
   NPACO  =    256;   APACO  = 16.0  distance and # of slots for P.C.
   PSTRESS=    0.0 pullay stress

  Mass of Ions in am
   POMASS =  22.99 24.30 54.94 16.00
  Ionic Valenz
   ZVAL   =   7.00  8.00 13.00  6.00
  Atomic Wigner-Seitz radii
   RWIGS  =  -1.00 -1.00 -1.00 -1.00
  virtual crystal weights 
   VCA    =   1.00  1.00  1.00  1.00
   NELECT =     672.0000    total number of electrons
   NUPDOWN=      48.0000    fix difference up-down

 DOS related values:
   EMIN   =  10.00;   EMAX   =-10.00  energy-range for DOS
   EFERMI =   0.00
   ISMEAR =     0;   SIGMA  =   0.05  broadening in eV -4-tet -1-fermi 0-gaus

 Electronic relaxation 2 (details)
   IALGO  =     48    algorithm
   LDIAG  =      T    sub-space diagonalisation (order eigenvalues)
   LSUBROT=      F    optimize rotation matrix (better conditioning)
   TURBO    =      0    0=normal 1=particle mesh
   IRESTART =      0    0=no restart 2=restart with 2 vectors
   NREBOOT  =      0    no. of reboots
   NMIN     =      0    reboot dimension
   EREF     =   0.00    reference energy to select bands
   IMIX   =      4    mixing-type and parameters
     AMIX     =   0.40;   BMIX     =  1.00
     AMIX_MAG =   1.60;   BMIX_MAG =  1.00
     AMIN     =   0.10
     WC   =   100.;   INIMIX=   1;  MIXPRE=   1;  MAXMIX= -45

 Intra band minimization:
   WEIMIN = 0.0000     energy-eigenvalue tresh-hold
   EBREAK =  0.56E-08  absolut break condition
   DEPER  =   0.30     relativ break condition  

   TIME   =   0.40     timestep for ELM

  volume/ion in A,a.u.               =      11.08        74.78
  Fermi-wavevector in a.u.,A,eV,Ry     =   1.445993  2.732531 28.448379  2.090897
  Thomas-Fermi vector in A             =   2.564112
 
 Write flags
   LWAVE        =      F    write WAVECAR
   LDOWNSAMPLE  =      F    k-point downsampling of WAVECAR
   LCHARG       =      F    write CHGCAR
   LVTOT        =      F    write LOCPOT, total local potential
   LVHAR        =      F    write LOCPOT, Hartree potential only
   LELF         =      F    write electronic localiz. function (ELF)
   LORBIT       =     11    0 simple, 1 ext, 2 COOP (PROOUT), +10 PAW based schemes


 Dipole corrections
   LMONO  =      F    monopole corrections only (constant potential shift)
   LDIPOL =      F    correct potential (dipole corrections)
   IDIPOL =      0    1-x, 2-y, 3-z, 4-all directions 
   EPSILON=  1.0000000 bulk dielectric constant

 Exchange correlation treatment:
   GGA     =    --    GGA type
   LEXCH   =     8    internal setting for exchange type
   VOSKOWN=      0    Vosko Wilk Nusair interpolation
   LHFCALC =     F    Hartree Fock is set to
   LHFONE  =     F    Hartree Fock one center treatment
   AEXX    =    0.0000 exact exchange contribution

 Linear response parameters
   LEPSILON=     F    determine dielectric tensor
   LRPA    =     F    only Hartree local field effects (RPA)
   LNABLA  =     F    use nabla operator in PAW spheres
   LVEL    =     F    velocity operator in full k-point grid
   LINTERFAST=   F  fast interpolation
   KINTER  =     0    interpolate to denser k-point grid
   CSHIFT  =0.1000    complex shift for real part using Kramers Kronig
   OMEGAMAX=  -1.0    maximum frequency
   DEG_THRESHOLD= 0.2000000E-02 threshold for treating states as degnerate
   RTIME   =   -0.100 relaxation time in fs
  (WPLASMAI=    0.000 imaginary part of plasma frequency in eV, 0.658/RTIME)
   DFIELD  = 0.0000000 0.0000000 0.0000000 field for delta impulse in time
 
 Orbital magnetization related:
   ORBITALMAG=     F  switch on orbital magnetization
   LCHIMAG   =     F  perturbation theory with respect to B field
   DQ        =  0.001000  dq finite difference perturbation B field
   LLRAUG    =     F  two centre corrections for induced B field



--------------------------------------------------------------------------------------------------------


 Static calculation
 charge density and potential will be updated during run
 spin polarized calculation
 RMM-DIIS sequential band-by-band
 perform sub-space diagonalisation
    before iterative eigenvector-optimisation
 modified Broyden-mixing scheme, WC =      100.0
 initial mixing is a Kerker type mixing with AMIX =  0.4000 and BMIX =      1.0000
 Hartree-type preconditioning will be used
 using additional bands          112
 real space projection scheme for non local part
 use partial core corrections
 calculate Harris-corrections to forces 
   (improved forces if not selfconsistent)
 use gradient corrections 
 use of overlap-Matrix (Vanderbilt PP)
 Gauss-broadening in eV      SIGMA  =   0.05


--------------------------------------------------------------------------------------------------------


  energy-cutoff  :      400.00
  volume of cell :      975.20
      direct lattice vectors                 reciprocal lattice vectors
    10.019000053  0.000000000  0.000000000     0.099810360  0.057625538 -0.000000000
    -5.009500027  8.676708567  0.000000000     0.000000000  0.115251076  0.000000000
     0.000000000  0.000000000 11.218000412     0.000000000  0.000000000  0.089142446

  length of vectors
    10.019000053 10.019000053 11.218000412     0.115251076  0.115251076  0.089142446


 
 k-points in units of 2pi/SCALE and weight: read from INCAR                         
   0.00000000  0.00000000  0.00000000       0.125
   0.04990518  0.02881277 -0.00000000       0.125
   0.00000000  0.05762554  0.00000000       0.125
   0.04990518  0.08643831 -0.00000000       0.125
   0.00000000  0.00000000  0.04457122       0.125
   0.04990518  0.02881277  0.04457122       0.125
   0.00000000  0.05762554  0.04457122       0.125
   0.04990518  0.08643831  0.04457122       0.125
 
 k-points in reciprocal lattice and weights: read from INCAR                         
   0.00000000  0.00000000  0.00000000       0.125
   0.50000000 -0.00000000 -0.00000000       0.125
   0.00000000  0.50000000  0.00000000       0.125
   0.50000000  0.50000000 -0.00000000       0.125
   0.00000000  0.00000000  0.50000000       0.125
   0.50000000 -0.00000000  0.50000000       0.125
   0.00000000  0.50000000  0.50000000       0.125
   0.50000000  0.50000000  0.50000000       0.125
 
 position of ions in fractional coordinates (direct lattice) 
   0.32914509  0.95046904  0.24484488
   0.31657436  0.35026613  0.76275269
   0.81830365  0.28908757  0.75174984
   0.09393283  0.84850246  0.76473344
   0.81560607  0.48017912  0.23994740
   0.70152456  0.07683493  0.25527366
   0.15774790  0.58874662  0.74556157
   0.68979773  0.56650036  0.74753964
   0.63024885  0.73439731  0.23446959
   0.47857130  0.36293156  0.24975752
   0.98293836  0.88976136  0.25301657
   0.57343428  0.82567880  0.74305667
   0.46968333  0.07452991  0.74796842
   0.95280376  0.06490480  0.75443481
   0.13035280  0.24116271  0.25271616
   0.13907230  0.56433084  0.24924763
   0.81335866  0.42545972  0.99754847
   0.48478920  0.22682564  0.50097520
   0.32123884  0.41870485  0.00366372
   0.98092096  0.23663581  0.50990906
   0.32433478  0.92313807  0.99216100
   0.97260326  0.72629845  0.50033337
   0.80956717  0.93212765  0.00327350
   0.47722844  0.72506872  0.49554910
   0.14961716  0.08345232  0.00099692
   0.48533208  0.25925384  0.99014655
   0.14445662  0.06956002  0.49061774
   0.80988943  0.39240686  0.50088071
   0.64453966  0.08926097  0.99710853
   0.98637571  0.25200685  0.00257618
   0.63918189  0.06290715  0.51059724
   0.31479159  0.39669766  0.49961934
   0.64814515  0.59117002  0.99966254
   0.98333556  0.75295718  0.00767469
   0.64435684  0.56418629  0.49363699
   0.29733553  0.88699764  0.50073362
   0.15157153  0.58600562  0.00408048
   0.47096614  0.75352306  0.99355392
   0.14653539  0.56334726  0.50035923
   0.81401666  0.90011436  0.50435370
   0.31950670  0.24187398  0.08544259
   0.48564707  0.09969218  0.08384293
   0.63704937  0.42479242  0.08356757
   0.29249611  0.04722199  0.58813512
   0.48744537  0.40617130  0.58806915
   0.65473610  0.23020480  0.60210107
   0.30142347  0.09421533  0.90120339
   0.48874081  0.42781199  0.90627560
   0.64824476  0.25651547  0.89359954
   0.30097862  0.23300425  0.39146994
   0.48061320  0.05037641  0.40934835
   0.67091416  0.41717317  0.40058922
   0.81250055  0.24684360  0.09399180
   0.99568000  0.09907536  0.09899804
   0.14448921  0.41925691  0.09716081
   0.79775158  0.06026611  0.60611426
   0.98904128  0.41422389  0.59290246
   0.16762439  0.23758894  0.59494382
   0.81250683  0.10652081  0.91403099
   0.99321929  0.42083124  0.91520767
   0.13984783  0.24096926  0.90813867
   0.79055589  0.22845184  0.41660277
   0.98250290  0.06859300  0.40522641
   0.15640780  0.40505913  0.40762345
   0.81417365  0.73818660  0.10161437
   0.99931790  0.59661564  0.09807095
   0.15105046  0.92494751  0.09165448
   0.79676238  0.54621865  0.58520946
   0.97591195  0.92536818  0.59459438
   0.16002635  0.73303603  0.60104384
   0.82780170  0.60366209  0.90360132
   0.98204589  0.92156259  0.91094666
   0.13466819  0.74189653  0.91795326
   0.79852410  0.73401797  0.41323051
   0.97531656  0.55030775  0.40749241
   0.14809854  0.90451926  0.40423514
   0.31590682  0.75062450  0.09116331
   0.49221865  0.60531363  0.08806525
   0.63272985  0.92225179  0.09185951
   0.29486907  0.53907999  0.59216792
   0.46204060  0.90400754  0.59827775
   0.66092889  0.72821969  0.60083079
   0.31815603  0.59932634  0.89891243
   0.48739099  0.91917343  0.90358349
   0.63031971  0.73313169  0.90815650
   0.28942434  0.72824043  0.40581029
   0.47737548  0.55210798  0.40068549
   0.66475775  0.90769097  0.41696558
 
 position of ions in cartesian coordinates  (Angst):
  -1.46366997  8.24694283  2.74667000
   1.41710029  3.03915717  8.55656000
   6.75040013  2.50832857  8.43313000
  -3.30946003  7.36220857  8.57878000
   5.76609997  4.16637430  2.69173000
   6.64367003  0.66667430  2.86366000
  -1.36885005  5.10838287  8.36371000
   4.07319992  4.91535857  8.38590000
   2.63549989  6.37215140  2.63028000
   2.97670021  3.14905140  2.80178000
   5.39079989  7.72020000  2.83834000
   1.60900008  7.16417430  8.33561000
   4.33239976  0.64667430  8.39071000
   9.22100037  0.56316000  8.46325000
   0.09790008  2.09249857  2.83497000
  -1.43365000  4.89653427  2.79606000
   6.01770000  3.69159000 11.19049911
   3.72082000  1.96810000  5.61994000
   1.12099000  3.63298000  0.04109959
   8.64242000  2.05322000  5.72016000
  -1.37495000  8.00980000 11.13006251
   6.10612000  6.30188000  5.61274000
   3.44156000  8.08780000  0.03672210
   1.14912000  6.29121000  5.55907000
   1.08095997  0.72409143  0.01118340
   3.56381000  2.24947000 11.10746441
   1.09885000  0.60355200  5.50375000
   6.14852000  3.40480000  5.61888000
   6.01049003  0.77449143 11.18556391
   8.62007000  2.18659000  0.02889959
   6.08883000  0.54582700  5.72788000
   1.16664000  3.44203000  5.60473000
   3.53230000  5.12941000 11.21421474
   6.08010000  6.53319000  0.08609470
   3.62952000  4.89528000  5.53762000
  -1.46441000  7.69622000  5.61723000
  -1.41700000  5.08460000  0.04577480
   0.94383600  6.53810000 11.14568831
  -1.35395000  4.88800000  5.61303000
   3.64651000  7.81003000  5.65784000
   1.98947000  2.09867000  0.95849500
   4.36629000  0.86500000  0.94055000
   4.25460000  3.68580000  0.93746100
   2.69396003  0.40973143  6.59770000
   2.84900000  3.52423000  6.59696000
   5.40659000  1.99742000  6.75437000
   2.54799000  0.81747900 10.10970000
   2.75357000  3.71200000 10.16660000
   5.20975000  2.22571000 10.02440000
   1.84827000  2.02171000  4.39151000
   4.56290303  0.43710143  4.59207000
   4.63206000  3.61969000  4.49381000
   6.90388000  2.14179000  1.05440000
   9.47940000  0.85964800  1.11056000
  -0.65263005  3.63777000  1.08995000
   7.69077003  0.52291143  6.79939000
   7.83415000  3.59410000  6.65118000
   0.48922700  2.06149000  6.67408000
   7.60689000  0.92425000 10.25360000
   7.84291000  3.65143000 10.26680000
   0.19399995  2.09082000 10.18750000
   6.77615000  1.98221000  4.67345000
   9.50008003  0.59516143  4.54583000
  -0.46209400  3.51458000  4.57272000
   4.45926000  6.40503000  1.13991000
   7.02342000  5.17666000  1.10016000
  -3.12015005  8.02550000  1.02818000
   5.24648000  4.73938000  6.56488000
   5.14203000  8.02915000  6.67016000
  -2.06884000  6.36034000  6.74251000
   5.26970000  5.23780000 10.13660000
   5.22255000  7.99613000 10.21900000
  -2.36729005  6.43722000 10.29760000
   4.32335000  6.36886000  4.63562000
   7.01493000  4.77486000  4.57125000
  -3.04739000  7.84825000  4.53471000
  -0.59518300  6.51295000  1.02267000
   1.89922000  5.25213000  0.98791600
   1.71930000  8.00211000  1.03048000
   0.25377200  4.67744000  6.64294000
   0.10055900  7.84381000  6.71148000
   2.97383000  6.31855000  6.74012000
   0.18528000  5.20018000 10.08400000
   0.27857100  7.97540000 10.13640000
   2.64255000  6.36117000 10.18770000
  -0.74837800  6.31873000  4.55238000
   2.01704000  4.79048000  4.49489000
   2.11313000  7.87577000  4.67752000
 


--------------------------------------------------------------------------------------------------------


 k-point  1 :   0.0000 0.0000 0.0000  plane waves:   17725
 k-point  2 :   0.5000-0.0000-0.0000  plane waves:   17736
 k-point  3 :   0.0000 0.5000 0.0000  plane waves:   17736
 k-point  4 :   0.5000 0.5000-0.0000  plane waves:   17736
 k-point  5 :   0.0000 0.0000 0.5000  plane waves:   17676
 k-point  6 :   0.5000-0.0000 0.5000  plane waves:   17700
 k-point  7 :   0.0000 0.5000 0.5000  plane waves:   17700
 k-point  8 :   0.5000 0.5000 0.5000  plane waves:   17700

 maximum and minimum number of plane-waves per node :     17736    17676

 maximum number of plane-waves:     17736
 maximum index in each direction: 
   IXMAX=   16   IYMAX=   16   IZMAX=   18
   IXMIN=  -16   IYMIN=  -16   IZMIN=  -18


 serial   3D FFT for wavefunctions
 parallel 3D FFT for charge:
    minimum data exchange during FFTs selected (reduces bandwidth)


 total amount of memory used by VASP MPI-rank0    88170. kBytes
=======================================================================

   base      :      30000. kBytes
   nonlr-proj:      13661. kBytes
   fftplans  :        992. kBytes
   grid      :      21513. kBytes
   one-center:       2737. kBytes
   wavefun   :      19267. kBytes
 
     INWAV:  cpu time    0.0000: real time    0.0001
 Broyden mixing: mesh for mixing (old mesh)
   NGX = 33   NGY = 33   NGZ = 37
  (NGX  =100   NGY  =100   NGZ  =112)
  gives a total of  40293 points

 initial charge density was supplied:
 charge density of overlapping atoms calculated
 number of electron     672.0000000 magnetization      48.0000000
 keeping initial charge density in first step


--------------------------------------------------------------------------------------------------------


 Maximum index for non-local projection operator         1547
 Maximum index for augmentation-charges          285 (set IRDMAX)


--------------------------------------------------------------------------------------------------------


 First call to EWALD:  gamma=   0.179
 Maximum number of real-space cells 3x 3x 2
 Maximum number of reciprocal cells 3x 3x 3

    FEWALD:  cpu time    0.0024: real time    0.0030


--------------------------------------- Iteration      1(   1)  ---------------------------------------


    POTLOK:  cpu time    0.2027: real time    0.2042
    SETDIJ:  cpu time    3.1249: real time    3.1276
    EDDIAG:  cpu time    3.6939: real time    3.7037
  RMM-DIIS:  cpu time    6.5999: real time    6.6117
    ORTHCH:  cpu time    1.1341: real time    1.1376
       DOS:  cpu time    0.0017: real time    0.0018
    --------------------------------------------
      LOOP:  cpu time   14.7573: real time   14.7866

 eigenvalue-minimisations  :  7168
 total energy-change (2. order) : 0.1870387E+04  (-0.3593946E+05)
 number of electron     672.0000000 magnetization      48.0000000
 augmentation part      672.0000000 magnetization      48.0000000

 Free energy of the ion-electron system (eV)
  ---------------------------------------------------
  alpha Z        PSCENC =      2652.81237852
  Ewald energy   TEWEN  =    -41969.36939108
  -Hartree energ DENC   =    -25650.96100854
  -exchange      EXHF   =         0.00000000
  -V(xc)+E(xc)   XCENC  =      3605.72103595
  PAW double counting   =     55594.23204139   -59034.67079123
  entropy T*S    EENTRO =        -0.04819528
  eigenvalues    EBANDS =     -7189.52727337
  atomic energy  EATOM  =     73862.19814772
  Solvation  Ediel_sol  =         0.00000000
  ---------------------------------------------------
  free energy    TOTEN  =      1870.38694408 eV

  energy without entropy =     1870.43513936  energy(sigma->0) =     1870.41104172


--------------------------------------------------------------------------------------------------------




--------------------------------------- Iteration      1(   2)  ---------------------------------------


    EDDIAG:  cpu time    3.6803: real time    3.6903
  RMM-DIIS:  cpu time    6.5840: real time    6.6210
    ORTHCH:  cpu time    1.1365: real time    1.1401
       DOS:  cpu time    0.0016: real time    0.0016
    --------------------------------------------
      LOOP:  cpu time   11.4023: real time   11.4530

 eigenvalue-minimisations  :  7168
 total energy-change (2. order) :-0.2721897E+04  (-0.8697419E+04)
 number of electron     672.0000000 magnetization      48.0000000
 augmentation part      672.0000000 magnetization      48.0000000

 Free energy of the ion-electron system (eV)
  ---------------------------------------------------
  alpha Z        PSCENC =      2652.81237852
  Ewald energy   TEWEN  =    -41969.36939108
  -Hartree energ DENC   =    -25650.96100854
  -exchange      EXHF   =         0.00000000
  -V(xc)+E(xc)   XCENC  =      3605.72103595
  PAW double counting   =     55594.23204139   -59034.67079123
  entropy T*S    EENTRO =        -0.03953418
  eigenvalues    EBANDS =     -9911.43314427
  atomic energy  EATOM  =     73862.19814772
  Solvation  Ediel_sol  =         0.00000000
  ---------------------------------------------------
  free energy    TOTEN  =      -851.51026572 eV

  energy without entropy =     -851.47073153  energy(sigma->0) =     -851.49049863


--------------------------------------------------------------------------------------------------------




--------------------------------------- Iteration      1(   3)  ---------------------------------------


    EDDIAG:  cpu time    3.7070: real time    3.7163
  RMM-DIIS:  cpu time    6.6513: real time    6.6631
    ORTHCH:  cpu time    1.1449: real time    1.1489
       DOS:  cpu time    0.0016: real time    0.0016
    --------------------------------------------
      LOOP:  cpu time   11.5049: real time   11.5299

 eigenvalue-minimisations  :  7168
 total energy-change (2. order) : 0.3188489E+03  (-0.1561062E+04)
 number of electron     672.0000000 magnetization      48.0000000
 augmentation part      672.0000000 magnetization      48.0000000

 Free energy of the ion-electron system (eV)
  ---------------------------------------------------
  alpha Z        PSCENC =      2652.81237852
  Ewald energy   TEWEN  =    -41969.36939108
  -Hartree energ DENC   =    -25650.96100854
  -exchange      EXHF   =         0.00000000
  -V(xc)+E(xc)   XCENC  =      3605.72103595
  PAW double counting   =     55594.23204139   -59034.67079123
  entropy T*S    EENTRO =        -0.03747120
  eigenvalues    EBANDS =     -9592.58626905
  atomic energy  EATOM  =     73862.19814772
  Solvation  Ediel_sol  =         0.00000000
  ---------------------------------------------------
  free energy    TOTEN  =      -532.66132752 eV

  energy without entropy =     -532.62385632  energy(sigma->0) =     -532.64259192


--------------------------------------------------------------------------------------------------------




--------------------------------------- Iteration      1(   4)  ---------------------------------------


    EDDIAG:  cpu time    3.6943: real time    3.7022
  RMM-DIIS:  cpu time    6.6063: real time    6.6191
    ORTHCH:  cpu time    1.1355: real time    1.1387
       DOS:  cpu time    0.0012: real time    0.0012
    --------------------------------------------
      LOOP:  cpu time   11.4374: real time   11.4612

 eigenvalue-minimisations  :  7168
 total energy-change (2. order) :-0.5229612E+03  (-0.5069963E+03)
 number of electron     672.0000000 magnetization      48.0000000
 augmentation part      672.0000000 magnetization      48.0000000

 Free energy of the ion-electron system (eV)
  ---------------------------------------------------
  alpha Z        PSCENC =      2652.81237852
  Ewald energy   TEWEN  =    -41969.36939108
  -Hartree energ DENC   =    -25650.96100854
  -exchange      EXHF   =         0.00000000
  -V(xc)+E(xc)   XCENC  =      3605.72103595
  PAW double counting   =     55594.23204139   -59034.67079123
  entropy T*S    EENTRO =        -0.00714620
  eigenvalues    EBANDS =    -10115.57778195
  atomic energy  EATOM  =     73862.19814772
  Solvation  Ediel_sol  =         0.00000000
  ---------------------------------------------------
  free energy    TOTEN  =     -1055.62251542 eV

  energy without entropy =    -1055.61536922  energy(sigma->0) =    -1055.61894232


--------------------------------------------------------------------------------------------------------




--------------------------------------- Iteration      1(   5)  ---------------------------------------


    EDDIAG:  cpu time    3.7983: real time    3.8185
  RMM-DIIS:  cpu time    6.6369: real time    6.6489
    ORTHCH:  cpu time    1.1323: real time    1.1356
       DOS:  cpu time    0.0010: real time    0.0010
    --------------------------------------------
      LOOP:  cpu time   11.5685: real time   11.6041

 eigenvalue-minimisations  :  7168
 total energy-change (2. order) :-0.1486728E+03  (-0.2130062E+03)
 number of electron     672.0000000 magnetization      48.0000000
 augmentation part      672.0000000 magnetization      48.0000000

 Free energy of the ion-electron system (eV)
  ---------------------------------------------------
  alpha Z        PSCENC =      2652.81237852
  Ewald energy   TEWEN  =    -41969.36939108
  -Hartree energ DENC   =    -25650.96100854
  -exchange      EXHF   =         0.00000000
  -V(xc)+E(xc)   XCENC  =      3605.72103595
  PAW double counting   =     55594.23204139   -59034.67079123
  entropy T*S    EENTRO =        -0.00000000
  eigenvalues    EBANDS =    -10264.25777248
  atomic energy  EATOM  =     73862.19814772
  Solvation  Ediel_sol  =         0.00000000
  ---------------------------------------------------
  free energy    TOTEN  =     -1204.29535974 eV

  energy without entropy =    -1204.29535974  energy(sigma->0) =    -1204.29535974


--------------------------------------------------------------------------------------------------------




--------------------------------------- Iteration      1(   6)  ---------------------------------------


    EDDIAG:  cpu time    3.7695: real time    3.7766
  RMM-DIIS:  cpu time    6.6034: real time    6.6172
    ORTHCH:  cpu time    1.1326: real time    1.1358
       DOS:  cpu time    0.0010: real time    0.0010
    --------------------------------------------
      LOOP:  cpu time   11.5067: real time   11.5306

 eigenvalue-minimisations  :  7168
 total energy-change (2. order) :-0.2195616E+02  (-0.1155525E+03)
 number of electron     672.0000000 magnetization      48.0000000
 augmentation part      672.0000000 magnetization      48.0000000

 Free energy of the ion-electron system (eV)
  ---------------------------------------------------
  alpha Z        PSCENC =      2652.81237852
  Ewald energy   TEWEN  =    -41969.36939108
  -Hartree energ DENC   =    -25650.96100854
  -exchange      EXHF   =         0.00000000
  -V(xc)+E(xc)   XCENC  =      3605.72103595
  PAW double counting   =     55594.23204139   -59034.67079123
  entropy T*S    EENTRO =        -0.00000000
  eigenvalues    EBANDS =    -10286.21393353
  atomic energy  EATOM  =     73862.19814772
  Solvation  Ediel_sol  =         0.00000000
  ---------------------------------------------------
  free energy    TOTEN  =     -1226.25152079 eV

  energy without entropy =    -1226.25152079  energy(sigma->0) =    -1226.25152079


--------------------------------------------------------------------------------------------------------




--------------------------------------- Iteration      1(   7)  ---------------------------------------


    EDDIAG:  cpu time    3.7205: real time    3.7296
  RMM-DIIS:  cpu time    6.5938: real time    6.6252
    ORTHCH:  cpu time    1.1695: real time    1.1729
       DOS:  cpu time    0.0010: real time    0.0010
    --------------------------------------------
      LOOP:  cpu time   11.4848: real time   11.5288

 eigenvalue-minimisations  :  7168
 total energy-change (2. order) :-0.6826358E+01  (-0.7633913E+02)
 number of electron     672.0000000 magnetization      48.0000000
 augmentation part      672.0000000 magnetization      48.0000000

 Free energy of the ion-electron system (eV)
  ---------------------------------------------------
  alpha Z        PSCENC =      2652.81237852
  Ewald energy   TEWEN  =    -41969.36939108
  -Hartree energ DENC   =    -25650.96100854
  -exchange      EXHF   =         0.00000000
  -V(xc)+E(xc)   XCENC  =      3605.72103595
  PAW double counting   =     55594.23204139   -59034.67079123
  entropy T*S    EENTRO =        -0.00000000
  eigenvalues    EBANDS =    -10293.04029195
  atomic energy  EATOM  =     73862.19814772
  Solvation  Ediel_sol  =         0.00000000
  ---------------------------------------------------
  free energy    TOTEN  =     -1233.07787922 eV

  energy without entropy =    -1233.07787922  energy(sigma->0) =    -1233.07787922


--------------------------------------------------------------------------------------------------------




--------------------------------------- Iteration      1(   8)  ---------------------------------------


    EDDIAG:  cpu time    3.7301: real time    3.7383
  RMM-DIIS:  cpu time    6.6045: real time    6.6175
    ORTHCH:  cpu time    1.1389: real time    1.1423
       DOS:  cpu time    0.0010: real time    0.0010
    --------------------------------------------
      LOOP:  cpu time   11.4746: real time   11.4991

 eigenvalue-minimisations  :  7168
 total energy-change (2. order) : 0.4574625E+01  (-0.5287452E+02)
 number of electron     672.0000000 magnetization      48.0000000
 augmentation part      672.0000000 magnetization      48.0000000

 Free energy of the ion-electron system (eV)
  ---------------------------------------------------
  alpha Z        PSCENC =      2652.81237852
  Ewald energy   TEWEN  =    -41969.36939108
  -Hartree energ DENC   =    -25650.96100854
  -exchange      EXHF   =         0.00000000
  -V(xc)+E(xc)   XCENC  =      3605.72103595
  PAW double counting   =     55594.23204139   -59034.67079123
  entropy T*S    EENTRO =        -0.00000000
  eigenvalues    EBANDS =    -10288.46566650
  atomic energy  EATOM  =     73862.19814772
  Solvation  Ediel_sol  =         0.00000000
  ---------------------------------------------------
  free energy    TOTEN  =     -1228.50325377 eV

  energy without entropy =    -1228.50325377  energy(sigma->0) =    -1228.50325377


--------------------------------------------------------------------------------------------------------




--------------------------------------- Iteration      1(   9)  ---------------------------------------


    EDDIAG:  cpu time    3.7357: real time    3.7431
  RMM-DIIS:  cpu time   13.7888: real time   13.9050
    ORTHCH:  cpu time    1.2019: real time    1.2054
       DOS:  cpu time    0.0011: real time    0.0011
    --------------------------------------------
      LOOP:  cpu time   18.7275: real time   18.8546

 eigenvalue-minimisations  : 20247
 total energy-change (2. order) : 0.1809629E+02  (-0.2368123E+02)
 number of electron     672.0000000 magnetization      48.0000000
 augmentation part      672.0000000 magnetization      48.0000000

 Free energy of the ion-electron system (eV)
  ---------------------------------------------------
  alpha Z        PSCENC =      2652.81237852
  Ewald energy   TEWEN  =    -41969.36939108
  -Hartree energ DENC   =    -25650.96100854
  -exchange      EXHF   =         0.00000000
  -V(xc)+E(xc)   XCENC  =      3605.72103595
  PAW double counting   =     55594.23204139   -59034.67079123
  entropy T*S    EENTRO =        -0.00000000
  eigenvalues    EBANDS =    -10270.36937764
  atomic energy  EATOM  =     73862.19814772
  Solvation  Ediel_sol  =         0.00000000
  ---------------------------------------------------
  free energy    TOTEN  =     -1210.40696490 eV

  energy without entropy =    -1210.40696490  energy(sigma->0) =    -1210.40696490


--------------------------------------------------------------------------------------------------------




--------------------------------------- Iteration      1(  10)  ---------------------------------------


    EDDIAG:  cpu time    3.7045: real time    3.7127
  RMM-DIIS:  cpu time   15.7319: real time   15.7601
    ORTHCH:  cpu time    1.1420: real time    1.1455
       DOS:  cpu time    0.0011: real time    0.0011
    --------------------------------------------
      LOOP:  cpu time   20.5795: real time   20.6194

 eigenvalue-minimisations  : 20308
 total energy-change (2. order) :-0.3081228E+01  (-0.1041161E+01)
 number of electron     672.0000000 magnetization      48.0000000
 augmentation part      672.0000000 magnetization      48.0000000

 Free energy of the ion-electron system (eV)
  ---------------------------------------------------
  alpha Z        PSCENC =      2652.81237852
  Ewald energy   TEWEN  =    -41969.36939108
  -Hartree energ DENC   =    -25650.96100854
  -exchange      EXHF   =         0.00000000
  -V(xc)+E(xc)   XCENC  =      3605.72103595
  PAW double counting   =     55594.23204139   -59034.67079123
  entropy T*S    EENTRO =        -0.00000023
  eigenvalues    EBANDS =    -10273.45060520
  atomic energy  EATOM  =     73862.19814772
  Solvation  Ediel_sol  =         0.00000000
  ---------------------------------------------------
  free energy    TOTEN  =     -1213.48819270 eV

  energy without entropy =    -1213.48819247  energy(sigma->0) =    -1213.48819258


--------------------------------------------------------------------------------------------------------




--------------------------------------- Iteration      1(  11)  ---------------------------------------


    EDDIAG:  cpu time    3.6945: real time    3.7014
  RMM-DIIS:  cpu time   15.2027: real time   15.2230
    ORTHCH:  cpu time    1.1391: real time    1.1416
       DOS:  cpu time    0.0011: real time    0.0011
    --------------------------------------------
      LOOP:  cpu time   20.0374: real time   20.0671

 eigenvalue-minimisations  : 21659
 total energy-change (2. order) :-0.5495289E-01  (-0.2849759E+00)
 number of electron     672.0000000 magnetization      48.0000000
 augmentation part      672.0000000 magnetization      48.0000000

 Free energy of the ion-electron system (eV)
  ---------------------------------------------------
  alpha Z        PSCENC =      2652.81237852
  Ewald energy   TEWEN  =    -41969.36939108
  -Hartree energ DENC   =    -25650.96100854
  -exchange      EXHF   =         0.00000000
  -V(xc)+E(xc)   XCENC  =      3605.72103595
  PAW double counting   =     55594.23204139   -59034.67079123
  entropy T*S    EENTRO =        -0.00000019
  eigenvalues    EBANDS =    -10273.50555813
  atomic energy  EATOM  =     73862.19814772
  Solvation  Ediel_sol  =         0.00000000
  ---------------------------------------------------
  free energy    TOTEN  =     -1213.54314559 eV

  energy without entropy =    -1213.54314540  energy(sigma->0) =    -1213.54314549


--------------------------------------------------------------------------------------------------------




--------------------------------------- Iteration      1(  12)  ---------------------------------------


    EDDIAG:  cpu time    3.6900: real time    3.6928
  RMM-DIIS:  cpu time   16.0875: real time   16.1391
    ORTHCH:  cpu time    1.1377: real time    1.1398
       DOS:  cpu time    0.0012: real time    0.0012
    CHARGE:  cpu time    1.3398: real time    1.3404
    MIXING:  cpu time    0.0013: real time    0.0014
    --------------------------------------------
      LOOP:  cpu time   22.2576: real time   22.3148

 eigenvalue-minimisations  : 22833
 total energy-change (2. order) : 0.1426749E+00  (-0.2991542E+00)
 number of electron     671.9999552 magnetization      47.9999950
 augmentation part      239.0619448 magnetization      29.0396045

 Broyden mixing:
  rms(total) = 0.12560E+02    rms(broyden)= 0.12551E+02
  rms(prec ) = 0.14410E+02
  weight for this iteration     100.00

 Free energy of the ion-electron system (eV)
  ---------------------------------------------------
  alpha Z        PSCENC =      2652.81237852
  Ewald energy   TEWEN  =    -41969.36939108
  -Hartree energ DENC   =    -25650.96100854
  -exchange      EXHF   =         0.00000000
  -V(xc)+E(xc)   XCENC  =      3605.72103595
  PAW double counting   =     55594.23204139   -59034.67079123
  entropy T*S    EENTRO =        -0.00000017
  eigenvalues    EBANDS =    -10273.36288325
  atomic energy  EATOM  =     73862.19814772
  Solvation  Ediel_sol  =         0.00000000
  ---------------------------------------------------
  free energy    TOTEN  =     -1213.40047068 eV

  energy without entropy =    -1213.40047052  energy(sigma->0) =    -1213.40047060


--------------------------------------------------------------------------------------------------------




--------------------------------------- Iteration      1(  13)  ---------------------------------------


    POTLOK:  cpu time    0.1948: real time    0.1955
    SETDIJ:  cpu time    3.3085: real time    3.3096
    EDDIAG:  cpu time    3.7211: real time    3.7240
  RMM-DIIS:  cpu time   13.0702: real time   13.0749
    ORTHCH:  cpu time    1.1514: real time    1.1542
       DOS:  cpu time    0.0014: real time    0.0014
    CHARGE:  cpu time    1.3412: real time    1.3415
    MIXING:  cpu time    0.0011: real time    0.0012
    --------------------------------------------
      LOOP:  cpu time   22.7896: real time   22.8023

 eigenvalue-minimisations  : 17298
 total energy-change (2. order) : 0.2244221E+03  (-0.1381466E+03)
 number of electron     671.9999602 magnetization      47.9999937
 augmentation part      268.8724206 magnetization      26.6432218

 Broyden mixing:
  rms(total) = 0.13900E+02    rms(broyden)= 0.13897E+02
  rms(prec ) = 0.15608E+02
  weight for this iteration     100.00

 eigenvalues of (default mixing * dielectric matrix)
  average eigenvalue GAMMA=   0.3176
  0.3176

 Free energy of the ion-electron system (eV)
  ---------------------------------------------------
  alpha Z        PSCENC =      2652.81237852
  Ewald energy   TEWEN  =    -41969.36939108
  -Hartree energ DENC   =    -24978.56451746
  -exchange      EXHF   =         0.00000000
  -V(xc)+E(xc)   XCENC  =      3696.06779052
  PAW double counting   =     59892.91568832   -63318.06488787
  entropy T*S    EENTRO =        -0.07034388
  eigenvalues    EBANDS =    -10826.90322726
  atomic energy  EATOM  =     73862.19814772
  Solvation  Ediel_sol  =         0.00000000
  ---------------------------------------------------
  free energy    TOTEN  =      -988.97836247 eV

  energy without entropy =     -988.90801859  energy(sigma->0) =     -988.94319053


--------------------------------------------------------------------------------------------------------




--------------------------------------- Iteration      1(  14)  ---------------------------------------


    POTLOK:  cpu time    0.2026: real time    0.2029
    SETDIJ:  cpu time    3.2872: real time    3.3100
    EDDIAG:  cpu time    3.7369: real time    3.7389
  RMM-DIIS:  cpu time   13.6896: real time   13.6962
    ORTHCH:  cpu time    1.1545: real time    1.1567
       DOS:  cpu time    0.0010: real time    0.0010
    CHARGE:  cpu time    1.3404: real time    1.3409
    MIXING:  cpu time    0.0007: real time    0.0007
    --------------------------------------------
      LOOP:  cpu time   23.4129: real time   23.4472

 eigenvalue-minimisations  : 17753
 total energy-change (2. order) : 0.7479092E+02  (-0.1873202E+02)
 number of electron     671.9999569 magnetization      47.9999900
 augmentation part      246.6447394 magnetization      32.2142154

 Broyden mixing:
  rms(total) = 0.52493E+01    rms(broyden)= 0.52450E+01
  rms(prec ) = 0.56523E+01
  weight for this iteration     100.00

 eigenvalues of (default mixing * dielectric matrix)
  average eigenvalue GAMMA=   0.7306
  1.1015  0.3597

 Free energy of the ion-electron system (eV)
  ---------------------------------------------------
  alpha Z        PSCENC =      2652.81237852
  Ewald energy   TEWEN  =    -41969.36939108
  -Hartree energ DENC   =    -25588.50046685
  -exchange      EXHF   =         0.00000000
  -V(xc)+E(xc)   XCENC  =      3673.78103023
  PAW double counting   =     63310.90640834   -66793.14441852
  entropy T*S    EENTRO =        -0.00000000
  eigenvalues    EBANDS =    -10062.87113061
  atomic energy  EATOM  =     73862.19814772
  Solvation  Ediel_sol  =         0.00000000
  ---------------------------------------------------
  free energy    TOTEN  =      -914.18744226 eV

  energy without entropy =     -914.18744226  energy(sigma->0) =     -914.18744226


--------------------------------------------------------------------------------------------------------




--------------------------------------- Iteration      1(  15)  ---------------------------------------


    POTLOK:  cpu time    0.2166: real time    0.2177
    SETDIJ:  cpu time    3.3121: real time    3.3129
    EDDIAG:  cpu time    3.7611: real time    3.7906
  RMM-DIIS:  cpu time   13.7183: real time   13.7234
    ORTHCH:  cpu time    1.1408: real time    1.1430
       DOS:  cpu time    0.0010: real time    0.0010
    CHARGE:  cpu time    1.3418: real time    1.3423
    MIXING:  cpu time    0.0006: real time    0.0006
    --------------------------------------------
      LOOP:  cpu time   23.4923: real time   23.5314

 eigenvalue-minimisations  : 18425
 total energy-change (2. order) : 0.1336047E+02  (-0.1950037E+01)
 number of electron     671.9999579 magnetization      47.9999875
 augmentation part      249.6765480 magnetization      33.8167191

 Broyden mixing:
  rms(total) = 0.21068E+01    rms(broyden)= 0.21065E+01
  rms(prec ) = 0.21832E+01
  weight for this iteration     100.00

 eigenvalues of (default mixing * dielectric matrix)
  average eigenvalue GAMMA=   0.9674
  0.3851  0.7663  1.7509

 Free energy of the ion-electron system (eV)
  ---------------------------------------------------
  alpha Z        PSCENC =      2652.81237852
  Ewald energy   TEWEN  =    -41969.36939108
  -Hartree energ DENC   =    -25507.67116381
  -exchange      EXHF   =         0.00000000
  -V(xc)+E(xc)   XCENC  =      3706.25484436
  PAW double counting   =     67414.00440753   -70936.77097099
  entropy T*S    EENTRO =        -0.00000000
  eigenvalues    EBANDS =    -10122.28522387
  atomic energy  EATOM  =     73862.19814772
  Solvation  Ediel_sol  =         0.00000000
  ---------------------------------------------------
  free energy    TOTEN  =      -900.82697163 eV

  energy without entropy =     -900.82697163  energy(sigma->0) =     -900.82697163


--------------------------------------------------------------------------------------------------------




--------------------------------------- Iteration      1(  16)  ---------------------------------------


    POTLOK:  cpu time    0.2000: real time    0.2001
    SETDIJ:  cpu time    3.3482: real time    3.3493
    EDDIAG:  cpu time    3.7091: real time    3.7111
  RMM-DIIS:  cpu time   13.1022: real time   13.1301
    ORTHCH:  cpu time    1.1475: real time    1.1503
       DOS:  cpu time    0.0013: real time    0.0013
    CHARGE:  cpu time    1.3381: real time    1.3385
    MIXING:  cpu time    0.0009: real time    0.0009
    --------------------------------------------
      LOOP:  cpu time   22.8474: real time   22.8816

 eigenvalue-minimisations  : 17343
 total energy-change (2. order) :-0.1621094E+01  (-0.6895847E+00)
 number of electron     671.9999582 magnetization      47.9999869
 augmentation part      251.2159987 magnetization      33.9026618

 Broyden mixing:
  rms(total) = 0.13645E+01    rms(broyden)= 0.13639E+01
  rms(prec ) = 0.14600E+01
  weight for this iteration     100.00

 eigenvalues of (default mixing * dielectric matrix)
  average eigenvalue GAMMA=   0.9792
  2.0765  0.9081  0.3922  0.5400

 Free energy of the ion-electron system (eV)
  ---------------------------------------------------
  alpha Z        PSCENC =      2652.81237852
  Ewald energy   TEWEN  =    -41969.36939108
  -Hartree energ DENC   =    -25455.06424187
  -exchange      EXHF   =         0.00000000
  -V(xc)+E(xc)   XCENC  =      3707.56504574
  PAW double counting   =     70425.38610893   -73978.68477318
  entropy T*S    EENTRO =        -0.00000000
  eigenvalues    EBANDS =    -10147.29134062
  atomic energy  EATOM  =     73862.19814772
  Solvation  Ediel_sol  =         0.00000000
  ---------------------------------------------------
  free energy    TOTEN  =      -902.44806586 eV

  energy without entropy =     -902.44806586  energy(sigma->0) =     -902.44806586


--------------------------------------------------------------------------------------------------------




--------------------------------------- Iteration      1(  17)  ---------------------------------------


    POTLOK:  cpu time    0.2034: real time    0.2043
    SETDIJ:  cpu time    3.3516: real time    3.3524
    EDDIAG:  cpu time    3.7187: real time    3.7207
  RMM-DIIS:  cpu time   13.7533: real time   13.7834
    ORTHCH:  cpu time    1.1475: real time    1.1496
       DOS:  cpu time    0.0010: real time    0.0010
    CHARGE:  cpu time    1.3671: real time    1.3677
    MIXING:  cpu time    0.0016: real time    0.0016
    --------------------------------------------
      LOOP:  cpu time   23.5441: real time   23.5805

 eigenvalue-minimisations  : 18550
 total energy-change (2. order) : 0.2220016E+00  (-0.9219455E-01)
 number of electron     671.9999582 magnetization      47.9999865
 augmentation part      251.0500072 magnetization      33.8954464

 Broyden mixing:
  rms(total) = 0.73679E+00    rms(broyden)= 0.73671E+00
  rms(prec ) = 0.82779E+00
  weight for this iteration     100.00

 eigenvalues of (default mixing * dielectric matrix)
  average eigenvalue GAMMA=   1.0101
  2.2457  1.1419  0.3834  0.7067  0.5727

 Free energy of the ion-electron system (eV)
  ---------------------------------------------------
  alpha Z        PSCENC =      2652.81237852
  Ewald energy   TEWEN  =    -41969.36939108
  -Hartree energ DENC   =    -25448.87525646
  -exchange      EXHF   =         0.00000000
  -V(xc)+E(xc)   XCENC  =      3704.45373327
  PAW double counting   =     71205.05062017   -74766.00396934
  entropy T*S    EENTRO =        -0.00000000
  eigenvalues    EBANDS =    -10142.49232702
  atomic energy  EATOM  =     73862.19814772
  Solvation  Ediel_sol  =         0.00000000
  ---------------------------------------------------
  free energy    TOTEN  =      -902.22606422 eV

  energy without entropy =     -902.22606422  energy(sigma->0) =     -902.22606422


--------------------------------------------------------------------------------------------------------




--------------------------------------- Iteration      1(  18)  ---------------------------------------


    POTLOK:  cpu time    0.1978: real time    0.1979
    SETDIJ:  cpu time    3.3274: real time    3.3279
    EDDIAG:  cpu time    3.7012: real time    3.7045
  RMM-DIIS:  cpu time   13.4892: real time   13.4944
    ORTHCH:  cpu time    1.1551: real time    1.1572
       DOS:  cpu time    0.0010: real time    0.0010
    CHARGE:  cpu time    1.3406: real time    1.3410
    MIXING:  cpu time    0.0009: real time    0.0009
    --------------------------------------------
      LOOP:  cpu time   23.2131: real time   23.2249

 eigenvalue-minimisations  : 17575
 total energy-change (2. order) : 0.3665527E+00  (-0.7088175E-01)
 number of electron     671.9999580 magnetization      47.9999863
 augmentation part      250.5626064 magnetization      33.8560505

 Broyden mixing:
  rms(total) = 0.26267E+00    rms(broyden)= 0.26237E+00
  rms(prec ) = 0.27551E+00
  weight for this iteration     100.00

 eigenvalues of (default mixing * dielectric matrix)
  average eigenvalue GAMMA=   1.0239
[...]
   4      -0.818    -0.635     1.453    -0.129    -0.345    -0.176
   5      -0.541    -0.758     1.299    -0.068     0.005    -0.243
   6      -0.837    -0.875     1.712    -0.003     0.010    -0.101
   7      -1.060    -0.887     1.947     0.096     0.028     0.057
   8      -0.972    -0.785     1.757     0.019    -0.165     0.109
   9      -0.804    -0.857     1.661    -0.112     0.380     0.293
  10      -0.867    -0.658     1.525     0.108    -0.367     0.245
  11      -0.873    -0.699     1.572     0.107    -0.413     0.260
  12      -0.778    -0.542     1.321    -0.052    -0.332    -0.263
  13      -0.689    -0.800     1.489    -0.016    -0.010     0.508
  14      -0.604    -0.837     1.441     0.022    -0.030     0.535
  15      -0.859    -0.774     1.633    -0.125     0.527     0.190
  16      -1.111    -0.909     2.021    -0.007     0.017    -0.035
  17       1.566     1.327    -2.893     0.065     0.066     0.101
  18       1.332     1.434    -2.766    -0.099     0.076     0.016
  19       1.522     1.445    -2.967    -0.030    -0.154    -0.021
  20       1.505     1.389    -2.893    -0.058    -0.142     0.051
  21       1.593     1.476    -3.069    -0.029    -0.095    -0.095
  22       1.430     1.400    -2.831     0.095     0.002    -0.123
  23       1.497     1.319    -2.816    -0.025     0.097     0.044
  24       1.368     1.418    -2.786     0.097    -0.063     0.072
  25      -0.740     0.453     0.287    -0.760     0.280     0.922
  26      -0.119    -1.302     1.421    -0.569     0.904     0.815
  27      -0.278     1.347    -1.069     0.743    -0.633     0.176
  28       1.378    -1.325    -0.053     1.596     0.048     0.267
  29      -1.716     0.297     1.419    -1.223     0.519     1.170
  30      -1.473     0.256     1.217    -0.049    -1.086    -0.036
  31       0.384    -0.103    -0.282    -0.829    -0.842    -1.252
  32      -0.204     1.650    -1.445     0.338     1.093     0.818
  33      -1.478     0.959     0.519     1.701    -2.660    -0.266
  34      -2.127     1.383     0.744     0.556    -0.723    -0.487
  35       0.115    -0.020    -0.095    -0.025     0.409     0.626
  36       1.726    -0.052    -1.675     0.395    -0.879     0.761
  37       0.716    -1.526     0.811     0.231     0.745    -0.785
  38       0.666     0.096    -0.762     1.506    -0.691    -0.760
  39       1.311    -0.117    -1.194     0.762     0.743     1.385
  40      -0.027     0.795    -0.768    -0.478    -2.702    -0.575
  41      -2.572     1.339     1.233    -4.443     4.019    -3.600
  42      -3.352     1.535     1.818     5.437     2.854     5.039
  43       5.177    -6.252     1.075     0.024    -4.622    -2.002
  44      -1.152     0.643     0.509     6.130    -3.601    -3.816
  45      -3.784     3.214     0.569    -4.199    -1.520     5.143
  46       6.253    -5.738    -0.515     0.562     4.487    -1.166
  47      -2.520     2.188     0.332    -5.592     3.490    -3.100
  48       3.785    -6.175     2.390     1.432    -5.366    -0.115
  49      -2.979     2.006     0.973     4.395     2.641     4.358
  50       6.011    -5.726    -0.286    -1.703     3.007     0.194
  51      -2.840     2.901    -0.061    -4.808    -4.071     2.741
  52      -1.668     2.888    -1.220     6.881    -2.563    -2.824
  53      -3.478     2.726     0.752    -4.758     1.480    -6.221
  54      -2.504     2.149     0.355     4.945     0.692     4.173
  55       5.897    -5.849    -0.048     0.679    -4.700     0.148
  56      -4.226     3.429     0.796     3.869    -2.583    -4.037
  57      -3.366     2.725     0.641    -5.070    -0.766     3.331
  58       7.007    -5.906    -1.101    -1.206     4.225    -0.226
  59      -3.874     3.247     0.627    -5.205     2.004    -3.260
  60       4.307    -6.153     1.846     0.553    -5.513    -0.999
  61      -3.478     2.753     0.725     4.413     3.751     3.540
  62       7.825    -7.514    -0.311    -0.239     4.493     0.476
  63      -4.653     2.895     1.758    -4.404    -3.396     4.543
  64      -2.189     2.043     0.147     5.176    -2.241    -4.835
  65      -3.233     3.634    -0.401    -4.580     1.393    -3.125
  66      -2.825     1.803     1.022     4.938     2.795     4.475
  67       3.525    -6.486     2.961    -0.512    -4.499     1.506
  68      -3.391     3.189     0.202     5.084    -2.255    -3.132
  69      -2.327     3.644    -1.318    -7.100    -1.913     2.761
  70       7.167    -5.522    -1.645     0.408     4.103     1.840
  71      -2.604     3.864    -1.260    -4.130     0.947    -4.824
  72       3.223    -4.735     1.512    -0.721    -4.974    -0.101
  73      -3.311     2.157     1.153     4.410     2.732     3.267
  74       4.605    -6.474     1.869     0.063     3.917    -1.742
  75      -1.821     0.869     0.952    -5.309    -2.702     4.172
  76      -1.646     0.696     0.950     6.155    -2.948    -3.203
  77      -2.211     1.182     1.029    -5.278     4.196    -4.130
  78      -4.475     5.260    -0.785     4.561     2.909     3.651
  79       3.583    -5.035     1.452     0.925    -4.680     1.592
  80      -3.196     2.928     0.268     6.388    -2.136    -3.115
  81      -2.586     2.199     0.386    -5.934    -2.483     3.463
  82       6.179    -5.100    -1.079    -2.145     3.800     0.043
  83      -1.026     0.654     0.373    -6.193     2.373    -5.152
  84       4.873    -6.174     1.301    -0.961    -3.634     0.145
  85      -4.416     4.603    -0.187     5.033     0.318     5.310
  86       6.866    -6.312    -0.554     1.073     3.887     0.452
  87      -3.594     3.010     0.583    -4.901    -2.589     3.197
  88      -3.939     3.343     0.595     5.668    -2.093    -2.902
 ---------------------------------------------------------------------


 Total hyperfine coupling parameters after diagonalization (MHz)
 (convention: |A_zz| > |A_xx| > |A_yy|)
 ----------------------------------------------------------------------
  ion      A_xx      A_yy      A_zz     asymmetry (A_yy - A_xx)/ A_zz 
 ----------------------------------------------------------------------
   1       1.004     0.733     2.821      -0.096
   2       1.003     0.842     2.899      -0.056
   3       1.727     1.265     3.868      -0.119
   4       2.114     1.734     4.198      -0.090
   5       2.032     1.753     3.884      -0.072
   6       0.832     0.790     3.385      -0.012
   7      -0.247     0.010     2.805       0.092
   8       0.182    -0.017     2.739      -0.073
   9       2.409     2.101     4.875      -0.063
  10       2.201     1.827     4.418      -0.085
  11       1.612     1.246     3.926      -0.093
  12       0.928     0.615     2.878      -0.109
  13       1.646     1.425     3.930      -0.056
  14       2.198     1.841     4.361      -0.082
  15       2.289     1.920     4.730      -0.078
  16      -0.594    -0.392     2.539       0.080
  17      13.708     9.499    13.981      -0.301
  18      12.448     8.407    12.669      -0.319
  19      14.967    10.559    15.068      -0.293
  20      14.452    10.189    14.621      -0.292
  21      15.811    11.266    15.939      -0.285
  22      14.509    10.354    14.701      -0.283
  23      13.603     9.469    13.790      -0.300
  24      13.727     9.644    13.926      -0.293
  25      94.353    92.919    95.691      -0.015
  26      98.402    96.513   100.344      -0.019
  27      95.359    93.959    97.114      -0.014
  28      94.578    92.529    96.747      -0.021
  29      96.754    93.836    98.550      -0.030
  30      98.509    96.393    99.853      -0.021
  31      96.775    93.794    96.892      -0.031
  32      95.635    93.343    97.533      -0.023
  33      97.913    93.668   100.445      -0.042
  34      97.665    94.792    98.967      -0.029
  35      96.870    95.973    97.475      -0.009
  36      93.828    91.369    95.543      -0.026
  37      98.651    96.532    99.949      -0.021
  38      94.726    94.448    97.973      -0.003
  39      97.767    95.613    99.916      -0.022
  40      94.990    90.795    96.387      -0.044
  41       3.550    -0.056    14.063      -0.256
  42       6.619     2.281    18.610      -0.233
  43       5.307    -0.209    14.953      -0.369
  44       4.179     0.387    15.978      -0.237
  45       5.254     2.095    16.679      -0.189
  46       5.806     1.853    16.563      -0.239
  47       5.127     0.555    15.506      -0.295
  48       5.170     0.873    15.905      -0.270
  49       4.882     1.972    15.685      -0.186
  50       6.562     1.868    15.302      -0.307
  51       4.463    -0.528    14.119      -0.353
  52       3.239    -0.884    15.028      -0.274
  53      -2.380     1.357    13.988       0.267
  54       7.519     2.663    16.310      -0.298
  55       4.914     1.556    15.992      -0.210
  56       3.498    -0.360    13.736      -0.281
  57       7.495     1.954    15.583      -0.356
  58       4.978     1.833    16.763      -0.188
  59       6.623     1.342    15.949      -0.331
  60       5.361     1.604    16.681      -0.225
  61       4.610     0.190    14.805      -0.299
  62       8.243     2.925    20.312      -0.262
  63       5.608     0.926    16.976      -0.276
  64       2.322    -0.645    13.971      -0.212
  65       5.788     2.148    15.097      -0.241
  66       2.849    -0.470    14.105      -0.235
  67       7.435     1.875    16.488      -0.337
  68       5.883     1.350    15.421      -0.294
  69       6.988     2.312    18.768      -0.249
  70       6.126     2.230    17.468      -0.223
  71       4.753     2.285    15.930      -0.155
  72       2.317    -0.023    12.298      -0.190
  73       3.747    -0.597    12.711      -0.342
  74       6.505     0.172    14.518      -0.436
  75       2.143    -1.511    12.811      -0.285
  76       6.011     0.860    15.954      -0.323
  77       7.976     4.627    20.090      -0.167
  78       3.597    -0.689    15.109      -0.284
  79       3.786    -0.782    12.487      -0.366
  80       6.509     0.717    16.587      -0.349
  81       4.239    -0.495    14.553      -0.325
  82       1.925    -1.277    12.468      -0.257
  83       7.864     3.375    19.722      -0.228
  84       7.220     1.894    15.350      -0.347
  85       6.381     1.221    18.013      -0.287
  86       9.642     5.457    20.481      -0.204
  87       7.679     2.924    17.106      -0.278
  88       7.140     1.130    16.311      -0.368
 ---------------------------------------------------------------------



--------------------------------------------------------------------------------------------------------


 stress matrix after NEB project (eV)
    -44.94279      0.16040     -1.05460
      0.14723    -47.93218      1.01259
     -0.99764      1.01431    -58.47726
  FORCES: max atom, RMS     2.166835    1.083955
  FORCE total and by dimension   10.168402    1.890300
  Stress total and by dimension   87.983791   58.477258
     LOOP+:  cpu time  648.7383: real time  649.9994
    4ORBIT:  cpu time    0.0000: real time    0.0000
 


 total charge     
 
# of ion       s       p       d       tot
------------------------------------------
    1        0.046   5.988   0.000   6.034
    2        0.051   5.994   0.000   6.045
    3        0.053   5.997   0.000   6.049
    4        0.049   5.991   0.000   6.040
    5        0.055   5.997   0.000   6.052
    6        0.050   5.994   0.000   6.044
    7        0.053   5.998   0.000   6.051
    8        0.054   5.999   0.000   6.053
    9        0.051   5.994   0.000   6.045
   10        0.051   5.992   0.000   6.043
   11        0.048   5.990   0.000   6.039
   12        0.052   5.994   0.000   6.046
   13        0.048   5.990   0.000   6.039
   14        0.049   5.991   0.000   6.040
   15        0.054   5.997   0.000   6.051
   16        0.053   5.998   0.000   6.051
   17        0.152   6.132   0.086   6.370
   18        0.142   6.117   0.074   6.333
   19        0.153   6.134   0.088   6.375
   20        0.147   6.124   0.081   6.352
   21        0.159   6.144   0.097   6.400
   22        0.142   6.117   0.075   6.335
   23        0.145   6.121   0.078   6.345
   24        0.138   6.109   0.069   6.316
   25        0.383   6.472   4.839  11.694
   26        0.367   6.438   4.810  11.615
   27        0.367   6.437   4.807  11.611
   28        0.386   6.480   4.859  11.726
   29        0.370   6.444   4.821  11.635
   30        0.369   6.442   4.809  11.621
   31        0.373   6.447   4.822  11.642
   32        0.378   6.460   4.838  11.677
   33        0.380   6.466   4.845  11.692
   34        0.368   6.440   4.809  11.617
   35        0.380   6.466   4.840  11.686
   36        0.384   6.471   4.847  11.702
   37        0.375   6.454   4.831  11.660
   38        0.381   6.466   4.847  11.694
   39        0.379   6.464   4.850  11.694
   40        0.381   6.470   4.847  11.698
   41        1.600   3.524   0.000   5.124
   42        1.601   3.508   0.000   5.109
   43        1.599   3.543   0.000   5.142
   44        1.600   3.487   0.000   5.087
   45        1.600   3.498   0.000   5.097
   46        1.600   3.516   0.000   5.116
   47        1.599   3.487   0.000   5.086
   48        1.600   3.527   0.000   5.128
   49        1.597   3.483   0.000   5.080
   50        1.597   3.474   0.000   5.071
   51        1.597   3.495   0.000   5.092
   52        1.599   3.504   0.000   5.103
   53        1.598   3.463   0.000   5.062
   54        1.597   3.504   0.000   5.101
   55        1.598   3.500   0.000   5.098
   56        1.595   3.485   0.000   5.080
   57        1.598   3.530   0.000   5.129
   58        1.601   3.492   0.000   5.094
   59        1.600   3.536   0.000   5.136
   60        1.599   3.507   0.000   5.106
   61        1.599   3.504   0.000   5.103
   62        1.604   3.517   0.000   5.121
   63        1.599   3.494   0.000   5.093
   64        1.600   3.495   0.000   5.095
   65        1.595   3.488   0.000   5.083
   66        1.598   3.508   0.000   5.106
   67        1.599   3.509   0.000   5.108
   68        1.602   3.530   0.000   5.132
   69        1.601   3.500   0.000   5.101
   70        1.600   3.507   0.000   5.107
   71        1.601   3.484   0.000   5.085
   72        1.597   3.491   0.000   5.088
   73        1.600   3.538   0.000   5.138
   74        1.600   3.526   0.000   5.126
   75        1.598   3.502   0.000   5.100
   76        1.596   3.508   0.000   5.105
   77        1.602   3.501   0.000   5.103
   78        1.602   3.515   0.000   5.117
   79        1.597   3.508   0.000   5.105
   80        1.602   3.497   0.000   5.098
   81        1.598   3.491   0.000   5.089
   82        1.598   3.473   0.000   5.071
   83        1.602   3.472   0.000   5.073
   84        1.598   3.540   0.000   5.138
   85        1.600   3.504   0.000   5.105
   86        1.601   3.504   0.000   5.105
   87        1.598   3.496   0.000   5.094
   88        1.598   3.521   0.000   5.120
--------------------------------------------------
tot         84.779 416.409  77.972 579.160
 


 magnetization (x)
 
# of ion       s       p       d       tot
------------------------------------------
    1        0.001   0.001   0.000   0.002
    2        0.001   0.000   0.000   0.002
    3        0.002   0.000   0.000   0.002
    4        0.002   0.001   0.000   0.002
    5        0.002   0.001   0.000   0.002
    6        0.001   0.001   0.000   0.002
    7        0.001   0.000   0.000   0.001
    8        0.001   0.000   0.000   0.001
    9        0.002   0.000   0.000   0.003
   10        0.002   0.000   0.000   0.003
   11        0.002  -0.000   0.000   0.002
   12        0.001   0.000   0.000   0.001
   13        0.002   0.000   0.000   0.002
   14        0.002   0.000   0.000   0.002
   15        0.002   0.000   0.000   0.002
   16        0.000   0.000   0.000   0.001
   17        0.007   0.002   0.001   0.010
   18        0.006   0.001   0.001   0.009
   19        0.008   0.003   0.001   0.011
   20        0.008   0.002   0.001   0.011
   21        0.008   0.003   0.001   0.012
   22        0.007   0.002   0.001   0.010
   23        0.007   0.002   0.001   0.010
   24        0.007   0.001   0.001   0.010
   25        0.015   0.030   2.744   2.789
   26        0.016   0.030   2.783   2.829
   27        0.015   0.030   2.781   2.825
   28        0.015   0.032   2.715   2.762
   29        0.015   0.030   2.774   2.819
   30        0.016   0.030   2.775   2.821
   31        0.015   0.030   2.768   2.813
   32        0.015   0.030   2.744   2.789
   33        0.016   0.031   2.741   2.787
   34        0.015   0.030   2.769   2.814
   35        0.016   0.032   2.746   2.794
   36        0.014   0.031   2.734   2.779
   37        0.016   0.030   2.752   2.798
   38        0.015   0.030   2.731   2.777
   39        0.016   0.031   2.734   2.781
   40        0.015   0.030   2.739   2.784
   41        0.002   0.026   0.000   0.028
   42        0.002   0.048   0.000   0.051
   43        0.002   0.038   0.000   0.039
   44        0.002   0.032   0.000   0.034
   45        0.002   0.037   0.000   0.040
   46        0.002   0.031   0.000   0.033
   47        0.002   0.029   0.000   0.031
   48        0.002   0.029   0.000   0.031
   49        0.002   0.025   0.000   0.027
   50        0.002   0.035   0.000   0.037
   51        0.002   0.023   0.000   0.025
   52        0.002   0.024   0.000   0.025
   53        0.002  -0.001   0.000   0.000
   54        0.002   0.042   0.000   0.044
   55        0.002   0.031   0.000   0.033
   56        0.002   0.019   0.000   0.021
   57        0.002   0.042   0.000   0.044
   58        0.002   0.030   0.000   0.033
   59        0.002   0.043   0.000   0.045
   60        0.002   0.037   0.000   0.039
   61        0.002   0.028   0.000   0.030
   62        0.003   0.063   0.000   0.065
   63        0.002   0.034   0.000   0.036
   64        0.002   0.012   0.000   0.014
   65        0.002   0.039   0.000   0.041
   66        0.002   0.020   0.000   0.021
   67        0.002   0.042   0.000   0.045
   68        0.002   0.036   0.000   0.038
   69        0.002   0.049   0.000   0.052
   70        0.002   0.042   0.000   0.044
   71        0.002   0.021   0.000   0.023
   72        0.002   0.012   0.000   0.013
   73        0.001   0.027   0.000   0.029
   74        0.002   0.040   0.000   0.042
   75        0.001   0.013   0.000   0.014
   76        0.002   0.036   0.000   0.038
   77        0.003   0.056   0.000   0.059
   78        0.002   0.017   0.000   0.018
   79        0.001   0.015   0.000   0.017
   80        0.002   0.043   0.000   0.045
   81        0.002   0.026   0.000   0.028
   82        0.002   0.003   0.000   0.005
   83        0.003   0.049   0.000   0.052
   84        0.002   0.041   0.000   0.043
   85        0.002   0.049   0.000   0.051
   86        0.003   0.069   0.000   0.072
   87        0.002   0.044   0.000   0.047
   88        0.002   0.046   0.000   0.048
--------------------------------------------------
tot          0.419   2.098  44.041  46.557
 

 total amount of memory used by VASP MPI-rank0    88170. kBytes
=======================================================================

   base      :      30000. kBytes
   nonlr-proj:      13661. kBytes
   fftplans  :        992. kBytes
   grid      :      21513. kBytes
   one-center:       2737. kBytes
   wavefun   :      19267. kBytes
 
  
  
 General timing and accounting informations for this job:
 ========================================================
  
                  Total CPU time used (sec):      667.294
                            User time (sec):      661.473
                          System time (sec):        5.821
                         Elapsed time (sec):      671.337
  
                   Maximum memory used (kb):      182696.
                   Average memory used (kb):           0.
  
                          Minor page faults:       291954
                          Major page faults:            0
                 Voluntary context switches:         3808
