 vasp.5.4.4.18Apr17-6-g9f103f2a35 (build Dec 02 2020 12:53:39) complex          
  
 executed on             LinuxIFC date 2021.07.31  11:01:28
 running on  112 total cores
 distrk:  each k-point on  112 cores,    1 groups
 distr:  one band on NCORES_PER_BAND=   1 cores,  112 groups


--------------------------------------------------------------------------------------------------------


 INCAR:
 POTCAR:    PAW_PBE Na_pv 19Sep2006               
 POTCAR:    PAW_PBE Mg_pv 13Apr2007               
 POTCAR:    PAW_PBE Mn_pv 02Aug2007               
 POTCAR:    PAW_PBE O 08Apr2002                   

 ----------------------------------------------------------------------------- 
|                                                                             |
|           W    W    AA    RRRRR   N    N  II  N    N   GGGG   !!!           |
|           W    W   A  A   R    R  NN   N  II  NN   N  G    G  !!!           |
|           W    W  A    A  R    R  N N  N  II  N N  N  G       !!!           |
|           W WW W  AAAAAA  RRRRR   N  N N  II  N  N N  G  GGG   !            |
|           WW  WW  A    A  R   R   N   NN  II  N   NN  G    G                |
|           W    W  A    A  R    R  N    N  II  N    N   GGGG   !!!           |
|                                                                             |
|      For optimal performance we recommend to set                            |
|        NCORE= 4 - approx SQRT( number of cores)                             |
|      NCORE specifies how many cores store one orbital (NPAR=cpu/NCORE).     |
|      This setting can  greatly improve the performance of VASP for DFT.     |
|      The default,   NCORE=1            might be grossly inefficient         |
|      on modern multi-core architectures or massively parallel machines.     |
|      Do your own testing !!!!                                               |
|      Unfortunately you need to use the default for GW and RPA calculations. |
|      (for HF NCORE is supported but not extensively tested yet)             |
|                                                                             |
 ----------------------------------------------------------------------------- 

 POTCAR:    PAW_PBE Na_pv 19Sep2006               
   VRHFIN =Na: p6s1                                                             
   LEXCH  = PE                                                                  
   EATOM  =   766.0439 eV,   56.3026 Ry                                         
                                                                                
   TITEL  = PAW_PBE Na_pv 19Sep2006                                             
   LULTRA =        F    use ultrasoft PP ?                                      
   IUNSCR =        1    unscreen: 0-lin 1-nonlin 2-no                           
   RPACOR =    1.800    partial core radius                                     
   POMASS =   22.990; ZVAL   =    7.000    mass and valenz                      
   RCORE  =    2.200    outmost cutoff radius                                   
   RWIGS  =    2.200; RWIGS  =    1.164    wigner-seitz radius (au A)           
   ENMAX  =  259.561; ENMIN  =  194.671 eV                                      
   ICORE  =        2    local potential                                         
   LCOR   =        T    correct aug charges                                     
   LPAW   =        T    paw PP                                                  
   EAUG   =  368.056                                                            
   DEXC   =    0.000                                                            
   RMAX   =    2.245    core radius for proj-oper                               
   RAUG   =    1.300    factor for augmentation sphere                          
   RDEP   =    2.259    radius for radial grids                                 
   RDEPT  =    1.738    core radius for aug-charge                              
                                                                                
   Atomic configuration                                                         
    5 entries                                                                   
     n  l   j            E        occ.                                          
     1  0  0.50     -1033.6933   2.0000                                         
     2  0  0.50       -56.7526   2.0000                                         
     2  1  1.50       -28.6721   6.0000                                         
     3  0  0.50        -2.7440   1.0000                                         
     3  2  1.50        -1.3606   0.0000                                         
   Description                                                                  
     l       E           TYP  RCUT    TYP  RCUT                                 
     1    -28.6720912     23  2.000                                             
     1      6.8029130     23  2.000                                             
     0     -2.7439560     23  2.200                                             
     0     34.0145650     23  2.200                                             
     2     -1.3605826     23  2.200                                             
  local pseudopotential read in
  partial core-charges read in
  partial kinetic energy density read in
  atomic valenz-charges read in
  non local Contribution for L=           1  read in
    real space projection operators read in
  non local Contribution for L=           1  read in
    real space projection operators read in
  non local Contribution for L=           0  read in
    real space projection operators read in
  non local Contribution for L=           0  read in
    real space projection operators read in
    PAW grid and wavefunctions read in
 
   number of l-projection  operators is LMAX  =           4
   number of lm-projection operators is LMMAX =           8
 
 POTCAR:    PAW_PBE Mg_pv 13Apr2007               
   VRHFIN =Mg: p6s2                                                             
   LEXCH  = PE                                                                  
   EATOM  =  1056.7344 eV,   77.6678 Ry                                         
                                                                                
   TITEL  = PAW_PBE Mg_pv 13Apr2007                                             
   LULTRA =        F    use ultrasoft PP ?                                      
   IUNSCR =        1    unscreen: 0-lin 1-nonlin 2-no                           
   RPACOR =    1.500    partial core radius                                     
   POMASS =   24.305; ZVAL   =    8.000    mass and valenz                      
   RCORE  =    2.000    outmost cutoff radius                                   
   RWIGS  =    2.000; RWIGS  =    1.058    wigner-seitz radius (au A)           
   ENMAX  =  403.929; ENMIN  =  302.947 eV                                      
   RCLOC  =    1.506    cutoff for local pot                                    
   LCOR   =        T    correct aug charges                                     
   LPAW   =        T    paw PP                                                  
   EAUG   =  758.780                                                            
   DEXC   =    0.000                                                            
   RMAX   =    2.045    core radius for proj-oper                               
   RAUG   =    1.300    factor for augmentation sphere                          
   RDEP   =    2.025    radius for radial grids                                 
   RDEPT  =    1.557    core radius for aug-charge                              
                                                                                
   Atomic configuration                                                         
    5 entries                                                                   
     n  l   j            E        occ.                                          
     1  0  0.50     -1259.6230   2.0000                                         
     2  0  0.50       -79.8442   2.0000                                         
     2  1  1.50       -46.6121   6.0000                                         
     3  0  0.50        -4.7055   2.0000                                         
     3  2  1.50        -1.3606   0.0000                                         
   Description                                                                  
     l       E           TYP  RCUT    TYP  RCUT                                 
     1    -46.6121073     23  1.600                                             
     1      2.7211652     23  1.600                                             
     0     -4.7054661     23  2.000                                             
     0     61.2262170     23  2.000                                             
     2     -1.3605826     23  2.000                                             
  local pseudopotential read in
  partial core-charges read in
  partial kinetic energy density read in
  atomic valenz-charges read in
  non local Contribution for L=           1  read in
    real space projection operators read in
  non local Contribution for L=           1  read in
    real space projection operators read in
  non local Contribution for L=           0  read in
    real space projection operators read in
  non local Contribution for L=           0  read in
    real space projection operators read in
  non local Contribution for L=           2  read in
    real space projection operators read in
    PAW grid and wavefunctions read in
 
   number of l-projection  operators is LMAX  =           5
   number of lm-projection operators is LMMAX =          13
 
 POTCAR:    PAW_PBE Mn_pv 02Aug2007               
   VRHFIN =Mn: 3p4s3d                                                           
   LEXCH  = PE                                                                  
   EATOM  =  2025.2664 eV,  148.8529 Ry                                         
                                                                                
   TITEL  = PAW_PBE Mn_pv 02Aug2007                                             
   LULTRA =        F    use ultrasoft PP ?                                      
   IUNSCR =        1    unscreen: 0-lin 1-nonlin 2-no                           
   RPACOR =    2.080    partial core radius                                     
   POMASS =   54.938; ZVAL   =   13.000    mass and valenz                      
   RCORE  =    2.300    outmost cutoff radius                                   
   RWIGS  =    2.500; RWIGS  =    1.323    wigner-seitz radius (au A)           
   ENMAX  =  269.864; ENMIN  =  202.398 eV                                      
   ICORE  =        3    local potential                                         
   LCOR   =        T    correct aug charges                                     
   LPAW   =        T    paw PP                                                  
   EAUG   =  569.085                                                            
   DEXC   =    0.000                                                            
   RMAX   =    2.343    core radius for proj-oper                               
   RAUG   =    1.300    factor for augmentation sphere                          
   RDEP   =    2.338    radius for radial grids                                 
   RDEPT  =    1.798    core radius for aug-charge                              
                                                                                
   Atomic configuration                                                         
    8 entries                                                                   
     n  l   j            E        occ.                                          
     1  0  0.50     -6424.8287   2.0000                                         
     2  0  0.50      -739.1154   2.0000                                         
     2  1  1.50      -625.3949   6.0000                                         
     3  0  0.50       -81.6100   2.0000                                         
     3  1  1.50       -50.4667   6.0000                                         
     3  2  2.50        -3.3745   6.0000                                         
     4  0  0.50        -4.1331   1.0000                                         
     4  3  2.50        -1.3606   0.0000                                         
   Description                                                                  
     l       E           TYP  RCUT    TYP  RCUT                                 
     1    -50.4666628     23  2.000                                             
     1     -1.3605826     23  2.000                                             
     2     -3.3744729     23  2.300                                             
     2     -4.7350555     23  2.300                                             
     0     -4.1331431     23  2.300                                             
     0      7.6656591     23  2.300                                             
     3      9.5240782     23  2.300                                             
  local pseudopotential read in
  partial core-charges read in
  partial kinetic energy density read in
  atomic valenz-charges read in
  non local Contribution for L=           1  read in
    real space projection operators read in
  non local Contribution for L=           1  read in
    real space projection operators read in
  non local Contribution for L=           2  read in
    real space projection operators read in
  non local Contribution for L=           2  read in
    real space projection operators read in
  non local Contribution for L=           0  read in
    real space projection operators read in
  non local Contribution for L=           0  read in
    real space projection operators read in
    PAW grid and wavefunctions read in
 
   number of l-projection  operators is LMAX  =           6
   number of lm-projection operators is LMMAX =          18
 
 POTCAR:    PAW_PBE O 08Apr2002                   
   VRHFIN =O: s2p4                                                              
   LEXCH  = PE                                                                  
   EATOM  =   432.3788 eV,   31.7789 Ry                                         
                                                                                
   TITEL  = PAW_PBE O 08Apr2002                                                 
   LULTRA =        F    use ultrasoft PP ?                                      
   IUNSCR =        1    unscreen: 0-lin 1-nonlin 2-no                           
   RPACOR =    1.200    partial core radius                                     
   POMASS =   16.000; ZVAL   =    6.000    mass and valenz                      
   RCORE  =    1.520    outmost cutoff radius                                   
   RWIGS  =    1.550; RWIGS  =    0.820    wigner-seitz radius (au A)           
   ENMAX  =  400.000; ENMIN  =  300.000 eV                                      
   ICORE  =        2    local potential                                         
   LCOR   =        T    correct aug charges                                     
   LPAW   =        T    paw PP                                                  
   EAUG   =  605.392                                                            
   DEXC   =    0.000                                                            
   RMAX   =    1.553    core radius for proj-oper                               
   RAUG   =    1.300    factor for augmentation sphere                          
   RDEP   =    1.550    radius for radial grids                                 
   RDEPT  =    1.329    core radius for aug-charge                              
                                                                                
   Atomic configuration                                                         
    4 entries                                                                   
     n  l   j            E        occ.                                          
     1  0  0.50      -514.6923   2.0000                                         
     2  0  0.50       -23.9615   2.0000                                         
     2  1  0.50        -9.0305   4.0000                                         
     3  2  1.50        -9.5241   0.0000                                         
   Description                                                                  
     l       E           TYP  RCUT    TYP  RCUT                                 
     0    -23.9615318     23  1.200                                             
     0     -9.5240782     23  1.200                                             
     1     -9.0304911     23  1.520                                             
     1      8.1634956     23  1.520                                             
     2     -9.5240782      7  1.500                                             
  local pseudopotential read in
  partial core-charges read in
  partial kinetic energy density read in
  kinetic energy density of atom read in
  atomic valenz-charges read in
  non local Contribution for L=           0  read in
    real space projection operators read in
  non local Contribution for L=           0  read in
    real space projection operators read in
  non local Contribution for L=           1  read in
    real space projection operators read in
  non local Contribution for L=           1  read in
    real space projection operators read in
    PAW grid and wavefunctions read in
 
   number of l-projection  operators is LMAX  =           4
   number of lm-projection operators is LMMAX =           8
 
 Optimization of the real space projectors (new method)

 maximal supplied QI-value         = 17.01
 optimisation between [QCUT,QGAM] = [ 10.20, 20.41] = [ 29.16,116.64] Ry 
 Optimized for a Real-space Cutoff    1.30 Angstroem

   l    n(q)    QCUT    max X(q) W(low)/X(q) W(high)/X(q)  e(spline) 
   1      7    10.205     4.940    0.23E-03    0.84E-03    0.11E-06
   1      7    10.205     6.253    0.40E-03    0.13E-02    0.18E-06
   0      8    10.205    37.438    0.23E-03    0.37E-03    0.42E-07
   0      8    10.205     9.606    0.16E-03    0.26E-03    0.31E-07
 Optimization of the real space projectors (new method)

 maximal supplied QI-value         = 18.90
 optimisation between [QCUT,QGAM] = [ 10.20, 20.41] = [ 29.16,116.64] Ry 
 Optimized for a Real-space Cutoff    1.26 Angstroem

   l    n(q)    QCUT    max X(q) W(low)/X(q) W(high)/X(q)  e(spline) 
   1      7    10.205     2.974    0.63E-04    0.14E-03    0.13E-06
   1      7    10.205     4.279    0.11E-03    0.45E-03    0.24E-06
   0      8    10.205    16.381    0.44E-03    0.15E-03    0.55E-07
   0      8    10.205     5.611    0.31E-03    0.11E-03    0.40E-07
   2      7    10.205     4.652    0.50E-03    0.47E-03    0.57E-07
 Optimization of the real space projectors (new method)

 maximal supplied QI-value         = 16.25
 optimisation between [QCUT,QGAM] = [ 10.24, 20.48] = [ 29.35,117.42] Ry 
 Optimized for a Real-space Cutoff    1.34 Angstroem

   l    n(q)    QCUT    max X(q) W(low)/X(q) W(high)/X(q)  e(spline) 
   1      8    10.239     3.658    0.23E-03    0.30E-03    0.98E-07
   1      8    10.239     5.612    0.32E-03    0.65E-03    0.21E-06
   2      7    10.239    55.373    0.42E-03    0.45E-03    0.65E-07
   2      7    10.239    50.863    0.43E-03    0.48E-03    0.67E-07
   0      8    10.239    79.536    0.11E-03    0.21E-03    0.56E-07
   0      8    10.239    38.668    0.96E-04    0.19E-03    0.52E-07
 Optimization of the real space projectors (new method)

 maximal supplied QI-value         = 24.76
 optimisation between [QCUT,QGAM] = [ 10.15, 20.30] = [ 28.85,115.39] Ry 
 Optimized for a Real-space Cutoff    1.38 Angstroem

   l    n(q)    QCUT    max X(q) W(low)/X(q) W(high)/X(q)  e(spline) 
   0      8    10.150    20.381    0.22E-03    0.32E-03    0.29E-06
   0      8    10.150    15.268    0.23E-03    0.35E-03    0.30E-06
   1      8    10.150     5.964    0.46E-03    0.53E-03    0.21E-06
   1      8    10.150     5.382    0.38E-03    0.45E-03    0.19E-06
  PAW_PBE Na_pv 19Sep2006               :
 energy of atom  1       EATOM= -766.0439
 kinetic energy error for atom=    0.0103 (will be added to EATOM!!)
  PAW_PBE Mg_pv 13Apr2007               :
 energy of atom  2       EATOM=-1056.7344
 kinetic energy error for atom=    0.0820 (will be added to EATOM!!)
  PAW_PBE Mn_pv 02Aug2007               :
 energy of atom  3       EATOM=-2025.2664
 kinetic energy error for atom=    0.0284 (will be added to EATOM!!)
  PAW_PBE O 08Apr2002                   :
 energy of atom  4       EATOM= -432.3788
 kinetic energy error for atom=    0.1156 (will be added to EATOM!!)
 
 
 POSCAR: Na Mg Mn  O                             
  positions in cartesian coordinates
  No initial velocities read in

 METAGGA = SCAN     LMAXTAU =  6    LMIXTAU =  F

 exchange correlation table for  LEXCH =        8
   RHO(1)=    0.500       N(1)  =     2000
   RHO(2)=  100.500       N(2)  =     4000

 VTST: version 3.2, (02/03/18)

 CHAIN: initializing optimizer
 
 OPT: Using VASP Dynamics algorithm
 CHAIN: Read ICHAIN            0
 
 POSCAR: Na Mg Mn  O                             
  positions in cartesian coordinates
  No initial velocities read in
 


--------------------------------------------------------------------------------------------------------


 ion  position               nearest neighbor table
   1  0.711  0.970  0.245-  88 2.26  54 2.28  79 2.29  63 2.29  40 2.96
   2  0.093  0.888  0.760-  73 2.28  70 2.29  47 2.29
   3  0.556  0.386  0.757-  49 2.25  71 2.36  46 2.37
   4  0.008  0.540  0.751-  57 2.25  60 2.27  39 2.75  37 2.86
   5  0.013  0.733  0.246-  66 2.19  67 2.37
   6  0.570  0.577  0.246-  65 2.22  74 2.29  43 2.33  78 2.38  33 2.77  35 2.90
   7  0.359  0.593  0.747-  80 2.26  83 2.34
   8  0.202  0.221  0.749-  47 2.23  44 2.38
   9  0.056  0.100  0.255-  50 2.24  41 2.30  27 2.79  25 2.92
  10  0.857  0.348  0.246-  53 2.18  55 2.31  62 2.33
  11  0.218  0.535  0.251-  87 2.29  78 2.35  64 2.37
  12  0.866  0.077  0.732-  69 2.34  58 2.35  56 2.36
  13  0.724  0.737  0.746-  68 2.33  72 2.33  71 2.34
  14  0.522  0.036  0.753-  84 2.23  81 2.31  29 2.79  31 2.92
  15  0.525  0.241  0.245-  43 2.29  42 2.33
  16  0.361  0.884  0.249-  77 2.28  51 2.36  88 2.37
  17  0.710  0.393  0.011-  43 2.00  53 2.03  60 2.04  66 2.07  49 2.11  71 2.19  30 2.84
  18  0.373  0.239  0.488-  52 1.98  50 2.00  46 2.05  45 2.07  51 2.10  44 2.12  35 2.78  32 2.84

  19  0.215  0.393  0.999-  48 2.01  61 2.03  83 2.06  41 2.10  78 2.11  55 2.12
  20  0.865  0.234  0.496-  64 2.05  57 2.08  62 2.08  56 2.09  58 2.10  63 2.11  39 2.85  28 2.86

  21  0.217  0.902  0.992-  84 1.99  67 1.99  42 2.06  73 2.07  47 2.09  77 2.18  26 2.81  25 2.84

  22  0.878  0.738  0.494-  76 2.01  74 2.04  69 2.04  68 2.09  70 2.10  75 2.10
  23  0.729  0.898  0.994-  54 1.89  72 2.01  65 2.07  85 2.14  79 2.14  59 2.17  25 2.76  34 2.77

  24  0.372  0.731  0.497-  87 2.02  81 2.05  82 2.06  88 2.12  86 2.14  80 2.18  40 2.82
  25  0.047  0.059  0.997-  41 1.84  47 1.86  67 1.88  61 1.95  72 1.98  54 1.99  23 2.76  21 2.84
                            34 2.90  26 2.90   9 2.92  30 2.98
  26  0.381  0.226  0.992-  49 1.88  47 1.92  42 1.93  41 1.98  48 1.98  43 2.06  21 2.81  25 2.90
                            29 2.91  33 2.93
  27  0.043  0.068  0.502-  44 1.86  76 1.87  69 1.89  58 1.91  63 1.97  50 1.99   9 2.79  32 2.88
                            36 2.89  40 3.01
  28  0.710  0.408  0.503-  57 1.82  75 1.88  52 1.91  68 1.92  46 1.95  62 2.00  39 2.81  35 2.83
                            20 2.86  31 2.96
  29  0.550  0.060  0.001-  42 1.89  53 1.91  59 1.95  84 1.98  79 1.98  49 2.02  14 2.79  30 2.83
                            26 2.91  38 2.92
  30  0.876  0.231  0.004-  53 1.91  60 1.92  55 1.93  59 1.93  54 1.95  61 1.96  29 2.83  17 2.84
                            37 2.89  25 2.98
  31  0.531  0.067  0.495-  51 1.86  62 1.90  81 1.91  88 1.91  56 1.95  46 1.95  36 2.75  14 2.92
                            28 2.96  40 2.99
  32  0.207  0.400  0.507-  58 1.86  50 1.87  45 1.91  64 1.95  80 1.96  87 1.98  18 2.84  35 2.85
                            27 2.88  39 2.91
  33  0.546  0.564  1.000-  85 1.83  78 1.90  43 1.91  48 1.92  71 1.92  65 1.93   6 2.77  38 2.83
                            34 2.85  26 2.93
  34  0.875  0.726  0.004-  73 1.85  65 1.87  66 1.91  67 1.94  71 1.98  72 2.01  23 2.77  33 2.85
                            37 2.88  25 2.90
  35  0.535  0.559  0.503-  52 1.86  45 1.89  87 1.93  74 1.98  68 1.98  82 2.04  18 2.78  28 2.83
                            32 2.85  40 2.86   6 2.90
  36  0.214  0.905  0.500-  81 1.87  86 1.89  51 1.91  44 1.94  76 1.96  70 1.98  31 2.75  27 2.89
                            39 2.98
  37  0.045  0.565  0.005-  60 1.88  66 1.90  83 1.91  73 1.93  77 1.94  55 1.97   4 2.86  34 2.88
                            30 2.89  38 2.91
  38  0.380  0.724  0.003-  79 1.87  83 1.87  78 1.95  85 1.95  84 1.97  77 2.06  33 2.83  37 2.91
                            29 2.92
  39  0.033  0.562  0.507-  64 1.88  80 1.90  70 1.94  57 1.94  75 1.98  86 1.99   4 2.75  28 2.81
                            20 2.85  32 2.91  36 2.98
  40  0.696  0.888  0.500-  82 1.86  56 1.88  74 1.89  63 1.91  69 2.03  88 2.06  24 2.82  35 2.86
                             1 2.96  31 2.99  27 3.01
  41  0.206  0.205  0.088-  25 1.84  26 1.98  19 2.10   9 2.30
  42  0.395  0.074  0.088-  29 1.89  26 1.93  21 2.06  15 2.33
  43  0.541  0.404  0.096-  33 1.91  17 2.00  26 2.06  15 2.29   6 2.33
  44  0.196  0.060  0.591-  27 1.86  36 1.94  18 2.12   8 2.38
  45  0.373  0.407  0.596-  35 1.89  32 1.91  18 2.07
  46  0.542  0.236  0.589-  28 1.95  31 1.95  18 2.05   3 2.37
  47  0.208  0.079  0.900-  25 1.86  26 1.92  21 2.09   8 2.23   2 2.29
  48  0.390  0.403  0.905-  33 1.92  26 1.98  19 2.01
  49  0.537  0.222  0.902-  26 1.88  29 2.02  17 2.11   3 2.25
  50  0.199  0.246  0.408-  32 1.87  27 1.99  18 2.00   9 2.24
  51  0.373  0.055  0.400-  31 1.86  36 1.91  18 2.10  16 2.36
  52  0.553  0.414  0.411-  35 1.86  28 1.91  18 1.98
  53  0.709  0.215  0.097-  30 1.91  29 1.91  17 2.03  10 2.18
  54  0.878  0.062  0.088-  23 1.89  30 1.95  25 1.99   1 2.28
  55  0.036  0.394  0.098-  30 1.93  37 1.97  19 2.12  10 2.31
  56  0.685  0.045  0.583-  40 1.88  31 1.95  20 2.09  12 2.36
  57  0.858  0.406  0.596-  28 1.82  39 1.94  20 2.08   4 2.25
  58  0.048  0.235  0.588-  32 1.86  27 1.91  20 2.10  12 2.35
  59  0.717  0.081  0.901-  30 1.93  29 1.95  23 2.17
  60  0.888  0.401  0.917-  37 1.88  30 1.92  17 2.04   4 2.27
  61  0.035  0.222  0.910-  25 1.95  30 1.96  19 2.03
  62  0.684  0.231  0.403-  31 1.90  28 2.00  20 2.08  10 2.33
  63  0.864  0.046  0.412-  40 1.91  27 1.97  20 2.11   1 2.29
  64  0.050  0.415  0.414-  39 1.88  32 1.95  20 2.05  11 2.37
  65  0.714  0.718  0.094-  34 1.87  33 1.93  23 2.07   6 2.22
  66  0.892  0.576  0.097-  37 1.90  34 1.91  17 2.07   5 2.19
  67  0.045  0.899  0.084-  25 1.88  34 1.94  21 1.99   5 2.37
  68  0.704  0.565  0.598-  28 1.92  35 1.98  22 2.09  13 2.33
  69  0.881  0.911  0.592-  27 1.89  40 2.03  22 2.04  12 2.34
  70  0.052  0.736  0.596-  39 1.94  36 1.98  22 2.10   2 2.29
  71  0.707  0.573  0.901-  33 1.92  34 1.98  17 2.19  13 2.34   3 2.36
  72  0.892  0.892  0.895-  25 1.98  34 2.01  23 2.01  13 2.33
  73  0.026  0.718  0.915-  34 1.85  37 1.93  21 2.07   2 2.28
  74  0.695  0.729  0.407-  40 1.89  35 1.98  22 2.04   6 2.29
  75  0.868  0.549  0.403-  28 1.88  39 1.98  22 2.10
  76  0.053  0.917  0.410-  27 1.87  36 1.96  22 2.01
  77  0.206  0.719  0.104-  37 1.94  38 2.06  21 2.18  16 2.28
  78  0.395  0.570  0.100-  33 1.90  38 1.95  19 2.11  11 2.35   6 2.38
  79  0.538  0.884  0.091-  38 1.87  29 1.98  23 2.14   1 2.29
  80  0.186  0.552  0.602-  39 1.90  32 1.96  24 2.18   7 2.26
  81  0.373  0.908  0.589-  36 1.87  31 1.91  24 2.05  14 2.31
  82  0.547  0.738  0.598-  40 1.86  35 2.04  24 2.06
  83  0.213  0.575  0.915-  38 1.87  37 1.91  19 2.06   7 2.34
  84  0.385  0.891  0.907-  38 1.97  29 1.98  21 1.99  14 2.23
  85  0.536  0.710  0.908-  33 1.83  38 1.95  23 2.14
  86  0.186  0.735  0.407-  36 1.89  39 1.99  24 2.14
  87  0.375  0.558  0.407-  35 1.93  32 1.98  24 2.02  11 2.29
  88  0.544  0.918  0.397-  31 1.91  40 2.06  24 2.12   1 2.26  16 2.37
 
  LATTYP: Found a hexagonal cell.
 ALAT       =    10.0190000534
 C/A-ratio  =     1.1196726572
  
  Lattice vectors:
  
 A1 = (  10.0190000534,   0.0000000000,   0.0000000000)
 A2 = (  -5.0095000267,   8.6767085668,   0.0000000000)
 A3 = (   0.0000000000,   0.0000000000,  11.2180004120)


Analysis of symmetry for initial positions (statically):
=====================================================================
 Subroutine PRICEL returns:
 Original cell was already a primitive cell.
 

 Routine SETGRP: Setting up the symmetry group for a 
 hexagonal supercell.


 Subroutine GETGRP returns: Found  1 space group operations
 (whereof  1 operations were pure point group operations)
 out of a pool of 24 trial point group operations.


The static configuration has the point symmetry C_1 .


Analysis of symmetry for dynamics (positions and initial velocities):
=====================================================================
 Subroutine PRICEL returns:
 Original cell was already a primitive cell.
 

 Routine SETGRP: Setting up the symmetry group for a 
 hexagonal supercell.


 Subroutine GETGRP returns: Found  1 space group operations
 (whereof  1 operations were pure point group operations)
 out of a pool of 24 trial point group operations.


The dynamic configuration has the point symmetry C_1 .


Analysis of structural, dynamic, and magnetic symmetry:
=====================================================================
 Subroutine PRICEL returns:
 Original cell was already a primitive cell.
 

 Routine SETGRP: Setting up the symmetry group for a 
 hexagonal supercell.


 Subroutine GETGRP returns: Found  1 space group operations
 (whereof  1 operations were pure point group operations)
 out of a pool of 24 trial point group operations.


The magnetic configuration has the point symmetry C_1 .


 Subroutine INISYM returns: Found  1 space group operations
 (whereof  1 operations are pure point group operations),
 and found     1 'primitive' translations

 
 

Automatic generation of k-mesh.
 generate k-points for:    2    2    2
Space group operators:
 irot       det(A)        alpha          n_x          n_y          n_z        tau_x        tau_y        tau_z
    1     1.000000     0.000000     1.000000     0.000000     0.000000     0.000000     0.000000     0.000000
 
 Subroutine IBZKPT returns following result:
 ===========================================
 
 Found      8 irreducible k-points:
 
 Following reciprocal coordinates:
            Coordinates               Weight
  0.000000  0.000000  0.000000      1.000000
  0.500000 -0.000000 -0.000000      1.000000
  0.000000  0.500000  0.000000      1.000000
  0.500000  0.500000 -0.000000      1.000000
  0.000000  0.000000  0.500000      1.000000
  0.500000 -0.000000  0.500000      1.000000
  0.000000  0.500000  0.500000      1.000000
  0.500000  0.500000  0.500000      1.000000
 
 Following cartesian coordinates:
            Coordinates               Weight
  0.000000  0.000000  0.000000      1.000000
  0.049905  0.028813 -0.000000      1.000000
  0.000000  0.057626  0.000000      1.000000
  0.049905  0.086438 -0.000000      1.000000
  0.000000  0.000000  0.044571      1.000000
  0.049905  0.028813  0.044571      1.000000
  0.000000  0.057626  0.044571      1.000000
  0.049905  0.086438  0.044571      1.000000
 


--------------------------------------------------------------------------------------------------------




 Dimension of arrays:
   k-points           NKPTS =      8   k-points in BZ     NKDIM =      8   number of bands    NBANDS=    448
   number of dos      NEDOS =    301   number of ions     NIONS =     88
   non local maximal  LDIM  =      6   non local SUM 2l+1 LMDIM =     18
   total plane-waves  NPLWV = 140000
   max r-space proj   IRMAX =   1632   max aug-charges    IRDMAX=   4555
   dimension x,y,z NGX =    50 NGY =   50 NGZ =   56
   dimension x,y,z NGXF=   100 NGYF=  100 NGZF=  112
   support grid    NGXF=   100 NGYF=  100 NGZF=  112
   ions per type =              16   8  16  48
   NGX,Y,Z   is equivalent  to a cutoff of   8.30,  8.30,  8.30 a.u.
   NGXF,Y,Z  is equivalent  to a cutoff of  16.59, 16.59, 16.60 a.u.

 SYSTEM =  unknown system                          
 POSCAR =  Na Mg Mn  O                             

 Startparameter for this run:
   NWRITE =      2    write-flag & timer
   PREC   = normal    normal or accurate (medium, high low for compatibility)
   ISTART =      0    job   : 0-new  1-cont  2-samecut
   ICHARG =      1    charge: 1-file 2-atom 10-const
   ISPIN  =      2    spin polarized calculation?
   LNONCOLLINEAR =      F non collinear calculations
   LSORBIT =      F    spin-orbit coupling
   INIWAV =      1    electr: 0-lowe 1-rand  2-diag
   LASPH  =      T    aspherical Exc in radial PAW
   METAGGA=      F    non-selfconsistent MetaGGA calc.

 Electronic Relaxation 1
   ENCUT  =  400.0 eV  29.40 Ry    5.42 a.u.  16.34 16.34 18.29*2*pi/ulx,y,z
   ENINI  =  400.0     initial cutoff
   ENAUG  =  758.8 eV  augmentation charge cutoff
   NELM   =    200;   NELMIN=  6; NELMDL=-12     # of ELM steps 
   EDIFF  = 0.1E-04   stopping-criterion for ELM
   LREAL  =      T    real-space projection
   NLSPLINE    = F    spline interpolate recip. space projectors
   LCOMPAT=      F    compatible to vasp.4.4
   GGA_COMPAT  = T    GGA compatible to vasp.4.4-vasp.4.6
   LMAXPAW     = -100 max onsite density
   LMAXMIX     =    4 max onsite mixed and CHGCAR
   VOSKOWN=      0    Vosko Wilk Nusair interpolation
   ROPT   =   -0.00050  -0.00050  -0.00050  -0.00050
 Ionic relaxation
   EDIFFG = 0.1E-03   stopping-criterion for IOM
   NSW    =      1    number of steps for IOM
   NBLOCK =      1;   KBLOCK =      1    inner block; outer block 
   IBRION =     -1    ionic relax: 0-MD 1-quasi-New 2-CG
   NFREE  =      0    steps in history (QN), initial steepest desc. (CG)
   ISIF   =      2    stress and relaxation
   IWAVPR =     10    prediction:  0-non 1-charg 2-wave 3-comb
   ISYM   =      2    0-nonsym 1-usesym 2-fastsym
   LCORR  =      T    Harris-Foulkes like correction to forces

   POTIM  = 0.5000    time-step for ionic-motion
   TEIN   =    0.0    initial temperature
   TEBEG  =    0.0;   TEEND  =   0.0 temperature during run
   SMASS  =  -3.00    Nose mass-parameter (am)
   estimated Nose-frequenzy (Omega)   =  0.10E-29 period in steps =****** mass=  -0.229E-26a.u.
   SCALEE = 1.0000    scale energy and forces
   NPACO  =    256;   APACO  = 16.0  distance and # of slots for P.C.
   PSTRESS=    0.0 pullay stress

  Mass of Ions in am
   POMASS =  22.99 24.30 54.94 16.00
  Ionic Valenz
   ZVAL   =   7.00  8.00 13.00  6.00
  Atomic Wigner-Seitz radii
   RWIGS  =  -1.00 -1.00 -1.00 -1.00
  virtual crystal weights 
   VCA    =   1.00  1.00  1.00  1.00
   NELECT =     672.0000    total number of electrons
   NUPDOWN=      48.0000    fix difference up-down

 DOS related values:
   EMIN   =  10.00;   EMAX   =-10.00  energy-range for DOS
   EFERMI =   0.00
   ISMEAR =     0;   SIGMA  =   0.05  broadening in eV -4-tet -1-fermi 0-gaus

 Electronic relaxation 2 (details)
   IALGO  =     48    algorithm
   LDIAG  =      T    sub-space diagonalisation (order eigenvalues)
   LSUBROT=      F    optimize rotation matrix (better conditioning)
   TURBO    =      0    0=normal 1=particle mesh
   IRESTART =      0    0=no restart 2=restart with 2 vectors
   NREBOOT  =      0    no. of reboots
   NMIN     =      0    reboot dimension
   EREF     =   0.00    reference energy to select bands
   IMIX   =      4    mixing-type and parameters
     AMIX     =   0.40;   BMIX     =  1.00
     AMIX_MAG =   1.60;   BMIX_MAG =  1.00
     AMIN     =   0.10
     WC   =   100.;   INIMIX=   1;  MIXPRE=   1;  MAXMIX= -45

 Intra band minimization:
   WEIMIN = 0.0000     energy-eigenvalue tresh-hold
   EBREAK =  0.56E-08  absolut break condition
   DEPER  =   0.30     relativ break condition  

   TIME   =   0.40     timestep for ELM

  volume/ion in A,a.u.               =      11.08        74.78
  Fermi-wavevector in a.u.,A,eV,Ry     =   1.445993  2.732531 28.448379  2.090897
  Thomas-Fermi vector in A             =   2.564112
 
 Write flags
   LWAVE        =      F    write WAVECAR
   LDOWNSAMPLE  =      F    k-point downsampling of WAVECAR
   LCHARG       =      F    write CHGCAR
   LVTOT        =      F    write LOCPOT, total local potential
   LVHAR        =      F    write LOCPOT, Hartree potential only
   LELF         =      F    write electronic localiz. function (ELF)
   LORBIT       =     11    0 simple, 1 ext, 2 COOP (PROOUT), +10 PAW based schemes


 Dipole corrections
   LMONO  =      F    monopole corrections only (constant potential shift)
   LDIPOL =      F    correct potential (dipole corrections)
   IDIPOL =      0    1-x, 2-y, 3-z, 4-all directions 
   EPSILON=  1.0000000 bulk dielectric constant

 Exchange correlation treatment:
   GGA     =    --    GGA type
   LEXCH   =     8    internal setting for exchange type
   VOSKOWN=      0    Vosko Wilk Nusair interpolation
   LHFCALC =     F    Hartree Fock is set to
   LHFONE  =     F    Hartree Fock one center treatment
   AEXX    =    0.0000 exact exchange contribution

 Linear response parameters
   LEPSILON=     F    determine dielectric tensor
   LRPA    =     F    only Hartree local field effects (RPA)
   LNABLA  =     F    use nabla operator in PAW spheres
   LVEL    =     F    velocity operator in full k-point grid
   LINTERFAST=   F  fast interpolation
   KINTER  =     0    interpolate to denser k-point grid
   CSHIFT  =0.1000    complex shift for real part using Kramers Kronig
   OMEGAMAX=  -1.0    maximum frequency
   DEG_THRESHOLD= 0.2000000E-02 threshold for treating states as degnerate
   RTIME   =   -0.100 relaxation time in fs
  (WPLASMAI=    0.000 imaginary part of plasma frequency in eV, 0.658/RTIME)
   DFIELD  = 0.0000000 0.0000000 0.0000000 field for delta impulse in time
 
 Orbital magnetization related:
   ORBITALMAG=     F  switch on orbital magnetization
   LCHIMAG   =     F  perturbation theory with respect to B field
   DQ        =  0.001000  dq finite difference perturbation B field
   LLRAUG    =     F  two centre corrections for induced B field



--------------------------------------------------------------------------------------------------------


 Static calculation
 charge density and potential will be updated during run
 spin polarized calculation
 RMM-DIIS sequential band-by-band
 perform sub-space diagonalisation
    before iterative eigenvector-optimisation
 modified Broyden-mixing scheme, WC =      100.0
 initial mixing is a Kerker type mixing with AMIX =  0.4000 and BMIX =      1.0000
 Hartree-type preconditioning will be used
 using additional bands          112
 real space projection scheme for non local part
 use partial core corrections
 calculate Harris-corrections to forces 
   (improved forces if not selfconsistent)
 use gradient corrections 
 use of overlap-Matrix (Vanderbilt PP)
 Gauss-broadening in eV      SIGMA  =   0.05


--------------------------------------------------------------------------------------------------------


  energy-cutoff  :      400.00
  volume of cell :      975.20
      direct lattice vectors                 reciprocal lattice vectors
    10.019000053  0.000000000  0.000000000     0.099810360  0.057625538 -0.000000000
    -5.009500027  8.676708567  0.000000000     0.000000000  0.115251076  0.000000000
     0.000000000  0.000000000 11.218000412     0.000000000  0.000000000  0.089142446

  length of vectors
    10.019000053 10.019000053 11.218000412     0.115251076  0.115251076  0.089142446


 
 k-points in units of 2pi/SCALE and weight: read from INCAR                         
   0.00000000  0.00000000  0.00000000       0.125
   0.04990518  0.02881277 -0.00000000       0.125
   0.00000000  0.05762554  0.00000000       0.125
   0.04990518  0.08643831 -0.00000000       0.125
   0.00000000  0.00000000  0.04457122       0.125
   0.04990518  0.02881277  0.04457122       0.125
   0.00000000  0.05762554  0.04457122       0.125
   0.04990518  0.08643831  0.04457122       0.125
 
 k-points in reciprocal lattice and weights: read from INCAR                         
   0.00000000  0.00000000  0.00000000       0.125
   0.50000000 -0.00000000 -0.00000000       0.125
   0.00000000  0.50000000  0.00000000       0.125
   0.50000000  0.50000000 -0.00000000       0.125
   0.00000000  0.00000000  0.50000000       0.125
   0.50000000 -0.00000000  0.50000000       0.125
   0.00000000  0.50000000  0.50000000       0.125
   0.50000000  0.50000000  0.50000000       0.125
 
 position of ions in fractional coordinates (direct lattice) 
   0.71122047  0.97049967  0.24486895
   0.09252098  0.88806618  0.76017380
   0.55599992  0.38583953  0.75705381
   0.00840090  0.53988790  0.75102511
   0.01292884  0.73293823  0.24563736
   0.57011602  0.57742139  0.24623372
   0.35898130  0.59282042  0.74721516
   0.20188231  0.22061262  0.74910409
   0.05570213  0.09991609  0.25495453
   0.85697569  0.34764137  0.24586646
   0.21778350  0.53492980  0.25101711
   0.86641586  0.07675425  0.73172755
   0.72427436  0.73650163  0.74607592
   0.52218713  0.03620975  0.75344265
   0.52470893  0.24058465  0.24520056
   0.36062946  0.88435345  0.24862631
   0.71044536  0.39340494  0.01050499
   0.37304295  0.23908721  0.48846495
   0.21524790  0.39341185  0.99901048
   0.86488462  0.23394931  0.49573719
   0.21670614  0.90211973  0.99208272
   0.87798318  0.73778092  0.49426812
   0.72872983  0.89827611  0.99447164
   0.37179025  0.73143058  0.49682027
   0.04719449  0.05945935  0.99662740
   0.38098073  0.22646491  0.99222617
   0.04312991  0.06768235  0.50223835
   0.70991147  0.40779980  0.50303082
   0.54972071  0.06019119  0.00112605
   0.87553812  0.23117407  0.00405594
   0.53053843  0.06680598  0.49461756
   0.20738710  0.40006530  0.50699053
   0.54602662  0.56426005  0.99997166
   0.87478775  0.72595039  0.00388588
   0.53519945  0.55852746  0.50298180
   0.21422935  0.90524880  0.49993936
   0.04545857  0.56473488  0.00471174
   0.38023268  0.72409946  0.00311878
   0.03317431  0.56167151  0.50713138
   0.69642450  0.88807408  0.49989568
   0.20550953  0.20452341  0.08800900
   0.39521015  0.07400548  0.08800160
   0.54069758  0.40380059  0.09607595
   0.19609231  0.06026726  0.59068816
   0.37348666  0.40679366  0.59575501
   0.54246229  0.23640877  0.58880190
   0.20777541  0.07904218  0.90040111
   0.39031405  0.40250055  0.90451057
   0.53717317  0.22213953  0.90205024
   0.19879647  0.24586743  0.40773131
   0.37312595  0.05479168  0.39970582
   0.55319636  0.41405217  0.41095737
   0.70916272  0.21514149  0.09724995
   0.87822957  0.06172513  0.08777955
   0.03570112  0.39377374  0.09793813
   0.68549402  0.04469799  0.58313601
   0.85848864  0.40572067  0.59558654
   0.04799896  0.23461316  0.58781777
   0.71749200  0.08133395  0.90051699
   0.88840300  0.40147712  0.91674983
   0.03505975  0.22211072  0.90967192
   0.68376022  0.23145297  0.40283382
   0.86436551  0.04562691  0.41164555
   0.05049661  0.41521620  0.41449455
   0.71389139  0.71767998  0.09403993
   0.89236357  0.57577017  0.09713852
   0.04519978  0.89893534  0.08414958
   0.70434526  0.56462424  0.59833391
   0.88071532  0.91081081  0.59215544
   0.05231094  0.73585853  0.59628987
   0.70693625  0.57250511  0.90134602
   0.89197702  0.89220238  0.89458902
   0.02577137  0.71803841  0.91466390
   0.69504927  0.72942982  0.40747280
   0.86801732  0.54947910  0.40323586
   0.05305621  0.91702170  0.41024156
   0.20632794  0.71910563  0.10430647
   0.39518074  0.57011596  0.09950169
   0.53769273  0.88432727  0.09142717
   0.18593640  0.55228661  0.60176678
   0.37332968  0.90816350  0.58939916
   0.54704859  0.73823731  0.59811996
   0.21275105  0.57472139  0.91527898
   0.38498181  0.89101183  0.90734530
   0.53593374  0.71030045  0.90795147
   0.18567764  0.73540559  0.40678016
   0.37483237  0.55777833  0.40696112
   0.54354057  0.91751612  0.39676144
 
 position of ions in cartesian coordinates  (Angst):
   2.26399981  8.42074283  2.74694000
  -3.52179981  7.70549143  8.52763000
   3.63770011  3.34781713  8.49263000
  -2.62039989  4.68445000  8.42500000
  -3.54212003  6.35949143  2.75556000
   2.81939995  5.01011713  2.76225000
   0.62689979  5.14373000  8.38226000
   0.91749992  1.91419143  8.40345000
   0.05754997  0.86694283  2.86008000
   6.84453005  3.01638287  2.75813000
  -0.49775800  4.64143000  2.81591000
   8.29612008  0.66597430  8.20852000
   3.56699989  6.39041000  8.36948000
   5.05040019  0.31418143  8.45212000
   4.05185005  2.08748287  2.75066000
  -0.81702200  7.67327713  2.78909000
   5.14719000  3.41346000  0.11784500
   2.53981000  2.07449000  5.47960000
   0.18577200  3.41352000 11.20690000
   7.49331000  2.02991000  5.56118000
  -2.34799000  7.82743000 11.12918441
   5.10060000  6.40151000  5.54470000
   2.80123000  7.79408000 11.15598331
   0.06086500  6.34641000  5.57333000
   0.17497997  0.51591143 11.18016661
   2.68257000  1.96497000 11.13079361
   0.09306390  0.58726000  5.63411000
   5.06973000  3.53836000  5.64300000
   5.20612403  0.52226143  0.01263200
   7.61395000  2.00583000  0.04549959
   4.98080000  0.57965600  5.54862000
   0.07368420  3.47125000  5.68742000
   2.64398000  4.89592000 11.21768249
   5.12785000  6.29886000  0.04359180
   2.56422000  4.84618000  5.64245000
  -2.38848000  7.85458000  5.60832000
  -2.37359000  4.90004000  0.05285630
   0.18217500  6.28280000  0.03498650
  -2.48132000  4.87346000  5.68900000
   2.52867000  7.70556000  5.60783000
   1.03444000  1.77459000  0.98728500
   3.58888000  0.64212400  0.98720200
   3.39441000  3.50366000  1.07778000
   1.66274003  0.52292143  6.62634000
   1.70413000  3.52963000  6.68318000
   4.25064000  2.05125000  6.60518000
   1.68574000  0.68582600 10.10070000
   1.89423000  3.49238000 10.14680000
   4.26913000  1.92744000 10.11920000
   0.76006900  2.13332000  4.57393000
   3.46387003  0.47541143  4.48390000
   3.46828000  3.59261000  4.61012000
   6.02735000  1.86672000  1.09095000
   8.48977000  0.53557100  0.98471100
  -1.61492005  3.41666000  1.09867000
   6.64405003  0.38783143  6.54162000
   6.56874000  3.52032000  6.68129000
  -0.69439300  2.03567000  6.59414000
   6.78111000  0.70571100 10.10200000
   6.88971000  3.48350000 10.28410000
  -0.76140005  1.92719000 10.20470000
   5.69113000  2.00825000  4.51899000
   8.43151003  0.39589143  4.61784000
  -1.57410000  3.60271000  4.64980000
   3.55726000  6.22710000  1.05494000
   6.05627000  4.99579000  1.08970000
  -4.05036005  7.79980000  0.94399000
   4.22835000  4.89908000  6.71211000
   4.26118000  7.90284000  6.64280000
  -3.16218000  6.38483000  6.68918000
   4.21483000  4.96746000 10.11130000
   4.46723000  7.74138000 10.03550000
  -3.33881005  6.23021000 10.26070000
   3.30962000  6.32905000  4.57103000
   5.94405000  4.76767000  4.52350000
  -4.06225000  7.95673000  4.60209000
  -1.53516000  6.23947000  1.17011000
   1.10332000  4.94673000  1.11621000
   0.95710600  7.67305000  1.02563000
  -0.90378300  4.79203000  6.75062000
  -0.80905500  7.87987000  6.61188000
   1.78268000  6.40547000  6.70971000
  -0.74751400  4.98669000 10.26760000
  -0.60639100  7.73105000 10.17860000
   1.81127000  6.16307000 10.18540000
  -1.82371000  6.38090000  4.56326000
   0.96125500  4.83968000  4.56529000
   0.84943600  7.96102000  4.45087000
 


--------------------------------------------------------------------------------------------------------


 k-point  1 :   0.0000 0.0000 0.0000  plane waves:   17725
 k-point  2 :   0.5000-0.0000-0.0000  plane waves:   17736
 k-point  3 :   0.0000 0.5000 0.0000  plane waves:   17736
 k-point  4 :   0.5000 0.5000-0.0000  plane waves:   17736
 k-point  5 :   0.0000 0.0000 0.5000  plane waves:   17676
 k-point  6 :   0.5000-0.0000 0.5000  plane waves:   17700
 k-point  7 :   0.0000 0.5000 0.5000  plane waves:   17700
 k-point  8 :   0.5000 0.5000 0.5000  plane waves:   17700

 maximum and minimum number of plane-waves per node :     17736    17676

 maximum number of plane-waves:     17736
 maximum index in each direction: 
   IXMAX=   16   IYMAX=   16   IZMAX=   18
   IXMIN=  -16   IYMIN=  -16   IZMIN=  -18


 serial   3D FFT for wavefunctions
 parallel 3D FFT for charge:
    minimum data exchange during FFTs selected (reduces bandwidth)


 total amount of memory used by VASP MPI-rank0    88195. kBytes
=======================================================================

   base      :      30000. kBytes
   nonlr-proj:      13686. kBytes
   fftplans  :        992. kBytes
   grid      :      21513. kBytes
   one-center:       2737. kBytes
   wavefun   :      19267. kBytes
 
     INWAV:  cpu time    0.0000: real time    0.0001
 Broyden mixing: mesh for mixing (old mesh)
   NGX = 33   NGY = 33   NGZ = 37
  (NGX  =100   NGY  =100   NGZ  =112)
  gives a total of  40293 points

 initial charge density was supplied:
 charge density of overlapping atoms calculated
 number of electron     672.0000000 magnetization      48.0000000
 keeping initial charge density in first step


--------------------------------------------------------------------------------------------------------


 Maximum index for non-local projection operator         1554
 Maximum index for augmentation-charges          266 (set IRDMAX)


--------------------------------------------------------------------------------------------------------


 First call to EWALD:  gamma=   0.179
 Maximum number of real-space cells 3x 3x 2
 Maximum number of reciprocal cells 3x 3x 3

    FEWALD:  cpu time    0.0025: real time    0.0030


--------------------------------------- Iteration      1(   1)  ---------------------------------------


    POTLOK:  cpu time    0.2053: real time    0.2065
    SETDIJ:  cpu time    3.0985: real time    3.1003
    EDDIAG:  cpu time    3.7027: real time    3.7085
  RMM-DIIS:  cpu time    6.5141: real time    6.6142
    ORTHCH:  cpu time    1.1829: real time    1.1857
       DOS:  cpu time    0.0024: real time    0.0024
    --------------------------------------------
      LOOP:  cpu time   14.7058: real time   14.8177

 eigenvalue-minimisations  :  7168
 total energy-change (2. order) : 0.1775277E+04  (-0.3592811E+05)
 number of electron     672.0000000 magnetization      48.0000000
 augmentation part      672.0000000 magnetization      48.0000000

 Free energy of the ion-electron system (eV)
  ---------------------------------------------------
  alpha Z        PSCENC =      2652.81237852
  Ewald energy   TEWEN  =    -41939.39907323
  -Hartree energ DENC   =    -25681.03478361
  -exchange      EXHF   =         0.00000000
  -V(xc)+E(xc)   XCENC  =      3605.60457318
  PAW double counting   =     55594.23204139   -59034.67079123
  entropy T*S    EENTRO =        -0.04560983
  eigenvalues    EBANDS =     -7284.41993589
  atomic energy  EATOM  =     73862.19814772
  Solvation  Ediel_sol  =         0.00000000
  ---------------------------------------------------
  free energy    TOTEN  =      1775.27694701 eV

  energy without entropy =     1775.32255685  energy(sigma->0) =     1775.29975193


--------------------------------------------------------------------------------------------------------




--------------------------------------- Iteration      1(   2)  ---------------------------------------


    EDDIAG:  cpu time    3.6795: real time    3.6836
  RMM-DIIS:  cpu time    6.6080: real time    6.6134
    ORTHCH:  cpu time    1.1694: real time    1.1732
       DOS:  cpu time    0.0015: real time    0.0015
    --------------------------------------------
      LOOP:  cpu time   11.4584: real time   11.4717

 eigenvalue-minimisations  :  7168
 total energy-change (2. order) :-0.2611392E+04  (-0.8654137E+04)
 number of electron     672.0000000 magnetization      48.0000000
 augmentation part      672.0000000 magnetization      48.0000000

 Free energy of the ion-electron system (eV)
  ---------------------------------------------------
  alpha Z        PSCENC =      2652.81237852
  Ewald energy   TEWEN  =    -41939.39907323
  -Hartree energ DENC   =    -25681.03478361
  -exchange      EXHF   =         0.00000000
  -V(xc)+E(xc)   XCENC  =      3605.60457318
  PAW double counting   =     55594.23204139   -59034.67079123
  entropy T*S    EENTRO =        -0.04689278
  eigenvalues    EBANDS =     -9895.81024607
  atomic energy  EATOM  =     73862.19814772
  Solvation  Ediel_sol  =         0.00000000
  ---------------------------------------------------
  free energy    TOTEN  =      -836.11464611 eV

  energy without entropy =     -836.06775334  energy(sigma->0) =     -836.09119973


--------------------------------------------------------------------------------------------------------




--------------------------------------- Iteration      1(   3)  ---------------------------------------


    EDDIAG:  cpu time    3.7281: real time    3.7312
  RMM-DIIS:  cpu time    6.6080: real time    6.6151
    ORTHCH:  cpu time    1.1523: real time    1.1547
       DOS:  cpu time    0.0014: real time    0.0014
    --------------------------------------------
      LOOP:  cpu time   11.4898: real time   11.5025

 eigenvalue-minimisations  :  7168
 total energy-change (2. order) : 0.2988189E+03  (-0.1556901E+04)
 number of electron     672.0000000 magnetization      48.0000000
 augmentation part      672.0000000 magnetization      48.0000000

 Free energy of the ion-electron system (eV)
  ---------------------------------------------------
  alpha Z        PSCENC =      2652.81237852
  Ewald energy   TEWEN  =    -41939.39907323
  -Hartree energ DENC   =    -25681.03478361
  -exchange      EXHF   =         0.00000000
  -V(xc)+E(xc)   XCENC  =      3605.60457318
  PAW double counting   =     55594.23204139   -59034.67079123
  entropy T*S    EENTRO =        -0.04432254
  eigenvalues    EBANDS =     -9596.99394506
  atomic energy  EATOM  =     73862.19814772
  Solvation  Ediel_sol  =         0.00000000
  ---------------------------------------------------
  free energy    TOTEN  =      -537.29577487 eV

  energy without entropy =     -537.25145233  energy(sigma->0) =     -537.27361360


--------------------------------------------------------------------------------------------------------




--------------------------------------- Iteration      1(   4)  ---------------------------------------


    EDDIAG:  cpu time    3.7052: real time    3.7354
  RMM-DIIS:  cpu time    6.6221: real time    6.6274
    ORTHCH:  cpu time    1.1513: real time    1.1540
       DOS:  cpu time    0.0012: real time    0.0012
    --------------------------------------------
      LOOP:  cpu time   11.4798: real time   11.5180

 eigenvalue-minimisations  :  7168
 total energy-change (2. order) :-0.5217256E+03  (-0.5056680E+03)
 number of electron     672.0000000 magnetization      48.0000000
 augmentation part      672.0000000 magnetization      48.0000000

 Free energy of the ion-electron system (eV)
  ---------------------------------------------------
  alpha Z        PSCENC =      2652.81237852
  Ewald energy   TEWEN  =    -41939.39907323
  -Hartree energ DENC   =    -25681.03478361
  -exchange      EXHF   =         0.00000000
  -V(xc)+E(xc)   XCENC  =      3605.60457318
  PAW double counting   =     55594.23204139   -59034.67079123
  entropy T*S    EENTRO =        -0.00356890
  eigenvalues    EBANDS =    -10118.76027687
  atomic energy  EATOM  =     73862.19814772
  Solvation  Ediel_sol  =         0.00000000
  ---------------------------------------------------
  free energy    TOTEN  =     -1059.02135304 eV

  energy without entropy =    -1059.01778414  energy(sigma->0) =    -1059.01956859


--------------------------------------------------------------------------------------------------------




--------------------------------------- Iteration      1(   5)  ---------------------------------------


    EDDIAG:  cpu time    3.7253: real time    3.7287
  RMM-DIIS:  cpu time    6.6229: real time    6.6283
    ORTHCH:  cpu time    1.1428: real time    1.1464
       DOS:  cpu time    0.0011: real time    0.0011
    --------------------------------------------
      LOOP:  cpu time   11.4921: real time   11.5045

 eigenvalue-minimisations  :  7168
 total energy-change (2. order) :-0.1467170E+03  (-0.2123650E+03)
 number of electron     672.0000000 magnetization      48.0000000
 augmentation part      672.0000000 magnetization      48.0000000

 Free energy of the ion-electron system (eV)
  ---------------------------------------------------
  alpha Z        PSCENC =      2652.81237852
  Ewald energy   TEWEN  =    -41939.39907323
  -Hartree energ DENC   =    -25681.03478361
  -exchange      EXHF   =         0.00000000
  -V(xc)+E(xc)   XCENC  =      3605.60457318
  PAW double counting   =     55594.23204139   -59034.67079123
  entropy T*S    EENTRO =        -0.00000000
  eigenvalues    EBANDS =    -10265.48089103
  atomic energy  EATOM  =     73862.19814772
  Solvation  Ediel_sol  =         0.00000000
  ---------------------------------------------------
  free energy    TOTEN  =     -1205.73839830 eV

  energy without entropy =    -1205.73839830  energy(sigma->0) =    -1205.73839830


--------------------------------------------------------------------------------------------------------




--------------------------------------- Iteration      1(   6)  ---------------------------------------


    EDDIAG:  cpu time    3.7136: real time    3.7174
  RMM-DIIS:  cpu time    6.5926: real time    6.6287
    ORTHCH:  cpu time    1.1535: real time    1.1557
       DOS:  cpu time    0.0012: real time    0.0012
    --------------------------------------------
      LOOP:  cpu time   11.4609: real time   11.5030

 eigenvalue-minimisations  :  7168
 total energy-change (2. order) :-0.2139259E+02  (-0.1151852E+03)
 number of electron     672.0000000 magnetization      48.0000000
 augmentation part      672.0000000 magnetization      48.0000000

 Free energy of the ion-electron system (eV)
  ---------------------------------------------------
  alpha Z        PSCENC =      2652.81237852
  Ewald energy   TEWEN  =    -41939.39907323
  -Hartree energ DENC   =    -25681.03478361
  -exchange      EXHF   =         0.00000000
  -V(xc)+E(xc)   XCENC  =      3605.60457318
  PAW double counting   =     55594.23204139   -59034.67079123
  entropy T*S    EENTRO =        -0.00000000
  eigenvalues    EBANDS =    -10286.87347967
  atomic energy  EATOM  =     73862.19814772
  Solvation  Ediel_sol  =         0.00000000
  ---------------------------------------------------
  free energy    TOTEN  =     -1227.13098694 eV

  energy without entropy =    -1227.13098694  energy(sigma->0) =    -1227.13098694


--------------------------------------------------------------------------------------------------------




--------------------------------------- Iteration      1(   7)  ---------------------------------------


    EDDIAG:  cpu time    3.7487: real time    3.7538
  RMM-DIIS:  cpu time    6.6130: real time    6.6174
    ORTHCH:  cpu time    1.1756: real time    1.1781
       DOS:  cpu time    0.0012: real time    0.0012
    --------------------------------------------
      LOOP:  cpu time   11.5384: real time   11.5505

 eigenvalue-minimisations  :  7168
 total energy-change (2. order) :-0.6595157E+01  (-0.7620666E+02)
 number of electron     672.0000000 magnetization      48.0000000
 augmentation part      672.0000000 magnetization      48.0000000

 Free energy of the ion-electron system (eV)
  ---------------------------------------------------
  alpha Z        PSCENC =      2652.81237852
  Ewald energy   TEWEN  =    -41939.39907323
  -Hartree energ DENC   =    -25681.03478361
  -exchange      EXHF   =         0.00000000
  -V(xc)+E(xc)   XCENC  =      3605.60457318
  PAW double counting   =     55594.23204139   -59034.67079123
  entropy T*S    EENTRO =        -0.00000000
  eigenvalues    EBANDS =    -10293.46863617
  atomic energy  EATOM  =     73862.19814772
  Solvation  Ediel_sol  =         0.00000000
  ---------------------------------------------------
  free energy    TOTEN  =     -1233.72614344 eV

  energy without entropy =    -1233.72614344  energy(sigma->0) =    -1233.72614344


--------------------------------------------------------------------------------------------------------




--------------------------------------- Iteration      1(   8)  ---------------------------------------


    EDDIAG:  cpu time    3.7841: real time    3.7880
  RMM-DIIS:  cpu time    6.6736: real time    6.6782
    ORTHCH:  cpu time    1.1482: real time    1.1511
       DOS:  cpu time    0.0010: real time    0.0018
    --------------------------------------------
      LOOP:  cpu time   11.6069: real time   11.6192

 eigenvalue-minimisations  :  7168
 total energy-change (2. order) : 0.4715918E+01  (-0.5278043E+02)
 number of electron     672.0000000 magnetization      48.0000000
 augmentation part      672.0000000 magnetization      48.0000000

 Free energy of the ion-electron system (eV)
  ---------------------------------------------------
  alpha Z        PSCENC =      2652.81237852
  Ewald energy   TEWEN  =    -41939.39907323
  -Hartree energ DENC   =    -25681.03478361
  -exchange      EXHF   =         0.00000000
  -V(xc)+E(xc)   XCENC  =      3605.60457318
  PAW double counting   =     55594.23204139   -59034.67079123
  entropy T*S    EENTRO =        -0.00000000
  eigenvalues    EBANDS =    -10288.75271767
  atomic energy  EATOM  =     73862.19814772
  Solvation  Ediel_sol  =         0.00000000
  ---------------------------------------------------
  free energy    TOTEN  =     -1229.01022494 eV

  energy without entropy =    -1229.01022494  energy(sigma->0) =    -1229.01022494


--------------------------------------------------------------------------------------------------------




--------------------------------------- Iteration      1(   9)  ---------------------------------------


    EDDIAG:  cpu time    3.7136: real time    3.7452
  RMM-DIIS:  cpu time   13.8271: real time   13.8382
    ORTHCH:  cpu time    1.1770: real time    1.1793
       DOS:  cpu time    0.0010: real time    0.0010
    --------------------------------------------
      LOOP:  cpu time   18.7187: real time   18.7637

 eigenvalue-minimisations  : 20253
 total energy-change (2. order) : 0.1811375E+02  (-0.2366797E+02)
 number of electron     672.0000000 magnetization      48.0000000
 augmentation part      672.0000000 magnetization      48.0000000

 Free energy of the ion-electron system (eV)
  ---------------------------------------------------
  alpha Z        PSCENC =      2652.81237852
  Ewald energy   TEWEN  =    -41939.39907323
  -Hartree energ DENC   =    -25681.03478361
  -exchange      EXHF   =         0.00000000
  -V(xc)+E(xc)   XCENC  =      3605.60457318
  PAW double counting   =     55594.23204139   -59034.67079123
  entropy T*S    EENTRO =        -0.00000000
  eigenvalues    EBANDS =    -10270.63896828
  atomic energy  EATOM  =     73862.19814772
  Solvation  Ediel_sol  =         0.00000000
  ---------------------------------------------------
  free energy    TOTEN  =     -1210.89647555 eV

  energy without entropy =    -1210.89647555  energy(sigma->0) =    -1210.89647555


--------------------------------------------------------------------------------------------------------




--------------------------------------- Iteration      1(  10)  ---------------------------------------


    EDDIAG:  cpu time    3.7420: real time    3.7454
  RMM-DIIS:  cpu time   15.7515: real time   15.7766
    ORTHCH:  cpu time    1.1818: real time    1.1843
       DOS:  cpu time    0.0011: real time    0.0011
    --------------------------------------------
      LOOP:  cpu time   20.6765: real time   20.7074

 eigenvalue-minimisations  : 20129
 total energy-change (2. order) :-0.3098607E+01  (-0.1033500E+01)
 number of electron     672.0000000 magnetization      48.0000000
 augmentation part      672.0000000 magnetization      48.0000000

 Free energy of the ion-electron system (eV)
  ---------------------------------------------------
  alpha Z        PSCENC =      2652.81237852
  Ewald energy   TEWEN  =    -41939.39907323
  -Hartree energ DENC   =    -25681.03478361
  -exchange      EXHF   =         0.00000000
  -V(xc)+E(xc)   XCENC  =      3605.60457318
  PAW double counting   =     55594.23204139   -59034.67079123
  entropy T*S    EENTRO =        -0.00000034
  eigenvalues    EBANDS =    -10273.73757488
  atomic energy  EATOM  =     73862.19814772
  Solvation  Ediel_sol  =         0.00000000
  ---------------------------------------------------
  free energy    TOTEN  =     -1213.99508249 eV

  energy without entropy =    -1213.99508215  energy(sigma->0) =    -1213.99508232


--------------------------------------------------------------------------------------------------------




--------------------------------------- Iteration      1(  11)  ---------------------------------------


    EDDIAG:  cpu time    3.7226: real time    3.7279
  RMM-DIIS:  cpu time   15.1475: real time   15.1607
    ORTHCH:  cpu time    1.1530: real time    1.1554
       DOS:  cpu time    0.0011: real time    0.0011
    --------------------------------------------
      LOOP:  cpu time   20.0243: real time   20.0450

 eigenvalue-minimisations  : 21735
 total energy-change (2. order) : 0.1194435E+00  (-0.3513254E+00)
 number of electron     672.0000000 magnetization      48.0000000
 augmentation part      672.0000000 magnetization      48.0000000

 Free energy of the ion-electron system (eV)
  ---------------------------------------------------
  alpha Z        PSCENC =      2652.81237852
  Ewald energy   TEWEN  =    -41939.39907323
  -Hartree energ DENC   =    -25681.03478361
  -exchange      EXHF   =         0.00000000
  -V(xc)+E(xc)   XCENC  =      3605.60457318
  PAW double counting   =     55594.23204139   -59034.67079123
  entropy T*S    EENTRO =        -0.00000035
  eigenvalues    EBANDS =    -10273.61813139
  atomic energy  EATOM  =     73862.19814772
  Solvation  Ediel_sol  =         0.00000000
  ---------------------------------------------------
  free energy    TOTEN  =     -1213.87563901 eV

  energy without entropy =    -1213.87563866  energy(sigma->0) =    -1213.87563883


--------------------------------------------------------------------------------------------------------




--------------------------------------- Iteration      1(  12)  ---------------------------------------


    EDDIAG:  cpu time    3.7115: real time    3.7161
  RMM-DIIS:  cpu time   15.9659: real time   15.9969
    ORTHCH:  cpu time    1.1469: real time    1.1498
       DOS:  cpu time    0.0014: real time    0.0014
    CHARGE:  cpu time    1.3490: real time    1.3500
    MIXING:  cpu time    0.0014: real time    0.0016
    --------------------------------------------
      LOOP:  cpu time   22.1760: real time   22.2157

 eigenvalue-minimisations  : 22632
 total energy-change (2. order) :-0.8191177E-02  (-0.1253314E-01)
 number of electron     671.9999577 magnetization      48.0000006
 augmentation part      239.0120873 magnetization      29.0392281

 Broyden mixing:
  rms(total) = 0.12506E+02    rms(broyden)= 0.12497E+02
  rms(prec ) = 0.14367E+02
  weight for this iteration     100.00

 Free energy of the ion-electron system (eV)
  ---------------------------------------------------
  alpha Z        PSCENC =      2652.81237852
  Ewald energy   TEWEN  =    -41939.39907323
  -Hartree energ DENC   =    -25681.03478361
  -exchange      EXHF   =         0.00000000
  -V(xc)+E(xc)   XCENC  =      3605.60457318
  PAW double counting   =     55594.23204139   -59034.67079123
  entropy T*S    EENTRO =        -0.00000031
  eigenvalues    EBANDS =    -10273.62632261
  atomic energy  EATOM  =     73862.19814772
  Solvation  Ediel_sol  =         0.00000000
  ---------------------------------------------------
  free energy    TOTEN  =     -1213.88383018 eV

  energy without entropy =    -1213.88382988  energy(sigma->0) =    -1213.88383003


--------------------------------------------------------------------------------------------------------




--------------------------------------- Iteration      1(  13)  ---------------------------------------


    POTLOK:  cpu time    0.1972: real time    0.1978
    SETDIJ:  cpu time    3.2691: real time    3.2704
    EDDIAG:  cpu time    3.7212: real time    3.7244
  RMM-DIIS:  cpu time   13.0466: real time   13.0748
    ORTHCH:  cpu time    1.1708: real time    1.1743
       DOS:  cpu time    0.0018: real time    0.0018
    CHARGE:  cpu time    1.3509: real time    1.3518
    MIXING:  cpu time    0.0007: real time    0.0009
    --------------------------------------------
      LOOP:  cpu time   22.7583: real time   22.7961

 eigenvalue-minimisations  : 17284
 total energy-change (2. order) : 0.2232019E+03  (-0.1385891E+03)
 number of electron     671.9999630 magnetization      48.0000007
 augmentation part      269.1422076 magnetization      26.4418027

 Broyden mixing:
  rms(total) = 0.14006E+02    rms(broyden)= 0.14002E+02
  rms(prec ) = 0.15764E+02
  weight for this iteration     100.00

 eigenvalues of (default mixing * dielectric matrix)
  average eigenvalue GAMMA=   0.3160
  0.3160

 Free energy of the ion-electron system (eV)
  ---------------------------------------------------
  alpha Z        PSCENC =      2652.81237852
  Ewald energy   TEWEN  =    -41939.39907323
  -Hartree energ DENC   =    -25003.11461411
  -exchange      EXHF   =         0.00000000
  -V(xc)+E(xc)   XCENC  =      3695.70200020
  PAW double counting   =     59845.45923048   -63270.17603493
  entropy T*S    EENTRO =        -0.07537393
  eigenvalues    EBANDS =    -10834.08859328
  atomic energy  EATOM  =     73862.19814772
  Solvation  Ediel_sol  =         0.00000000
  ---------------------------------------------------
  free energy    TOTEN  =      -990.68193257 eV

  energy without entropy =     -990.60655863  energy(sigma->0) =     -990.64424560


--------------------------------------------------------------------------------------------------------




--------------------------------------- Iteration      1(  14)  ---------------------------------------


    POTLOK:  cpu time    0.2078: real time    0.2090
    SETDIJ:  cpu time    3.2605: real time    3.2619
    EDDIAG:  cpu time    3.8289: real time    3.8330
  RMM-DIIS:  cpu time   13.5426: real time   13.6735
    ORTHCH:  cpu time    1.1634: real time    1.1660
       DOS:  cpu time    0.0010: real time    0.0010
    CHARGE:  cpu time    1.3474: real time    1.3477
    MIXING:  cpu time    0.0007: real time    0.0007
    --------------------------------------------
      LOOP:  cpu time   23.3523: real time   23.4926

 eigenvalue-minimisations  : 17753
 total energy-change (2. order) : 0.7539999E+02  (-0.1894151E+02)
 number of electron     671.9999607 magnetization      48.0000012
 augmentation part      246.5989361 magnetization      32.1910819

 Broyden mixing:
  rms(total) = 0.52280E+01    rms(broyden)= 0.52236E+01
  rms(prec ) = 0.56524E+01
  weight for this iteration     100.00

 eigenvalues of (default mixing * dielectric matrix)
  average eigenvalue GAMMA=   0.7271
  1.0959  0.3583

 Free energy of the ion-electron system (eV)
  ---------------------------------------------------
  alpha Z        PSCENC =      2652.81237852
  Ewald energy   TEWEN  =    -41939.39907323
  -Hartree energ DENC   =    -25613.77718429
  -exchange      EXHF   =         0.00000000
  -V(xc)+E(xc)   XCENC  =      3673.04464413
  PAW double counting   =     63243.47942990   -66725.03539248
  entropy T*S    EENTRO =        -0.00000000
  eigenvalues    EBANDS =    -10068.60488877
  atomic energy  EATOM  =     73862.19814772
  Solvation  Ediel_sol  =         0.00000000
  ---------------------------------------------------
  free energy    TOTEN  =      -915.28193850 eV

  energy without entropy =     -915.28193850  energy(sigma->0) =     -915.28193850


--------------------------------------------------------------------------------------------------------




--------------------------------------- Iteration      1(  15)  ---------------------------------------


    POTLOK:  cpu time    0.1979: real time    0.1980
    SETDIJ:  cpu time    3.2642: real time    3.2655
    EDDIAG:  cpu time    3.7410: real time    3.7454
  RMM-DIIS:  cpu time   13.7305: real time   13.7395
    ORTHCH:  cpu time    1.1525: real time    1.1555
       DOS:  cpu time    0.0011: real time    0.0011
    CHARGE:  cpu time    1.3497: real time    1.3503
    MIXING:  cpu time    0.0006: real time    0.0006
    --------------------------------------------
      LOOP:  cpu time   23.4375: real time   23.4559

 eigenvalue-minimisations  : 18381
 total energy-change (2. order) : 0.1372313E+02  (-0.2216136E+01)
 number of electron     671.9999613 magnetization      48.0000014
 augmentation part      249.6619225 magnetization      33.8189927

 Broyden mixing:
  rms(total) = 0.21812E+01    rms(broyden)= 0.21808E+01
  rms(prec ) = 0.22651E+01
  weight for this iteration     100.00

 eigenvalues of (default mixing * dielectric matrix)
  average eigenvalue GAMMA=   0.9328
  1.6699  0.3835  0.7449

 Free energy of the ion-electron system (eV)
  ---------------------------------------------------
  alpha Z        PSCENC =      2652.81237852
  Ewald energy   TEWEN  =    -41939.39907323
  -Hartree energ DENC   =    -25530.90067798
  -exchange      EXHF   =         0.00000000
  -V(xc)+E(xc)   XCENC  =      3705.68125414
  PAW double counting   =     67298.51979068   -70820.28686644
  entropy T*S    EENTRO =        -0.00000000
  eigenvalues    EBANDS =    -10130.18376542
  atomic energy  EATOM  =     73862.19814772
  Solvation  Ediel_sol  =         0.00000000
  ---------------------------------------------------
  free energy    TOTEN  =      -901.55881202 eV

  energy without entropy =     -901.55881202  energy(sigma->0) =     -901.55881202


--------------------------------------------------------------------------------------------------------




--------------------------------------- Iteration      1(  16)  ---------------------------------------


    POTLOK:  cpu time    0.2078: real time    0.2079
    SETDIJ:  cpu time    3.2966: real time    3.3041
    EDDIAG:  cpu time    3.8895: real time    3.8929
  RMM-DIIS:  cpu time   13.1639: real time   13.1747
    ORTHCH:  cpu time    1.1496: real time    1.1519
       DOS:  cpu time    0.0010: real time    0.0010
    CHARGE:  cpu time    1.3523: real time    1.3529
    MIXING:  cpu time    0.0007: real time    0.0007
    --------------------------------------------
      LOOP:  cpu time   23.0613: real time   23.0860

 eigenvalue-minimisations  : 17504
 total energy-change (2. order) :-0.1404619E+01  (-0.7111444E+00)
 number of electron     671.9999617 magnetization      48.0000015
 augmentation part      251.1113539 magnetization      33.9230865

 Broyden mixing:
  rms(total) = 0.14672E+01    rms(broyden)= 0.14667E+01
  rms(prec ) = 0.15536E+01
  weight for this iteration     100.00

 eigenvalues of (default mixing * dielectric matrix)
  average eigenvalue GAMMA=   0.9655
  2.0624  0.8955  0.3899  0.5142

 Free energy of the ion-electron system (eV)
  ---------------------------------------------------
  alpha Z        PSCENC =      2652.81237852
  Ewald energy   TEWEN  =    -41939.39907323
  -Hartree energ DENC   =    -25480.58297759
  -exchange      EXHF   =         0.00000000
  -V(xc)+E(xc)   XCENC  =      3706.78385987
  PAW double counting   =     70158.14490338   -73709.03284990
  entropy T*S    EENTRO =        -0.00000000
  eigenvalues    EBANDS =    -10153.88781987
  atomic energy  EATOM  =     73862.19814772
  Solvation  Ediel_sol  =         0.00000000
  ---------------------------------------------------
  free energy    TOTEN  =      -902.96343111 eV

  energy without entropy =     -902.96343111  energy(sigma->0) =     -902.96343111


--------------------------------------------------------------------------------------------------------




--------------------------------------- Iteration      1(  17)  ---------------------------------------


    POTLOK:  cpu time    0.2093: real time    0.2100
    SETDIJ:  cpu time    3.3101: real time    3.3125
    EDDIAG:  cpu time    3.7349: real time    3.7385
  RMM-DIIS:  cpu time   13.7078: real time   13.7399
    ORTHCH:  cpu time    1.1554: real time    1.1577
       DOS:  cpu time    0.0011: real time    0.0011
    CHARGE:  cpu time    1.3535: real time    1.3541
    MIXING:  cpu time    0.0015: real time    0.0015
    --------------------------------------------
      LOOP:  cpu time   23.4734: real time   23.5154

 eigenvalue-minimisations  : 18630
 total energy-change (2. order) : 0.1908483E+00  (-0.2126058E+00)
 number of electron     671.9999617 magnetization      48.0000016
 augmentation part      251.0837284 magnetization      33.9214392

 Broyden mixing:
  rms(total) = 0.78103E+00    rms(broyden)= 0.78087E+00
  rms(prec ) = 0.88174E+00
  weight for this iteration     100.00

 eigenvalues of (default mixing * dielectric matrix)
  average eigenvalue GAMMA=   0.9892
  2.2180  1.1117  0.3794  0.6862  0.5509

 Free energy of the ion-electron system (eV)
  ---------------------------------------------------
  alpha Z        PSCENC =      2652.81237852
  Ewald energy   TEWEN  =    -41939.39907323
  -Hartree energ DENC   =    -25471.17370933
  -exchange      EXHF   =         0.00000000
  -V(xc)+E(xc)   XCENC  =      3704.18542074
  PAW double counting   =     71054.97430815   -74614.70194041
  entropy T*S    EENTRO =        -0.00000000
  eigenvalues    EBANDS =    -10151.66811498
  atomic energy  EATOM  =     73862.19814772
  Solvation  Ediel_sol  =         0.00000000
  ---------------------------------------------------
  free energy    TOTEN  =      -902.77258283 eV

  energy without entropy =     -902.77258283  energy(sigma->0) =     -902.77258283


--------------------------------------------------------------------------------------------------------




--------------------------------------- Iteration      1(  18)  ---------------------------------------


    POTLOK:  cpu time    0.2009: real time    0.2010
    SETDIJ:  cpu time    3.3049: real time    3.3063
    EDDIAG:  cpu time    3.7234: real time    3.7268
  RMM-DIIS:  cpu time   13.2918: real time   13.3540
    ORTHCH:  cpu time    1.2024: real time    1.2048
       DOS:  cpu time    0.0011: real time    0.0011
    CHARGE:  cpu time    1.3636: real time    1.3650
    MIXING:  cpu time    0.0009: real time    0.0009
    --------------------------------------------
      LOOP:  cpu time   23.0890: real time   23.1598

 eigenvalue-minimisations  : 17684
 total energy-change (2. order) : 0.3535066E+00  (-0.9442184E-01)
 number of electron     671.9999615 magnetization      48.0000017
 augmentation part      250.5856416 magnetization      33.8866570

 Broyden mixing:
  rms(total) = 0.29219E+00    rms(broyden)= 0.29193E+00
  rms(prec ) = 0.30794E+00
  weight for this iteration     100.00

 eigenvalues of (default mixing * dielectric matrix)
  average eigenvalue GAMMA=   1.0173
  2.4609  1.3579  0.8508  0.5872  0.3813  0.4656

 Free energy of the ion-electron system (eV)
  ---------------------------------------------------
[...]
   4      -0.945    -1.056     2.000     0.020     0.059    -0.006
   5      -0.825    -0.744     1.569    -0.125     0.392     0.288
   6      -0.956    -1.018     1.974    -0.020    -0.028    -0.112
   7      -0.565    -0.897     1.462    -0.038     0.000     0.495
   8      -0.876    -0.764     1.640     0.060     0.444    -0.277
   9      -0.944    -0.904     1.847    -0.054     0.030     0.039
  10      -0.846    -0.590     1.436     0.078    -0.417     0.267
  11      -0.569    -0.875     1.444    -0.030     0.042    -0.494
  12      -0.552    -0.798     1.350     0.066    -0.105     0.423
  13      -0.757    -0.736     1.494     0.097     0.427    -0.217
  14      -0.982    -0.927     1.908    -0.058     0.110     0.072
  15      -0.859    -0.718     1.576    -0.136     0.320     0.248
  16      -0.854    -0.688     1.542     0.032    -0.503     0.300
  17       1.518     1.339    -2.857     0.012     0.070     0.054
  18       1.439     1.538    -2.977    -0.020    -0.116     0.059
  19       1.389     1.529    -2.918    -0.033    -0.065    -0.002
  20       1.404     1.503    -2.907     0.029     0.066     0.098
  21       1.604     1.293    -2.897     0.138    -0.020    -0.043
  22       1.327     1.529    -2.856     0.124     0.060    -0.057
  23       1.345     1.575    -2.919     0.080    -0.032     0.006
  24       1.365     1.402    -2.767    -0.264    -0.021    -0.022
  25      -0.653    -0.013     0.665    -0.872    -0.121     0.127
  26      -1.438     1.170     0.268    -0.416    -0.334     0.207
  27      -0.934    -1.034     1.968     0.255     0.711    -0.239
  28       0.085     0.992    -1.077    -0.629    -0.578    -0.380
  29      -0.770     0.126     0.644    -0.417     0.815    -0.436
  30       0.042    -0.884     0.842     0.124     0.318    -0.764
  31       0.288     0.078    -0.366     0.383    -0.493     1.048
  32      -0.665     0.397     0.267    -0.296     0.336    -0.165
  33       0.536     1.261    -1.797     0.269    -0.175     0.706
  34      -1.798     1.694     0.105    -0.886     0.294     1.027
  35      -0.415     0.426    -0.011     0.299     1.205     0.045
  36       0.316     0.259    -0.575     0.469    -0.972    -0.077
  37      -1.034    -0.129     1.163     0.305    -0.491    -0.712
  38      -0.515     0.361     0.154    -0.686    -1.395    -0.650
  39       0.738    -0.021    -0.717     0.145    -0.678    -0.167
  40       0.021    -0.564     0.543     0.735     1.678     0.756
  41      -2.560     2.241     0.319    -6.723     1.548    -5.111
  42      -4.322     3.905     0.417     5.474     1.626     4.427
  43       5.178    -4.883    -0.295     0.343    -3.367    -1.195
  44      -5.128     4.653     0.476     4.813    -3.141    -3.201
  45      -3.908     3.196     0.712    -4.949    -1.466     3.744
  46       4.059    -6.488     2.429    -1.202     4.266    -1.341
  47      -2.785     3.608    -0.823    -5.461     2.262    -3.526
  48       4.292    -5.789     1.496     1.244    -3.924     0.158
  49      -4.856     4.379     0.477     4.651     3.660     4.895
  50       6.513    -5.800    -0.713     0.440     4.884    -1.229
  51      -2.303     2.600    -0.297    -5.409    -2.458     3.377
  52      -3.462     2.402     1.060     4.720     0.432    -5.282
  53      -2.321     1.647     0.674    -4.637     2.476    -3.950
  54      -3.230     0.669     2.561     3.401     1.553     3.809
  55       4.392    -5.723     1.331    -0.861    -4.755    -0.013
  56      -2.068     0.222     1.846     5.328    -1.126    -2.974
  57      -4.750     3.316     1.434    -5.471    -2.785     4.914
  58       3.332    -6.672     3.340    -0.783     5.024     0.524
  59      -0.931     2.332    -1.401    -6.494     3.010    -3.272
  60       5.046    -7.259     2.213    -0.487    -6.433     0.445
  61      -3.303     2.251     1.052     4.409     2.513     3.167
  62       4.839    -4.989     0.150    -1.212     3.693    -0.458
  63      -2.011     0.496     1.515    -4.441    -2.092     3.281
  64      -3.190     3.777    -0.587     5.147    -1.176    -4.060
  65      -4.309     3.395     0.914    -5.226     2.190    -4.142
  66      -3.350     2.651     0.699     5.350     2.641     4.004
  67       3.916    -6.844     2.928    -1.247    -4.942     1.408
  68      -4.575     3.070     1.505     3.206    -2.525    -4.775
  69      -3.135     2.448     0.688    -4.771    -1.991     3.928
  70       5.367    -6.444     1.077    -1.135     4.629    -0.291
  71      -3.725     5.058    -1.332    -4.040     1.774    -4.035
  72       4.663    -4.018    -0.645    -0.374    -2.835     0.717
  73      -3.440     2.568     0.873     4.658     1.966     4.385
  74       5.815    -6.450     0.635    -0.050     5.651    -0.019
  75      -2.487     4.380    -1.894    -4.652    -1.283     4.131
  76      -3.008     2.765     0.243     4.513    -1.176    -5.562
  77      -2.986     3.460    -0.474    -3.729     2.145    -4.292
  78      -2.324     1.965     0.359     4.941     1.521     4.648
  79       5.667    -7.161     1.493     1.290    -5.571     0.559
  80      -4.412     3.255     1.158     5.217    -3.120    -4.231
  81      -3.917     2.749     1.168    -4.762    -3.468     4.467
  82       5.619    -5.630     0.010    -0.263     5.129     1.433
  83      -4.094     2.653     1.441    -5.303     1.402    -4.362
  84       4.038    -5.896     1.858    -0.922    -5.843    -0.924
  85      -3.975     3.195     0.779     5.035     2.638     4.070
  86       7.327    -5.517    -1.810     0.189     2.539    -1.052
  87      -3.700     3.252     0.448    -2.491    -2.490     4.744
  88      -1.571     3.039    -1.467     5.507    -2.594    -3.102
 ---------------------------------------------------------------------


 Total hyperfine coupling parameters after diagonalization (MHz)
 (convention: |A_zz| > |A_xx| > |A_yy|)
 ----------------------------------------------------------------------
  ion      A_xx      A_yy      A_zz     asymmetry (A_yy - A_xx)/ A_zz 
 ----------------------------------------------------------------------
   1       1.173     0.922     3.019      -0.083
   2       2.257     1.896     4.256      -0.085
   3       1.850     1.516     4.109      -0.081
   4      -0.339    -0.222     2.722       0.043
   5       1.905     1.550     4.219      -0.084
   6       0.256     0.178     3.184      -0.025
   7       1.752     1.314     3.875      -0.113
   8       2.423     2.158     4.905      -0.054
   9      -0.310    -0.194     2.521       0.046
  10       2.012     1.624     4.126      -0.094
  11       1.662     1.254     3.777      -0.108
  12       2.104     1.740     4.073      -0.089
  13       2.077     1.797     4.319      -0.065
  14      -0.077     0.057     2.861       0.047
  15       2.492     2.123     4.767      -0.077
  16       2.020     1.727     4.391      -0.067
  17      13.731     9.534    13.912      -0.302
  18      14.766    10.348    14.872      -0.297
  19      14.356    10.055    14.509      -0.296
  20      15.179    10.871    15.295      -0.282
  21      14.663    10.525    15.078      -0.274
  22      13.824     9.697    14.142      -0.292
  23      12.810     8.571    13.090      -0.324
  24      12.575     8.688    13.104      -0.297
  25      94.020    92.304    94.373      -0.018
  26     100.304    98.499   101.351      -0.018
  27      95.838    95.232    98.748      -0.006
  28      94.328    92.715    95.497      -0.017
  29      99.490    98.434   100.908      -0.010
  30      95.460    94.216    96.621      -0.013
  31      94.511    92.558    94.925      -0.021
  32      96.730    95.747    97.221      -0.010
  33      93.667    91.192    94.636      -0.026
  34      95.886    93.905    98.360      -0.020
  35      97.376    95.553    98.097      -0.019
  36      96.772    95.479    97.859      -0.013
  37      97.508    96.777    99.546      -0.007
  38      99.423    96.705    99.963      -0.027
  39      99.019    98.071   100.106      -0.009
  40      93.412    92.922    96.706      -0.005
  41       6.528     0.791    18.288      -0.314
  42       6.598     1.551    17.810      -0.283
  43       4.129     0.564    12.605      -0.283
  44       7.120     0.828    17.105      -0.368
  45       8.922     3.920    18.346      -0.273
  46       5.261    -0.375    14.156      -0.398
  47       3.813     0.556    15.082      -0.216
  48       5.270     0.386    13.518      -0.361
  49       6.000     1.577    18.848      -0.235
  50       5.027     1.337    16.647      -0.222
  51       6.717     3.256    17.209      -0.201
  52       7.810     1.168    16.586      -0.400
  53       6.095     3.098    16.249      -0.184
  54       3.247    -0.578    11.367      -0.337
  55       4.180     0.412    14.134      -0.267
  56       5.847    -0.648    12.371      -0.525
  57       8.696     3.505    20.890      -0.248
  58       5.660     0.342    15.545      -0.342
  59       6.149     3.319    18.597      -0.152
  60       5.515     1.188    18.714      -0.231
  61       3.413    -0.970    12.111      -0.362
  62       2.429    -0.838    11.305      -0.289
  63       2.550    -1.490    10.641      -0.380
  64       4.022     0.240    14.762      -0.256
  65       7.990     2.903    18.667      -0.272
  66       4.918     0.592    15.753      -0.275
  67       6.427     0.885    16.577      -0.334
  68       4.576     1.259    15.529      -0.214
  69       2.212    -1.677    12.080      -0.322
  70       4.377    -0.328    14.635      -0.321
  71       4.595     2.552    16.456      -0.124
  72       4.315     1.907    12.010      -0.201
  73       4.393     0.608    14.845      -0.255
  74       5.591     2.131    18.023      -0.192
  75       5.689     3.907    17.530      -0.102
  76       5.174     1.596    16.561      -0.216
  77       3.448     1.946    14.562      -0.103
  78       5.366     1.598    15.665      -0.241
  79       5.261    -0.121    16.914      -0.318
  80       6.256     1.146    17.560      -0.291
  81       8.660     4.611    20.350      -0.199
  82       6.966     3.184    18.092      -0.209
  83       8.013     2.248    17.829      -0.323
  84       3.303    -0.593    14.693      -0.265
  85       4.771     0.274    15.614      -0.288
  86       4.477     0.755    14.595      -0.255
  87       4.410     2.496    15.229      -0.126
  88      -1.917     0.359    11.747       0.194
 ---------------------------------------------------------------------



--------------------------------------------------------------------------------------------------------


 stress matrix after NEB project (eV)
    -48.39125      3.02050     -3.75772
      3.01870    -47.08214      5.35279
     -3.74228      5.35514    -65.52700
  FORCES: max atom, RMS     2.211475    1.092901
  FORCE total and by dimension   10.252318    1.883197
  Stress total and by dimension   94.635722   65.526995
     LOOP+:  cpu time  705.8914: real time  707.2790
    4ORBIT:  cpu time    0.0000: real time    0.0000
 


 total charge     
 
# of ion       s       p       d       tot
------------------------------------------
    1        0.054   5.997   0.000   6.051
    2        0.053   5.994   0.000   6.047
    3        0.050   5.993   0.000   6.043
    4        0.049   5.993   0.000   6.042
    5        0.049   5.992   0.000   6.040
    6        0.053   5.999   0.000   6.052
    7        0.048   5.991   0.000   6.039
    8        0.052   5.993   0.000   6.045
    9        0.048   5.992   0.000   6.040
   10        0.053   5.995   0.000   6.048
   11        0.049   5.991   0.000   6.039
   12        0.048   5.990   0.000   6.038
   13        0.053   5.994   0.000   6.047
   14        0.049   5.993   0.000   6.042
   15        0.049   5.991   0.000   6.041
   16        0.052   5.993   0.000   6.045
   17        0.148   6.126   0.082   6.357
   18        0.151   6.132   0.087   6.369
   19        0.146   6.124   0.081   6.351
   20        0.143   6.117   0.076   6.335
   21        0.150   6.128   0.084   6.362
   22        0.147   6.126   0.083   6.355
   23        0.153   6.133   0.088   6.374
   24        0.144   6.119   0.076   6.339
   25        0.386   6.473   4.857  11.715
   26        0.359   6.419   4.799  11.576
   27        0.385   6.471   4.850  11.706
   28        0.384   6.475   4.851  11.710
   29        0.361   6.424   4.803  11.588
   30        0.370   6.444   4.807  11.621
   31        0.384   6.474   4.847  11.705
   32        0.378   6.459   4.834  11.671
   33        0.390   6.489   4.864  11.744
   34        0.376   6.460   4.836  11.672
   35        0.369   6.439   4.826  11.634
   36        0.374   6.453   4.829  11.657
   37        0.377   6.460   4.830  11.667
   38        0.364   6.435   4.804  11.603
   39        0.371   6.444   4.825  11.639
   40        0.372   6.452   4.824  11.647
   41        1.604   3.491   0.000   5.094
   42        1.601   3.505   0.000   5.105
   43        1.597   3.504   0.000   5.100
   44        1.599   3.514   0.000   5.113
   45        1.598   3.515   0.000   5.113
   46        1.597   3.493   0.000   5.090
   47        1.600   3.530   0.000   5.130
   48        1.596   3.506   0.000   5.103
   49        1.601   3.483   0.000   5.084
   50        1.602   3.502   0.000   5.104
   51        1.601   3.515   0.000   5.117
   52        1.601   3.535   0.000   5.136
   53        1.598   3.530   0.000   5.128
   54        1.596   3.531   0.000   5.127
   55        1.597   3.495   0.000   5.092
   56        1.597   3.515   0.000   5.113
   57        1.605   3.503   0.000   5.108
   58        1.599   3.525   0.000   5.124
   59        1.599   3.475   0.000   5.075
   60        1.604   3.500   0.000   5.105
   61        1.597   3.492   0.000   5.089
   62        1.596   3.504   0.000   5.100
   63        1.595   3.507   0.000   5.102
   64        1.599   3.511   0.000   5.110
   65        1.602   3.509   0.000   5.111
   66        1.600   3.514   0.000   5.114
   67        1.601   3.514   0.000   5.115
   68        1.599   3.485   0.000   5.084
   69        1.597   3.502   0.000   5.099
   70        1.597   3.489   0.000   5.086
   71        1.600   3.477   0.000   5.077
   72        1.595   3.497   0.000   5.092
   73        1.600   3.528   0.000   5.128
   74        1.601   3.492   0.000   5.093
   75        1.601   3.484   0.000   5.085
   76        1.599   3.514   0.000   5.113
   77        1.595   3.476   0.000   5.071
   78        1.600   3.496   0.000   5.095
   79        1.600   3.490   0.000   5.090
   80        1.598   3.497   0.000   5.094
   81        1.604   3.503   0.000   5.108
   82        1.598   3.496   0.000   5.094
   83        1.599   3.519   0.000   5.118
   84        1.600   3.484   0.000   5.084
   85        1.602   3.502   0.000   5.103
   86        1.597   3.491   0.000   5.087
   87        1.599   3.495   0.000   5.093
   88        1.598   3.482   0.000   5.079
--------------------------------------------------
tot         84.747 416.281  77.940 578.968
 


 magnetization (x)
 
# of ion       s       p       d       tot
------------------------------------------
    1        0.001   0.000   0.000   0.002
    2        0.002   0.001   0.000   0.003
    3        0.002   0.000   0.000   0.002
    4        0.001   0.000   0.000   0.001
    5        0.002   0.000   0.000   0.002
    6        0.001   0.000   0.000   0.001
    7        0.002   0.000   0.000   0.002
    8        0.002   0.000   0.000   0.002
    9        0.001   0.000   0.000   0.001
   10        0.002   0.000   0.000   0.002
   11        0.002   0.000   0.000   0.002
   12        0.002   0.000   0.000   0.002
   13        0.002   0.000   0.000   0.002
   14        0.001   0.000   0.000   0.001
   15        0.002   0.001   0.000   0.003
   16        0.002   0.000   0.000   0.002
   17        0.007   0.002   0.001   0.010
   18        0.007   0.002   0.001   0.011
   19        0.007   0.002   0.001   0.011
   20        0.008   0.003   0.001   0.012
   21        0.007   0.003   0.001   0.011
   22        0.007   0.002   0.001   0.010
   23        0.007   0.002   0.001   0.010
   24        0.006   0.002   0.001   0.009
   25        0.014   0.030   2.729   2.773
   26        0.016   0.030   2.789   2.835
   27        0.015   0.031   2.740   2.786
   28        0.014   0.030   2.730   2.774
   29        0.016   0.030   2.794   2.840
   30        0.015   0.029   2.772   2.816
   31        0.015   0.031   2.737   2.783
   32        0.015   0.030   2.749   2.795
   33        0.015   0.030   2.721   2.766
   34        0.015   0.030   2.744   2.789
   35        0.015   0.028   2.770   2.814
   36        0.015   0.030   2.753   2.799
   37        0.016   0.031   2.756   2.802
   38        0.016   0.029   2.783   2.828
   39        0.016   0.031   2.759   2.806
   40        0.015   0.030   2.757   2.801
   41        0.002   0.041   0.000   0.043
   42        0.002   0.037   0.000   0.039
   43        0.002   0.015   0.000   0.017
   44        0.002   0.048   0.000   0.050
   45        0.003   0.054   0.000   0.057
   46        0.002   0.031   0.000   0.033
   47        0.002   0.025   0.000   0.027
   48        0.002   0.023   0.000   0.025
   49        0.002   0.034   0.000   0.036
   50        0.002   0.029   0.000   0.031
   51        0.002   0.049   0.000   0.051
   52        0.002   0.048   0.000   0.050
   53        0.002   0.043   0.000   0.046
   54        0.001   0.019   0.000   0.020
   55        0.002   0.024   0.000   0.026
   56        0.001   0.034   0.000   0.036
   57        0.003   0.057   0.000   0.060
   58        0.002   0.044   0.000   0.046
   59        0.002   0.042   0.000   0.045
   60        0.002   0.039   0.000   0.041
   61        0.001   0.013   0.000   0.014
   62        0.001   0.012   0.000   0.013
   63        0.001   0.016   0.000   0.018
   64        0.002   0.025   0.000   0.027
   65        0.002   0.058   0.000   0.060
   66        0.002   0.030   0.000   0.032
   67        0.002   0.038   0.000   0.040
   68        0.002   0.027   0.000   0.029
   69        0.001   0.004   0.000   0.006
   70        0.002   0.027   0.000   0.029
   71        0.002   0.029   0.000   0.031
   72        0.002   0.018   0.000   0.020
   73        0.002   0.035   0.000   0.037
   74        0.002   0.039   0.000   0.041
   75        0.002   0.039   0.000   0.041
   76        0.002   0.035   0.000   0.037
   77        0.002   0.019   0.000   0.021
   78        0.002   0.035   0.000   0.037
   79        0.002   0.030   0.000   0.032
   80        0.002   0.046   0.000   0.048
   81        0.003   0.060   0.000   0.062
   82        0.002   0.046   0.000   0.049
   83        0.002   0.056   0.000   0.059
   84        0.002   0.013   0.000   0.015
   85        0.002   0.033   0.000   0.035
   86        0.002   0.018   0.000   0.020
   87        0.002   0.032   0.000   0.034
   88        0.001  -0.006   0.000  -0.005
--------------------------------------------------
tot          0.422   2.063  44.093  46.578
 

 total amount of memory used by VASP MPI-rank0    88195. kBytes
=======================================================================

   base      :      30000. kBytes
   nonlr-proj:      13686. kBytes
   fftplans  :        992. kBytes
   grid      :      21513. kBytes
   one-center:       2737. kBytes
   wavefun   :      19267. kBytes
 
  
  
 General timing and accounting informations for this job:
 ========================================================
  
                  Total CPU time used (sec):      724.635
                            User time (sec):      718.436
                          System time (sec):        6.199
                         Elapsed time (sec):      728.767
  
                   Maximum memory used (kb):      181632.
                   Average memory used (kb):           0.
  
                          Minor page faults:       366890
                          Major page faults:            0
                 Voluntary context switches:         3863
