 vasp.5.4.4.18Apr17-6-g9f103f2a35 (build Dec 02 2020 12:53:39) complex          
  
 executed on             LinuxIFC date 2021.08.04  20:10:39
 running on   96 total cores
 distrk:  each k-point on   96 cores,    1 groups
 distr:  one band on NCORES_PER_BAND=   1 cores,   96 groups


--------------------------------------------------------------------------------------------------------


 INCAR:
 POTCAR:    PAW_PBE Na_pv 19Sep2006               
 POTCAR:    PAW_PBE Mg_pv 13Apr2007               
 POTCAR:    PAW_PBE Mn_pv 02Aug2007               
 POTCAR:    PAW_PBE O 08Apr2002                   

 ----------------------------------------------------------------------------- 
|                                                                             |
|           W    W    AA    RRRRR   N    N  II  N    N   GGGG   !!!           |
|           W    W   A  A   R    R  NN   N  II  NN   N  G    G  !!!           |
|           W    W  A    A  R    R  N N  N  II  N N  N  G       !!!           |
|           W WW W  AAAAAA  RRRRR   N  N N  II  N  N N  G  GGG   !            |
|           WW  WW  A    A  R   R   N   NN  II  N   NN  G    G                |
|           W    W  A    A  R    R  N    N  II  N    N   GGGG   !!!           |
|                                                                             |
|      For optimal performance we recommend to set                            |
|        NCORE= 4 - approx SQRT( number of cores)                             |
|      NCORE specifies how many cores store one orbital (NPAR=cpu/NCORE).     |
|      This setting can  greatly improve the performance of VASP for DFT.     |
|      The default,   NCORE=1            might be grossly inefficient         |
|      on modern multi-core architectures or massively parallel machines.     |
|      Do your own testing !!!!                                               |
|      Unfortunately you need to use the default for GW and RPA calculations. |
|      (for HF NCORE is supported but not extensively tested yet)             |
|                                                                             |
 ----------------------------------------------------------------------------- 

 POTCAR:    PAW_PBE Na_pv 19Sep2006               
   VRHFIN =Na: p6s1                                                             
   LEXCH  = PE                                                                  
   EATOM  =   766.0439 eV,   56.3026 Ry                                         
                                                                                
   TITEL  = PAW_PBE Na_pv 19Sep2006                                             
   LULTRA =        F    use ultrasoft PP ?                                      
   IUNSCR =        1    unscreen: 0-lin 1-nonlin 2-no                           
   RPACOR =    1.800    partial core radius                                     
   POMASS =   22.990; ZVAL   =    7.000    mass and valenz                      
   RCORE  =    2.200    outmost cutoff radius                                   
   RWIGS  =    2.200; RWIGS  =    1.164    wigner-seitz radius (au A)           
   ENMAX  =  259.561; ENMIN  =  194.671 eV                                      
   ICORE  =        2    local potential                                         
   LCOR   =        T    correct aug charges                                     
   LPAW   =        T    paw PP                                                  
   EAUG   =  368.056                                                            
   DEXC   =    0.000                                                            
   RMAX   =    2.245    core radius for proj-oper                               
   RAUG   =    1.300    factor for augmentation sphere                          
   RDEP   =    2.259    radius for radial grids                                 
   RDEPT  =    1.738    core radius for aug-charge                              
                                                                                
   Atomic configuration                                                         
    5 entries                                                                   
     n  l   j            E        occ.                                          
     1  0  0.50     -1033.6933   2.0000                                         
     2  0  0.50       -56.7526   2.0000                                         
     2  1  1.50       -28.6721   6.0000                                         
     3  0  0.50        -2.7440   1.0000                                         
     3  2  1.50        -1.3606   0.0000                                         
   Description                                                                  
     l       E           TYP  RCUT    TYP  RCUT                                 
     1    -28.6720912     23  2.000                                             
     1      6.8029130     23  2.000                                             
     0     -2.7439560     23  2.200                                             
     0     34.0145650     23  2.200                                             
     2     -1.3605826     23  2.200                                             
  local pseudopotential read in
  partial core-charges read in
  partial kinetic energy density read in
  atomic valenz-charges read in
  non local Contribution for L=           1  read in
    real space projection operators read in
  non local Contribution for L=           1  read in
    real space projection operators read in
  non local Contribution for L=           0  read in
    real space projection operators read in
  non local Contribution for L=           0  read in
    real space projection operators read in
    PAW grid and wavefunctions read in
 
   number of l-projection  operators is LMAX  =           4
   number of lm-projection operators is LMMAX =           8
 
 POTCAR:    PAW_PBE Mg_pv 13Apr2007               
   VRHFIN =Mg: p6s2                                                             
   LEXCH  = PE                                                                  
   EATOM  =  1056.7344 eV,   77.6678 Ry                                         
                                                                                
   TITEL  = PAW_PBE Mg_pv 13Apr2007                                             
   LULTRA =        F    use ultrasoft PP ?                                      
   IUNSCR =        1    unscreen: 0-lin 1-nonlin 2-no                           
   RPACOR =    1.500    partial core radius                                     
   POMASS =   24.305; ZVAL   =    8.000    mass and valenz                      
   RCORE  =    2.000    outmost cutoff radius                                   
   RWIGS  =    2.000; RWIGS  =    1.058    wigner-seitz radius (au A)           
   ENMAX  =  403.929; ENMIN  =  302.947 eV                                      
   RCLOC  =    1.506    cutoff for local pot                                    
   LCOR   =        T    correct aug charges                                     
   LPAW   =        T    paw PP                                                  
   EAUG   =  758.780                                                            
   DEXC   =    0.000                                                            
   RMAX   =    2.045    core radius for proj-oper                               
   RAUG   =    1.300    factor for augmentation sphere                          
   RDEP   =    2.025    radius for radial grids                                 
   RDEPT  =    1.557    core radius for aug-charge                              
                                                                                
   Atomic configuration                                                         
    5 entries                                                                   
     n  l   j            E        occ.                                          
     1  0  0.50     -1259.6230   2.0000                                         
     2  0  0.50       -79.8442   2.0000                                         
     2  1  1.50       -46.6121   6.0000                                         
     3  0  0.50        -4.7055   2.0000                                         
     3  2  1.50        -1.3606   0.0000                                         
   Description                                                                  
     l       E           TYP  RCUT    TYP  RCUT                                 
     1    -46.6121073     23  1.600                                             
     1      2.7211652     23  1.600                                             
     0     -4.7054661     23  2.000                                             
     0     61.2262170     23  2.000                                             
     2     -1.3605826     23  2.000                                             
  local pseudopotential read in
  partial core-charges read in
  partial kinetic energy density read in
  atomic valenz-charges read in
  non local Contribution for L=           1  read in
    real space projection operators read in
  non local Contribution for L=           1  read in
    real space projection operators read in
  non local Contribution for L=           0  read in
    real space projection operators read in
  non local Contribution for L=           0  read in
    real space projection operators read in
  non local Contribution for L=           2  read in
    real space projection operators read in
    PAW grid and wavefunctions read in
 
   number of l-projection  operators is LMAX  =           5
   number of lm-projection operators is LMMAX =          13
 
 POTCAR:    PAW_PBE Mn_pv 02Aug2007               
   VRHFIN =Mn: 3p4s3d                                                           
   LEXCH  = PE                                                                  
   EATOM  =  2025.2664 eV,  148.8529 Ry                                         
                                                                                
   TITEL  = PAW_PBE Mn_pv 02Aug2007                                             
   LULTRA =        F    use ultrasoft PP ?                                      
   IUNSCR =        1    unscreen: 0-lin 1-nonlin 2-no                           
   RPACOR =    2.080    partial core radius                                     
   POMASS =   54.938; ZVAL   =   13.000    mass and valenz                      
   RCORE  =    2.300    outmost cutoff radius                                   
   RWIGS  =    2.500; RWIGS  =    1.323    wigner-seitz radius (au A)           
   ENMAX  =  269.864; ENMIN  =  202.398 eV                                      
   ICORE  =        3    local potential                                         
   LCOR   =        T    correct aug charges                                     
   LPAW   =        T    paw PP                                                  
   EAUG   =  569.085                                                            
   DEXC   =    0.000                                                            
   RMAX   =    2.343    core radius for proj-oper                               
   RAUG   =    1.300    factor for augmentation sphere                          
   RDEP   =    2.338    radius for radial grids                                 
   RDEPT  =    1.798    core radius for aug-charge                              
                                                                                
   Atomic configuration                                                         
    8 entries                                                                   
     n  l   j            E        occ.                                          
     1  0  0.50     -6424.8287   2.0000                                         
     2  0  0.50      -739.1154   2.0000                                         
     2  1  1.50      -625.3949   6.0000                                         
     3  0  0.50       -81.6100   2.0000                                         
     3  1  1.50       -50.4667   6.0000                                         
     3  2  2.50        -3.3745   6.0000                                         
     4  0  0.50        -4.1331   1.0000                                         
     4  3  2.50        -1.3606   0.0000                                         
   Description                                                                  
     l       E           TYP  RCUT    TYP  RCUT                                 
     1    -50.4666628     23  2.000                                             
     1     -1.3605826     23  2.000                                             
     2     -3.3744729     23  2.300                                             
     2     -4.7350555     23  2.300                                             
     0     -4.1331431     23  2.300                                             
     0      7.6656591     23  2.300                                             
     3      9.5240782     23  2.300                                             
  local pseudopotential read in
  partial core-charges read in
  partial kinetic energy density read in
  atomic valenz-charges read in
  non local Contribution for L=           1  read in
    real space projection operators read in
  non local Contribution for L=           1  read in
    real space projection operators read in
  non local Contribution for L=           2  read in
    real space projection operators read in
  non local Contribution for L=           2  read in
    real space projection operators read in
  non local Contribution for L=           0  read in
    real space projection operators read in
  non local Contribution for L=           0  read in
    real space projection operators read in
    PAW grid and wavefunctions read in
 
   number of l-projection  operators is LMAX  =           6
   number of lm-projection operators is LMMAX =          18
 
 POTCAR:    PAW_PBE O 08Apr2002                   
   VRHFIN =O: s2p4                                                              
   LEXCH  = PE                                                                  
   EATOM  =   432.3788 eV,   31.7789 Ry                                         
                                                                                
   TITEL  = PAW_PBE O 08Apr2002                                                 
   LULTRA =        F    use ultrasoft PP ?                                      
   IUNSCR =        1    unscreen: 0-lin 1-nonlin 2-no                           
   RPACOR =    1.200    partial core radius                                     
   POMASS =   16.000; ZVAL   =    6.000    mass and valenz                      
   RCORE  =    1.520    outmost cutoff radius                                   
   RWIGS  =    1.550; RWIGS  =    0.820    wigner-seitz radius (au A)           
   ENMAX  =  400.000; ENMIN  =  300.000 eV                                      
   ICORE  =        2    local potential                                         
   LCOR   =        T    correct aug charges                                     
   LPAW   =        T    paw PP                                                  
   EAUG   =  605.392                                                            
   DEXC   =    0.000                                                            
   RMAX   =    1.553    core radius for proj-oper                               
   RAUG   =    1.300    factor for augmentation sphere                          
   RDEP   =    1.550    radius for radial grids                                 
   RDEPT  =    1.329    core radius for aug-charge                              
                                                                                
   Atomic configuration                                                         
    4 entries                                                                   
     n  l   j            E        occ.                                          
     1  0  0.50      -514.6923   2.0000                                         
     2  0  0.50       -23.9615   2.0000                                         
     2  1  0.50        -9.0305   4.0000                                         
     3  2  1.50        -9.5241   0.0000                                         
   Description                                                                  
     l       E           TYP  RCUT    TYP  RCUT                                 
     0    -23.9615318     23  1.200                                             
     0     -9.5240782     23  1.200                                             
     1     -9.0304911     23  1.520                                             
     1      8.1634956     23  1.520                                             
     2     -9.5240782      7  1.500                                             
  local pseudopotential read in
  partial core-charges read in
  partial kinetic energy density read in
  kinetic energy density of atom read in
  atomic valenz-charges read in
  non local Contribution for L=           0  read in
    real space projection operators read in
  non local Contribution for L=           0  read in
    real space projection operators read in
  non local Contribution for L=           1  read in
    real space projection operators read in
  non local Contribution for L=           1  read in
    real space projection operators read in
    PAW grid and wavefunctions read in
 
   number of l-projection  operators is LMAX  =           4
   number of lm-projection operators is LMMAX =           8
 
 Optimization of the real space projectors (new method)

 maximal supplied QI-value         = 17.01
 optimisation between [QCUT,QGAM] = [ 10.20, 20.41] = [ 29.16,116.64] Ry 
 Optimized for a Real-space Cutoff    1.30 Angstroem

   l    n(q)    QCUT    max X(q) W(low)/X(q) W(high)/X(q)  e(spline) 
   1      7    10.205     4.940    0.23E-03    0.84E-03    0.11E-06
   1      7    10.205     6.253    0.40E-03    0.13E-02    0.18E-06
   0      8    10.205    37.438    0.23E-03    0.37E-03    0.42E-07
   0      8    10.205     9.606    0.16E-03    0.26E-03    0.31E-07
 Optimization of the real space projectors (new method)

 maximal supplied QI-value         = 18.90
 optimisation between [QCUT,QGAM] = [ 10.20, 20.41] = [ 29.16,116.64] Ry 
 Optimized for a Real-space Cutoff    1.26 Angstroem

   l    n(q)    QCUT    max X(q) W(low)/X(q) W(high)/X(q)  e(spline) 
   1      7    10.205     2.974    0.63E-04    0.14E-03    0.13E-06
   1      7    10.205     4.279    0.11E-03    0.45E-03    0.24E-06
   0      8    10.205    16.381    0.44E-03    0.15E-03    0.55E-07
   0      8    10.205     5.611    0.31E-03    0.11E-03    0.40E-07
   2      7    10.205     4.652    0.50E-03    0.47E-03    0.57E-07
 Optimization of the real space projectors (new method)

 maximal supplied QI-value         = 16.25
 optimisation between [QCUT,QGAM] = [ 10.24, 20.48] = [ 29.35,117.42] Ry 
 Optimized for a Real-space Cutoff    1.34 Angstroem

   l    n(q)    QCUT    max X(q) W(low)/X(q) W(high)/X(q)  e(spline) 
   1      8    10.239     3.658    0.23E-03    0.30E-03    0.98E-07
   1      8    10.239     5.612    0.32E-03    0.65E-03    0.21E-06
   2      7    10.239    55.373    0.42E-03    0.45E-03    0.65E-07
   2      7    10.239    50.863    0.43E-03    0.48E-03    0.67E-07
   0      8    10.239    79.536    0.11E-03    0.21E-03    0.56E-07
   0      8    10.239    38.668    0.96E-04    0.19E-03    0.52E-07
 Optimization of the real space projectors (new method)

 maximal supplied QI-value         = 24.76
 optimisation between [QCUT,QGAM] = [ 10.15, 20.30] = [ 28.85,115.39] Ry 
 Optimized for a Real-space Cutoff    1.38 Angstroem

   l    n(q)    QCUT    max X(q) W(low)/X(q) W(high)/X(q)  e(spline) 
   0      8    10.150    20.381    0.22E-03    0.32E-03    0.29E-06
   0      8    10.150    15.268    0.23E-03    0.35E-03    0.30E-06
   1      8    10.150     5.964    0.46E-03    0.53E-03    0.21E-06
   1      8    10.150     5.382    0.38E-03    0.45E-03    0.19E-06
  PAW_PBE Na_pv 19Sep2006               :
 energy of atom  1       EATOM= -766.0439
 kinetic energy error for atom=    0.0103 (will be added to EATOM!!)
  PAW_PBE Mg_pv 13Apr2007               :
 energy of atom  2       EATOM=-1056.7344
 kinetic energy error for atom=    0.0820 (will be added to EATOM!!)
  PAW_PBE Mn_pv 02Aug2007               :
 energy of atom  3       EATOM=-2025.2664
 kinetic energy error for atom=    0.0284 (will be added to EATOM!!)
  PAW_PBE O 08Apr2002                   :
 energy of atom  4       EATOM= -432.3788
 kinetic energy error for atom=    0.1156 (will be added to EATOM!!)
 
 
 POSCAR: Na Mg Mn  O                             
  positions in cartesian coordinates
  No initial velocities read in

 METAGGA = SCAN     LMAXTAU =  6    LMIXTAU =  F

 exchange correlation table for  LEXCH =        8
   RHO(1)=    0.500       N(1)  =     2000
   RHO(2)=  100.500       N(2)  =     4000

 VTST: version 3.2, (02/03/18)

 CHAIN: initializing optimizer
 
 OPT: Using VASP Dynamics algorithm
 CHAIN: Read ICHAIN            0
 
 POSCAR: Na Mg Mn  O                             
  positions in cartesian coordinates
  No initial velocities read in
 


--------------------------------------------------------------------------------------------------------


 ion  position               nearest neighbor table
   1  0.009  0.829  0.248-  86 2.32  76 2.34
   2  0.999  0.592  0.755-  83 2.22  60 2.24  80 2.31  57 2.37  37 2.83  39 2.94
   3  0.308  0.107  0.763-  84 2.11  81 2.30  49 2.35  47 2.37
   4  0.662  0.323  0.748-  46 2.31  60 2.34
   5  0.625  0.949  0.250-  79 2.36  40 2.97
   6  0.811  0.419  0.251-  53 2.18  55 2.26  62 2.28
   7  0.514  0.626  0.744-  68 2.25  71 2.32  35 2.77  33 2.93
   8  0.172  0.324  0.756-  45 2.28  47 2.33  48 2.35  61 2.36
   9  0.324  0.438  0.250-  43 2.30  52 2.34
  10  0.676  0.663  0.250-  65 2.21  74 2.24
  11  0.471  0.148  0.254-  51 2.14  42 2.27  31 2.81  29 2.83
  12  0.803  0.127  0.750-  69 2.24  56 2.36
  13  0.920  0.878  0.750-  73 2.18  70 2.25  72 2.36  34 2.95
  14  0.344  0.814  0.752-  85 2.25  84 2.36  38 2.77
  15  0.983  0.153  0.252-  50 2.33  63 2.34  54 2.37  27 2.85  25 2.89
  16  0.174  0.645  0.253-  87 2.34  64 2.35  77 2.37
  17  0.659  0.467  0.997-  60 2.00  71 2.03  43 2.05  53 2.07  49 2.10  66 2.18  29 2.83
  18  0.315  0.293  0.498-  44 2.01  50 2.02  45 2.02  51 2.06  52 2.12  46 2.12  36 2.83
  19  0.166  0.479  0.996-  78 2.00  48 2.02  61 2.09  41 2.09  83 2.10  55 2.17  38 2.85
  20  0.825  0.306  0.496-  63 1.96  62 2.01  58 2.05  56 2.07  57 2.09  64 2.09  32 2.77  27 2.83

  21  0.159  0.976  0.998-  42 2.05  47 2.07  84 2.08  73 2.09  77 2.12  67 2.14  26 2.84
  22  0.811  0.798  0.495-  74 1.91  68 1.97  75 2.09  76 2.10  70 2.15  69 2.19  28 2.83  35 2.83

  23  0.650  0.972  0.994-  59 2.00  85 2.03  72 2.06  54 2.09  79 2.16  65 2.17  29 2.81  38 2.81

  24  0.323  0.790  0.497-  80 1.96  82 2.00  88 2.03  87 2.05  86 2.11  81 2.22  35 2.85  32 2.85
                            40 2.85
  25  0.983  0.132  0.995-  54 1.86  72 1.86  67 1.93  61 1.94  41 1.94  47 1.95  34 2.84  30 2.85
                            15 2.89  26 2.92
  26  0.320  0.303  0.004-  41 1.88  48 1.89  42 1.90  47 1.96  43 1.97  49 2.00  21 2.84  33 2.91
                            25 2.92  29 2.94
  27  0.981  0.135  0.506-  63 1.91  44 1.92  50 1.93  69 1.95  58 1.97  76 2.03  20 2.83  32 2.84
                            15 2.85  40 2.87  36 3.00
  28  0.659  0.472  0.493-  68 1.87  75 1.89  62 1.90  52 1.92  46 1.95  57 1.96  22 2.83  35 2.84
                            39 2.87  31 2.92
  29  0.496  0.141  0.003-  59 1.90  49 1.91  42 1.93  79 1.94  53 1.95  84 1.98  23 2.81  17 2.83
                            11 2.83  38 2.89  26 2.94  30 2.94
  30  0.835  0.313  0.997-  55 1.88  54 1.92  59 1.93  60 1.94  61 1.95  53 2.04  37 2.83  25 2.85
                            29 2.94
  31  0.489  0.136  0.503-  88 1.85  46 1.87  56 1.89  51 1.89  81 1.93  62 1.95  40 2.81  11 2.81
                            36 2.88  28 2.92
  32  0.145  0.462  0.498-  64 1.81  58 1.85  50 1.92  80 1.96  87 1.98  45 2.02  20 2.77  27 2.84
                            24 2.85  39 2.93  35 2.95
  33  0.500  0.638  0.004-  43 1.89  65 1.90  78 1.93  71 1.95  48 1.95  85 2.01  34 2.85  26 2.91
                             7 2.93  38 2.98
  34  0.829  0.805  0.002-  67 1.83  66 1.90  73 1.91  71 1.94  65 1.95  72 2.00  25 2.84  33 2.85
                            37 2.86  13 2.95
  35  0.485  0.625  0.498-  52 1.90  82 1.92  87 1.94  68 1.94  74 1.95  45 2.01   7 2.77  22 2.83
                            28 2.84  24 2.85  32 2.95  40 3.03
  36  0.158  0.967  0.495-  86 1.86  70 1.92  81 1.92  44 1.93  76 1.94  51 1.94  39 2.80  18 2.83
                            31 2.88  27 3.00
  37  0.992  0.639  0.002-  66 1.87  73 1.91  77 1.92  83 1.94  55 1.99  60 2.00   2 2.83  30 2.83
                            34 2.86  38 2.91
  38  0.327  0.808  0.999-  78 1.87  83 1.88  79 1.92  77 1.93  84 2.00  85 2.04  14 2.77  23 2.81
                            19 2.85  29 2.89  37 2.91  33 2.98
  39  0.990  0.645  0.498-  70 1.84  80 1.89  75 1.89  86 1.94  57 1.94  64 1.99  36 2.80  28 2.87
                            32 2.93   2 2.94
  40  0.650  0.973  0.514-  69 1.86  88 1.86  82 1.90  56 1.94  63 2.04  74 2.21  31 2.81  24 2.85
                            27 2.87   5 2.97  35 3.03
  41  0.151  0.291  0.089-  26 1.88  25 1.94  19 2.09
  42  0.336  0.149  0.092-  26 1.90  29 1.93  21 2.05  11 2.27
  43  0.488  0.473  0.094-  33 1.89  26 1.97  17 2.05   9 2.30
  44  0.141  0.120  0.589-  27 1.92  36 1.93  18 2.01
  45  0.313  0.461  0.596-  35 2.01  32 2.02  18 2.02   8 2.28
  46  0.506  0.303  0.590-  31 1.87  28 1.95  18 2.12   4 2.31
  47  0.156  0.151  0.902-  25 1.95  26 1.96  21 2.07   8 2.33   3 2.37
  48  0.339  0.469  0.911-  26 1.89  33 1.95  19 2.02   8 2.35
  49  0.476  0.286  0.905-  29 1.91  26 2.00  17 2.10   3 2.35
  50  0.141  0.295  0.411-  32 1.92  27 1.93  18 2.02  15 2.33
  51  0.330  0.124  0.405-  31 1.89  36 1.94  18 2.06  11 2.14
  52  0.498  0.475  0.403-  35 1.90  28 1.92  18 2.12   9 2.34
  53  0.660  0.297  0.101-  29 1.95  30 2.04  17 2.07   6 2.18
  54  0.836  0.149  0.085-  25 1.86  30 1.92  23 2.09  15 2.37
  55  0.978  0.467  0.100-  30 1.88  37 1.99  19 2.17   6 2.26
  56  0.648  0.141  0.598-  31 1.89  40 1.94  20 2.07  12 2.36
  57  0.826  0.484  0.592-  39 1.94  28 1.96  20 2.09   2 2.37
  58  0.999  0.312  0.597-  32 1.85  27 1.97  20 2.05
  59  0.662  0.154  0.911-  29 1.90  30 1.93  23 2.00
  60  0.830  0.472  0.901-  30 1.94  37 2.00  17 2.00   2 2.24   4 2.34
  61  0.989  0.297  0.901-  25 1.94  30 1.95  19 2.09   8 2.36
  62  0.649  0.302  0.408-  28 1.90  31 1.95  20 2.01   6 2.28
  63  0.823  0.134  0.411-  27 1.91  20 1.96  40 2.04  15 2.34
  64  0.010  0.487  0.405-  32 1.81  39 1.99  20 2.09  16 2.35
  65  0.661  0.794  0.097-  33 1.90  34 1.95  23 2.17  10 2.21
  66  0.846  0.657  0.095-  37 1.87  34 1.90  17 2.18
  67  0.969  0.967  0.092-  34 1.83  25 1.93  21 2.14
  68  0.651  0.623  0.586-  28 1.87  35 1.94  22 1.97   7 2.25
  69  0.811  0.981  0.602-  40 1.86  27 1.95  22 2.19  12 2.24
  70  0.001  0.803  0.589-  39 1.84  36 1.92  22 2.15  13 2.25
  71  0.664  0.645  0.907-  34 1.94  33 1.95  17 2.03   7 2.32
  72  0.831  0.974  0.904-  25 1.86  34 2.00  23 2.06  13 2.36
  73  0.979  0.791  0.907-  37 1.91  34 1.91  21 2.09  13 2.18
  74  0.646  0.789  0.404-  22 1.91  35 1.95  40 2.21  10 2.24
  75  0.824  0.624  0.402-  28 1.89  39 1.89  22 2.09
  76  0.999  0.977  0.404-  36 1.94  27 2.03  22 2.10   1 2.34
  77  0.159  0.794  0.094-  37 1.92  38 1.93  21 2.12  16 2.37
  78  0.338  0.654  0.085-  38 1.87  33 1.93  19 2.00
  79  0.471  0.970  0.102-  38 1.92  29 1.94  23 2.16   5 2.36
  80  0.144  0.631  0.584-  39 1.89  32 1.96  24 1.96   2 2.31
  81  0.320  0.981  0.596-  36 1.92  31 1.93  24 2.22   3 2.30
  82  0.494  0.791  0.589-  40 1.90  35 1.92  24 2.00
  83  0.163  0.661  0.906-  38 1.88  37 1.94  19 2.10   2 2.22
  84  0.337  0.979  0.900-  29 1.98  38 2.00  21 2.08   3 2.11  14 2.36
  85  0.487  0.793  0.898-  33 2.01  23 2.03  38 2.04  14 2.25
  86  0.151  0.809  0.403-  36 1.86  39 1.94  24 2.11   1 2.32
  87  0.320  0.615  0.402-  35 1.94  32 1.98  24 2.05  16 2.34
  88  0.499  0.981  0.422-  31 1.85  40 1.86  24 2.03
 
  LATTYP: Found a hexagonal cell.
 ALAT       =    10.0190000534
 C/A-ratio  =     1.1196726572
  
  Lattice vectors:
  
 A1 = (  10.0190000534,   0.0000000000,   0.0000000000)
 A2 = (  -5.0095000267,   8.6767085668,   0.0000000000)
 A3 = (   0.0000000000,   0.0000000000,  11.2180004120)


Analysis of symmetry for initial positions (statically):
=====================================================================
 Subroutine PRICEL returns:
 Original cell was already a primitive cell.
 

 Routine SETGRP: Setting up the symmetry group for a 
 hexagonal supercell.


 Subroutine GETGRP returns: Found  1 space group operations
 (whereof  1 operations were pure point group operations)
 out of a pool of 24 trial point group operations.


The static configuration has the point symmetry C_1 .


Analysis of symmetry for dynamics (positions and initial velocities):
=====================================================================
 Subroutine PRICEL returns:
 Original cell was already a primitive cell.
 

 Routine SETGRP: Setting up the symmetry group for a 
 hexagonal supercell.


 Subroutine GETGRP returns: Found  1 space group operations
 (whereof  1 operations were pure point group operations)
 out of a pool of 24 trial point group operations.


The dynamic configuration has the point symmetry C_1 .


Analysis of structural, dynamic, and magnetic symmetry:
=====================================================================
 Subroutine PRICEL returns:
 Original cell was already a primitive cell.
 

 Routine SETGRP: Setting up the symmetry group for a 
 hexagonal supercell.


 Subroutine GETGRP returns: Found  1 space group operations
 (whereof  1 operations were pure point group operations)
 out of a pool of 24 trial point group operations.


The magnetic configuration has the point symmetry C_1 .


 Subroutine INISYM returns: Found  1 space group operations
 (whereof  1 operations are pure point group operations),
 and found     1 'primitive' translations

 
 

Automatic generation of k-mesh.
 generate k-points for:    2    2    2
Space group operators:
 irot       det(A)        alpha          n_x          n_y          n_z        tau_x        tau_y        tau_z
    1     1.000000     0.000000     1.000000     0.000000     0.000000     0.000000     0.000000     0.000000
 
 Subroutine IBZKPT returns following result:
 ===========================================
 
 Found      8 irreducible k-points:
 
 Following reciprocal coordinates:
            Coordinates               Weight
  0.000000  0.000000  0.000000      1.000000
  0.500000 -0.000000 -0.000000      1.000000
  0.000000  0.500000  0.000000      1.000000
  0.500000  0.500000 -0.000000      1.000000
  0.000000  0.000000  0.500000      1.000000
  0.500000 -0.000000  0.500000      1.000000
  0.000000  0.500000  0.500000      1.000000
  0.500000  0.500000  0.500000      1.000000
 
 Following cartesian coordinates:
            Coordinates               Weight
  0.000000  0.000000  0.000000      1.000000
  0.049905  0.028813 -0.000000      1.000000
  0.000000  0.057626  0.000000      1.000000
  0.049905  0.086438 -0.000000      1.000000
  0.000000  0.000000  0.044571      1.000000
  0.049905  0.028813  0.044571      1.000000
  0.000000  0.057626  0.044571      1.000000
  0.049905  0.086438  0.044571      1.000000
 


--------------------------------------------------------------------------------------------------------




 Dimension of arrays:
   k-points           NKPTS =      8   k-points in BZ     NKDIM =      8   number of bands    NBANDS=    480
   number of dos      NEDOS =    301   number of ions     NIONS =     88
   non local maximal  LDIM  =      6   non local SUM 2l+1 LMDIM =     18
   total plane-waves  NPLWV = 140000
   max r-space proj   IRMAX =   1632   max aug-charges    IRDMAX=   4555
   dimension x,y,z NGX =    50 NGY =   50 NGZ =   56
   dimension x,y,z NGXF=   100 NGYF=  100 NGZF=  112
   support grid    NGXF=   100 NGYF=  100 NGZF=  112
   ions per type =              16   8  16  48
   NGX,Y,Z   is equivalent  to a cutoff of   8.30,  8.30,  8.30 a.u.
   NGXF,Y,Z  is equivalent  to a cutoff of  16.59, 16.59, 16.60 a.u.

 SYSTEM =  unknown system                          
 POSCAR =  Na Mg Mn  O                             

 Startparameter for this run:
   NWRITE =      2    write-flag & timer
   PREC   = normal    normal or accurate (medium, high low for compatibility)
   ISTART =      0    job   : 0-new  1-cont  2-samecut
   ICHARG =      1    charge: 1-file 2-atom 10-const
   ISPIN  =      2    spin polarized calculation?
   LNONCOLLINEAR =      F non collinear calculations
   LSORBIT =      F    spin-orbit coupling
   INIWAV =      1    electr: 0-lowe 1-rand  2-diag
   LASPH  =      T    aspherical Exc in radial PAW
   METAGGA=      F    non-selfconsistent MetaGGA calc.

 Electronic Relaxation 1
   ENCUT  =  400.0 eV  29.40 Ry    5.42 a.u.  16.34 16.34 18.29*2*pi/ulx,y,z
   ENINI  =  400.0     initial cutoff
   ENAUG  =  758.8 eV  augmentation charge cutoff
   NELM   =    200;   NELMIN=  6; NELMDL=-12     # of ELM steps 
   EDIFF  = 0.1E-04   stopping-criterion for ELM
   LREAL  =      T    real-space projection
   NLSPLINE    = F    spline interpolate recip. space projectors
   LCOMPAT=      F    compatible to vasp.4.4
   GGA_COMPAT  = T    GGA compatible to vasp.4.4-vasp.4.6
   LMAXPAW     = -100 max onsite density
   LMAXMIX     =    4 max onsite mixed and CHGCAR
   VOSKOWN=      0    Vosko Wilk Nusair interpolation
   ROPT   =   -0.00050  -0.00050  -0.00050  -0.00050
 Ionic relaxation
   EDIFFG = 0.1E-03   stopping-criterion for IOM
   NSW    =      1    number of steps for IOM
   NBLOCK =      1;   KBLOCK =      1    inner block; outer block 
   IBRION =     -1    ionic relax: 0-MD 1-quasi-New 2-CG
   NFREE  =      0    steps in history (QN), initial steepest desc. (CG)
   ISIF   =      2    stress and relaxation
   IWAVPR =     10    prediction:  0-non 1-charg 2-wave 3-comb
   ISYM   =      2    0-nonsym 1-usesym 2-fastsym
   LCORR  =      T    Harris-Foulkes like correction to forces

   POTIM  = 0.5000    time-step for ionic-motion
   TEIN   =    0.0    initial temperature
   TEBEG  =    0.0;   TEEND  =   0.0 temperature during run
   SMASS  =  -3.00    Nose mass-parameter (am)
   estimated Nose-frequenzy (Omega)   =  0.10E-29 period in steps =****** mass=  -0.229E-26a.u.
   SCALEE = 1.0000    scale energy and forces
   NPACO  =    256;   APACO  = 16.0  distance and # of slots for P.C.
   PSTRESS=    0.0 pullay stress

  Mass of Ions in am
   POMASS =  22.99 24.30 54.94 16.00
  Ionic Valenz
   ZVAL   =   7.00  8.00 13.00  6.00
  Atomic Wigner-Seitz radii
   RWIGS  =  -1.00 -1.00 -1.00 -1.00
  virtual crystal weights 
   VCA    =   1.00  1.00  1.00  1.00
   NELECT =     672.0000    total number of electrons
   NUPDOWN=      48.0000    fix difference up-down

 DOS related values:
   EMIN   =  10.00;   EMAX   =-10.00  energy-range for DOS
   EFERMI =   0.00
   ISMEAR =     0;   SIGMA  =   0.05  broadening in eV -4-tet -1-fermi 0-gaus

 Electronic relaxation 2 (details)
   IALGO  =     48    algorithm
   LDIAG  =      T    sub-space diagonalisation (order eigenvalues)
   LSUBROT=      F    optimize rotation matrix (better conditioning)
   TURBO    =      0    0=normal 1=particle mesh
   IRESTART =      0    0=no restart 2=restart with 2 vectors
   NREBOOT  =      0    no. of reboots
   NMIN     =      0    reboot dimension
   EREF     =   0.00    reference energy to select bands
   IMIX   =      4    mixing-type and parameters
     AMIX     =   0.40;   BMIX     =  1.00
     AMIX_MAG =   1.60;   BMIX_MAG =  1.00
     AMIN     =   0.10
     WC   =   100.;   INIMIX=   1;  MIXPRE=   1;  MAXMIX= -45

 Intra band minimization:
   WEIMIN = 0.0000     energy-eigenvalue tresh-hold
   EBREAK =  0.52E-08  absolut break condition
   DEPER  =   0.30     relativ break condition  

   TIME   =   0.40     timestep for ELM

  volume/ion in A,a.u.               =      11.08        74.78
  Fermi-wavevector in a.u.,A,eV,Ry     =   1.445993  2.732531 28.448379  2.090897
  Thomas-Fermi vector in A             =   2.564112
 
 Write flags
   LWAVE        =      F    write WAVECAR
   LDOWNSAMPLE  =      F    k-point downsampling of WAVECAR
   LCHARG       =      F    write CHGCAR
   LVTOT        =      F    write LOCPOT, total local potential
   LVHAR        =      F    write LOCPOT, Hartree potential only
   LELF         =      F    write electronic localiz. function (ELF)
   LORBIT       =     11    0 simple, 1 ext, 2 COOP (PROOUT), +10 PAW based schemes


 Dipole corrections
   LMONO  =      F    monopole corrections only (constant potential shift)
   LDIPOL =      F    correct potential (dipole corrections)
   IDIPOL =      0    1-x, 2-y, 3-z, 4-all directions 
   EPSILON=  1.0000000 bulk dielectric constant

 Exchange correlation treatment:
   GGA     =    --    GGA type
   LEXCH   =     8    internal setting for exchange type
   VOSKOWN=      0    Vosko Wilk Nusair interpolation
   LHFCALC =     F    Hartree Fock is set to
   LHFONE  =     F    Hartree Fock one center treatment
   AEXX    =    0.0000 exact exchange contribution

 Linear response parameters
   LEPSILON=     F    determine dielectric tensor
   LRPA    =     F    only Hartree local field effects (RPA)
   LNABLA  =     F    use nabla operator in PAW spheres
   LVEL    =     F    velocity operator in full k-point grid
   LINTERFAST=   F  fast interpolation
   KINTER  =     0    interpolate to denser k-point grid
   CSHIFT  =0.1000    complex shift for real part using Kramers Kronig
   OMEGAMAX=  -1.0    maximum frequency
   DEG_THRESHOLD= 0.2000000E-02 threshold for treating states as degnerate
   RTIME   =   -0.100 relaxation time in fs
  (WPLASMAI=    0.000 imaginary part of plasma frequency in eV, 0.658/RTIME)
   DFIELD  = 0.0000000 0.0000000 0.0000000 field for delta impulse in time
 
 Orbital magnetization related:
   ORBITALMAG=     F  switch on orbital magnetization
   LCHIMAG   =     F  perturbation theory with respect to B field
   DQ        =  0.001000  dq finite difference perturbation B field
   LLRAUG    =     F  two centre corrections for induced B field



--------------------------------------------------------------------------------------------------------


 Static calculation
 charge density and potential will be updated during run
 spin polarized calculation
 RMM-DIIS sequential band-by-band
 perform sub-space diagonalisation
    before iterative eigenvector-optimisation
 modified Broyden-mixing scheme, WC =      100.0
 initial mixing is a Kerker type mixing with AMIX =  0.4000 and BMIX =      1.0000
 Hartree-type preconditioning will be used
 using additional bands          144
 real space projection scheme for non local part
 use partial core corrections
 calculate Harris-corrections to forces 
   (improved forces if not selfconsistent)
 use gradient corrections 
 use of overlap-Matrix (Vanderbilt PP)
 Gauss-broadening in eV      SIGMA  =   0.05


--------------------------------------------------------------------------------------------------------


  energy-cutoff  :      400.00
  volume of cell :      975.20
      direct lattice vectors                 reciprocal lattice vectors
    10.019000053  0.000000000  0.000000000     0.099810360  0.057625538 -0.000000000
    -5.009500027  8.676708567  0.000000000     0.000000000  0.115251076  0.000000000
     0.000000000  0.000000000 11.218000412     0.000000000  0.000000000  0.089142446

  length of vectors
    10.019000053 10.019000053 11.218000412     0.115251076  0.115251076  0.089142446


 
 k-points in units of 2pi/SCALE and weight: read from INCAR                         
   0.00000000  0.00000000  0.00000000       0.125
   0.04990518  0.02881277 -0.00000000       0.125
   0.00000000  0.05762554  0.00000000       0.125
   0.04990518  0.08643831 -0.00000000       0.125
   0.00000000  0.00000000  0.04457122       0.125
   0.04990518  0.02881277  0.04457122       0.125
   0.00000000  0.05762554  0.04457122       0.125
   0.04990518  0.08643831  0.04457122       0.125
 
 k-points in reciprocal lattice and weights: read from INCAR                         
   0.00000000  0.00000000  0.00000000       0.125
   0.50000000 -0.00000000 -0.00000000       0.125
   0.00000000  0.50000000  0.00000000       0.125
   0.50000000  0.50000000 -0.00000000       0.125
   0.00000000  0.00000000  0.50000000       0.125
   0.50000000 -0.00000000  0.50000000       0.125
   0.00000000  0.50000000  0.50000000       0.125
   0.50000000  0.50000000  0.50000000       0.125
 
 position of ions in fractional coordinates (direct lattice) 
   0.00889556  0.82873031  0.24792475
   0.99918479  0.59184194  0.75462201
   0.30841835  0.10732476  0.76337936
   0.66234926  0.32286206  0.74787482
   0.62529793  0.94873138  0.25020145
   0.81099034  0.41858713  0.25118113
   0.51369450  0.62597173  0.74404169
   0.17152234  0.32366157  0.75631750
   0.32445634  0.43797351  0.24964699
   0.67618599  0.66324129  0.24998662
   0.47145336  0.14755793  0.25394722
   0.80274232  0.12687399  0.75018004
   0.92031014  0.87836863  0.74960151
   0.34407996  0.81424029  0.75241395
   0.98325132  0.15336757  0.25228471
   0.17351996  0.64505171  0.25273399
   0.65895369  0.46718176  0.99749184
   0.31548839  0.29307081  0.49805668
   0.16631036  0.47909642  0.99578353
   0.82544273  0.30568734  0.49558386
   0.15872957  0.97590808  0.99765086
   0.81135802  0.79813675  0.49467105
   0.65042344  0.97170026  0.99386297
   0.32282044  0.79049445  0.49728649
   0.98308556  0.13249511  0.99518067
   0.31957392  0.30277495  0.00429726
   0.98071984  0.13494403  0.50627828
   0.65909009  0.47198197  0.49256104
   0.49623737  0.14061109  0.00261569
   0.83514890  0.31295277  0.99711175
   0.48919535  0.13586949  0.50333302
   0.14487014  0.46241959  0.49767247
   0.49964878  0.63764271  0.00424159
   0.82855737  0.80537106  0.00192515
   0.48515331  0.62451562  0.49813869
   0.15801905  0.96723083  0.49543411
   0.99162618  0.63939568  0.00234893
   0.32701538  0.80799302  0.99908508
   0.98981093  0.64509946  0.49778390
   0.64990445  0.97331724  0.51389640
   0.15132221  0.29075080  0.08865519
   0.33553228  0.14895856  0.09205740
   0.48788990  0.47289130  0.09426279
   0.14118741  0.12028080  0.58855141
   0.31324732  0.46134084  0.59604294
   0.50568381  0.30287176  0.58963717
   0.15561599  0.15078183  0.90232658
   0.33906431  0.46909378  0.91138346
   0.47588934  0.28595175  0.90505434
   0.14071947  0.29546573  0.41090567
   0.33035611  0.12414171  0.40450346
   0.49800734  0.47488284  0.40275805
   0.66025466  0.29705389  0.10090034
   0.83562251  0.14912106  0.08519103
   0.97826479  0.46694780  0.09950080
   0.64817705  0.14110667  0.59799873
   0.82573574  0.48371222  0.59219021
   0.99933438  0.31211720  0.59653590
   0.66239687  0.15378066  0.91101797
   0.82977607  0.47159127  0.90133710
   0.98850718  0.29717605  0.90131036
   0.64878273  0.30247414  0.40830628
   0.82287792  0.13365684  0.41062666
   0.00976566  0.48671567  0.40535834
   0.66053740  0.79401422  0.09699500
   0.84623329  0.65699798  0.09520413
   0.96885277  0.96681823  0.09220182
   0.65132863  0.62280299  0.58622480
   0.81120343  0.98138481  0.60177748
   0.00093170  0.80336454  0.58882330
   0.66419541  0.64520088  0.90710462
   0.83113660  0.97371946  0.90376178
   0.97924267  0.79058435  0.90723833
   0.64649747  0.78925205  0.40365839
   0.82440120  0.62368811  0.40249419
   0.99851328  0.97724615  0.40422890
   0.15934561  0.79405802  0.09385095
   0.33778779  0.65367299  0.08534792
   0.47077866  0.97036220  0.10155107
   0.14409587  0.63140763  0.58446245
   0.31998558  0.98082354  0.59603938
   0.49448953  0.79146833  0.58862005
   0.16272182  0.66147318  0.90637365
   0.33667986  0.97854387  0.89962557
   0.48744884  0.79271304  0.89750398
   0.15072177  0.80922275  0.40348456
   0.32030238  0.61523675  0.40150738
   0.49915811  0.98096875  0.42178462
 
 position of ions in cartesian coordinates  (Angst):
  -4.06239989  7.19065140  2.78122000
   7.04600024  5.13524003  8.46535000
   2.55240008  0.93122570  8.56359000
   5.01869979  2.80138000  8.38966000
   1.51219005  8.23186573  2.80676000
   6.02839997  3.63195857  2.81775000
   2.01089976  5.43137430  8.34666000
   0.09709973  2.80831713  8.48437000
   1.05669973  3.80016853  2.80054000
   3.45220016  5.75475140  2.80435000
   3.98429984  1.28031713  2.84878000
   7.40710011  1.10084860  8.41552000
   4.82039968  7.62134860  8.40903000
  -0.63159960  7.06492570  8.44058000
   9.08290019  1.33072570  2.83013000
  -1.49289003  5.59692570  2.83517000
   4.26171000  4.05360000 11.18986391
   1.69274000  2.54289000  5.58720000
  -0.73377000  4.15698000 11.17070000
   6.73877000  2.65236000  5.55946000
  -3.29850000  8.46767000 11.19164781
   4.13073000  6.92520000  5.54922000
   1.64886000  8.43116000 11.14915521
  -0.72564400  6.85889000  5.57856000
   9.18580003  1.14962143 11.16393721
   1.68506000  2.62709000  0.04820670
   9.14983005  1.17087000  5.67943000
   4.23903000  4.09525000  5.52555000
   4.26741103  1.22004143  0.02934280
   6.79962000  2.71540000 11.18560000
   4.22061000  1.17890000  5.64639000
  -0.86503700  4.01228000  5.58289000
   1.81171000  5.53264000  0.04758220
   4.26681000  6.98797000  0.02159630
   1.73224000  5.41874000  5.58812000
  -3.26215000  8.39238000  5.55778000
   6.73205005  5.54785000  0.02635030
  -0.77127400  7.01072000 11.20773681
   6.68529005  5.59734000  5.58414000
   1.63556000  8.44519000  5.76489000
   0.05958110  2.52276000  0.99453400
   2.61549000  1.29247000  1.03270000
   2.51922000  4.10314000  1.05744000
   0.81201003  1.04364143  6.60237000
   0.82733800  4.00292000  6.68641000
   3.54921000  2.62793000  6.61455000
   0.80377500  1.30829000 10.12230000
   1.04716000  4.07019000 10.22390000
   3.33546000  2.48112000 10.15290000
  -0.07026720  2.56367000  4.60954000
   2.68795003  1.07714143  4.53772000
   2.61061000  4.12042000  4.51814000
   5.12700000  2.57745000  1.13190000
   7.62508000  1.29388000  0.95567300
   7.46206000  4.05157000  1.11620000
   5.78721203  1.22434143  6.70835000
   5.84989000  4.19703000  6.64319000
   8.44878005  2.70815000  6.69194000
   5.86619000  1.33431000 10.21980000
   5.95109000  4.09186000 10.11120000
   8.41515000  2.57851000 10.11090000
   4.98491000  2.62448000  4.58038000
   7.57486003  1.15970143  4.60641000
  -2.34036000  4.22309000  4.54731000
   2.64031000  6.88943000  1.08809000
   5.18718000  5.70058000  1.06800000
   4.86366000  8.38880000  1.03432000
   3.40573000  5.40388000  6.57627000
   3.21120000  8.51519000  6.75074000
  -4.01512000  6.97056000  6.60542000
   3.42244000  5.59822000 10.17590000
   3.44931000  8.44868000 10.13840000
   5.85060000  6.85967000 10.17740000
   2.52350000  6.84811000  4.52824000
   5.13531000  5.41156000  4.51518000
   5.10859005  8.47928000  4.53464000
  -2.38135000  6.88981000  1.05282000
   0.10972100  5.67173000  0.95743300
  -0.14429800  8.41955000  1.13920000
  -1.71934000  5.47854000  6.55650000
  -1.70750000  8.51032000  6.68637000
   0.98943000  6.86734000  6.60314000
  -1.68334000  5.73941000 10.16770000
  -1.52882000  8.49054000 10.09200000
   0.91265400  6.87814000 10.06820000
  -2.54372000  7.02139000  4.52629000
   0.12708100  5.33823000  4.50411000
   0.08690210  8.51158000  4.73158000
 


--------------------------------------------------------------------------------------------------------


 k-point  1 :   0.0000 0.0000 0.0000  plane waves:   17725
 k-point  2 :   0.5000-0.0000-0.0000  plane waves:   17736
 k-point  3 :   0.0000 0.5000 0.0000  plane waves:   17736
 k-point  4 :   0.5000 0.5000-0.0000  plane waves:   17736
 k-point  5 :   0.0000 0.0000 0.5000  plane waves:   17676
 k-point  6 :   0.5000-0.0000 0.5000  plane waves:   17700
 k-point  7 :   0.0000 0.5000 0.5000  plane waves:   17700
 k-point  8 :   0.5000 0.5000 0.5000  plane waves:   17700

 maximum and minimum number of plane-waves per node :     17736    17676

 maximum number of plane-waves:     17736
 maximum index in each direction: 
   IXMAX=   16   IYMAX=   16   IZMAX=   18
   IXMIN=  -16   IYMIN=  -16   IZMIN=  -18


 serial   3D FFT for wavefunctions
 parallel 3D FFT for charge:
    minimum data exchange during FFTs selected (reduces bandwidth)


 total amount of memory used by VASP MPI-rank0    94430. kBytes
=======================================================================

   base      :      30000. kBytes
   nonlr-proj:      13671. kBytes
   fftplans  :       1275. kBytes
   grid      :      22786. kBytes
   one-center:       2737. kBytes
   wavefun   :      23961. kBytes
 
     INWAV:  cpu time    0.0000: real time    0.0001
 Broyden mixing: mesh for mixing (old mesh)
   NGX = 33   NGY = 33   NGZ = 37
  (NGX  =100   NGY  =100   NGZ  =112)
  gives a total of  40293 points

 initial charge density was supplied:
 charge density of overlapping atoms calculated
 number of electron     672.0000000 magnetization      48.0000000
 keeping initial charge density in first step


--------------------------------------------------------------------------------------------------------


 Maximum index for non-local projection operator         1547
 Maximum index for augmentation-charges          551 (set IRDMAX)


--------------------------------------------------------------------------------------------------------


 First call to EWALD:  gamma=   0.179
 Maximum number of real-space cells 3x 3x 2
 Maximum number of reciprocal cells 3x 3x 3

    FEWALD:  cpu time    0.0026: real time    0.0026


--------------------------------------- Iteration      1(   1)  ---------------------------------------


    POTLOK:  cpu time    0.1956: real time    0.1969
    SETDIJ:  cpu time    4.6536: real time    4.6558
    EDDIAG:  cpu time    4.4032: real time    4.8101
  RMM-DIIS:  cpu time    9.0603: real time    9.1660
    ORTHCH:  cpu time    1.1579: real time    1.2416
       DOS:  cpu time    0.0019: real time    0.0021
    --------------------------------------------
      LOOP:  cpu time   19.4727: real time   20.0725

 eigenvalue-minimisations  :  7680
 total energy-change (2. order) : 0.1594323E+04  (-0.3496781E+05)
 number of electron     672.0000000 magnetization      48.0000000
 augmentation part      672.0000000 magnetization      48.0000000

 Free energy of the ion-electron system (eV)
  ---------------------------------------------------
  alpha Z        PSCENC =      2652.81237852
  Ewald energy   TEWEN  =    -42030.10680958
  -Hartree energ DENC   =    -25593.18047050
  -exchange      EXHF   =         0.00000000
  -V(xc)+E(xc)   XCENC  =      3605.38638760
  PAW double counting   =     55594.23204139   -59034.67079123
  entropy T*S    EENTRO =        -0.04060905
  eigenvalues    EBANDS =     -7462.30763434
  atomic energy  EATOM  =     73862.19814772
  Solvation  Ediel_sol  =         0.00000000
  ---------------------------------------------------
  free energy    TOTEN  =      1594.32264053 eV

  energy without entropy =     1594.36324957  energy(sigma->0) =     1594.34294505


--------------------------------------------------------------------------------------------------------




--------------------------------------- Iteration      1(   2)  ---------------------------------------


    EDDIAG:  cpu time    4.4204: real time    4.8227
  RMM-DIIS:  cpu time    9.1610: real time    9.1707
    ORTHCH:  cpu time    1.1555: real time    1.2387
       DOS:  cpu time    0.0019: real time    0.0019
    --------------------------------------------
      LOOP:  cpu time   14.7389: real time   15.2340

 eigenvalue-minimisations  :  7680
 total energy-change (2. order) :-0.2333292E+04  (-0.8038072E+04)
 number of electron     672.0000000 magnetization      48.0000000
 augmentation part      672.0000000 magnetization      48.0000000

 Free energy of the ion-electron system (eV)
  ---------------------------------------------------
  alpha Z        PSCENC =      2652.81237852
  Ewald energy   TEWEN  =    -42030.10680958
  -Hartree energ DENC   =    -25593.18047050
  -exchange      EXHF   =         0.00000000
  -V(xc)+E(xc)   XCENC  =      3605.38638760
  PAW double counting   =     55594.23204139   -59034.67079123
  entropy T*S    EENTRO =        -0.04845726
  eigenvalues    EBANDS =     -9795.59171410
  atomic energy  EATOM  =     73862.19814772
  Solvation  Ediel_sol  =         0.00000000
  ---------------------------------------------------
  free energy    TOTEN  =      -738.96928745 eV

  energy without entropy =     -738.92083019  energy(sigma->0) =     -738.94505882


--------------------------------------------------------------------------------------------------------




--------------------------------------- Iteration      1(   3)  ---------------------------------------


    EDDIAG:  cpu time    4.4111: real time    4.8228
  RMM-DIIS:  cpu time    9.1337: real time    9.1558
    ORTHCH:  cpu time    1.1784: real time    1.2612
       DOS:  cpu time    0.0022: real time    0.0022
    --------------------------------------------
      LOOP:  cpu time   14.7254: real time   15.2419

 eigenvalue-minimisations  :  7680
 total energy-change (2. order) : 0.8977242E+02  (-0.1419458E+04)
 number of electron     672.0000000 magnetization      48.0000000
 augmentation part      672.0000000 magnetization      48.0000000

 Free energy of the ion-electron system (eV)
  ---------------------------------------------------
  alpha Z        PSCENC =      2652.81237852
  Ewald energy   TEWEN  =    -42030.10680958
  -Hartree energ DENC   =    -25593.18047050
  -exchange      EXHF   =         0.00000000
  -V(xc)+E(xc)   XCENC  =      3605.38638760
  PAW double counting   =     55594.23204139   -59034.67079123
  entropy T*S    EENTRO =        -0.05479130
  eigenvalues    EBANDS =     -9705.81295762
  atomic energy  EATOM  =     73862.19814772
  Solvation  Ediel_sol  =         0.00000000
  ---------------------------------------------------
  free energy    TOTEN  =      -649.19686501 eV

  energy without entropy =     -649.14207370  energy(sigma->0) =     -649.16946935


--------------------------------------------------------------------------------------------------------




--------------------------------------- Iteration      1(   4)  ---------------------------------------


    EDDIAG:  cpu time    4.4132: real time    4.8187
  RMM-DIIS:  cpu time    9.1535: real time    9.1635
    ORTHCH:  cpu time    1.1654: real time    1.2450
       DOS:  cpu time    0.0014: real time    0.0014
    --------------------------------------------
      LOOP:  cpu time   14.7334: real time   15.2286

 eigenvalue-minimisations  :  7680
 total energy-change (2. order) :-0.4628344E+03  (-0.4277950E+03)
 number of electron     672.0000000 magnetization      48.0000000
 augmentation part      672.0000000 magnetization      48.0000000

 Free energy of the ion-electron system (eV)
  ---------------------------------------------------
  alpha Z        PSCENC =      2652.81237852
  Ewald energy   TEWEN  =    -42030.10680958
  -Hartree energ DENC   =    -25593.18047050
  -exchange      EXHF   =         0.00000000
  -V(xc)+E(xc)   XCENC  =      3605.38638760
  PAW double counting   =     55594.23204139   -59034.67079123
  entropy T*S    EENTRO =        -0.00000000
  eigenvalues    EBANDS =    -10168.70217273
  atomic energy  EATOM  =     73862.19814772
  Solvation  Ediel_sol  =         0.00000000
  ---------------------------------------------------
  free energy    TOTEN  =     -1112.03128882 eV

  energy without entropy =    -1112.03128882  energy(sigma->0) =    -1112.03128882


--------------------------------------------------------------------------------------------------------




--------------------------------------- Iteration      1(   5)  ---------------------------------------


    EDDIAG:  cpu time    4.4123: real time    4.8433
  RMM-DIIS:  cpu time    9.1552: real time    9.1698
    ORTHCH:  cpu time    1.1592: real time    1.2421
       DOS:  cpu time    0.0012: real time    0.0012
    --------------------------------------------
      LOOP:  cpu time   14.7280: real time   15.2564

 eigenvalue-minimisations  :  7680
 total energy-change (2. order) :-0.1038793E+03  (-0.1595483E+03)
 number of electron     672.0000000 magnetization      48.0000000
 augmentation part      672.0000000 magnetization      48.0000000

 Free energy of the ion-electron system (eV)
  ---------------------------------------------------
  alpha Z        PSCENC =      2652.81237852
  Ewald energy   TEWEN  =    -42030.10680958
  -Hartree energ DENC   =    -25593.18047050
  -exchange      EXHF   =         0.00000000
  -V(xc)+E(xc)   XCENC  =      3605.38638760
  PAW double counting   =     55594.23204139   -59034.67079123
  entropy T*S    EENTRO =        -0.00000000
  eigenvalues    EBANDS =    -10272.58151094
  atomic energy  EATOM  =     73862.19814772
  Solvation  Ediel_sol  =         0.00000000
  ---------------------------------------------------
  free energy    TOTEN  =     -1215.91062703 eV

  energy without entropy =    -1215.91062703  energy(sigma->0) =    -1215.91062703


--------------------------------------------------------------------------------------------------------




--------------------------------------- Iteration      1(   6)  ---------------------------------------


    EDDIAG:  cpu time    4.4166: real time    4.8272
  RMM-DIIS:  cpu time    9.1419: real time    9.1658
    ORTHCH:  cpu time    1.1547: real time    1.2384
       DOS:  cpu time    0.0015: real time    0.0015
    --------------------------------------------
      LOOP:  cpu time   14.7147: real time   15.2329

 eigenvalue-minimisations  :  7680
 total energy-change (2. order) :-0.9054136E+01  (-0.7936789E+02)
 number of electron     672.0000000 magnetization      48.0000000
 augmentation part      672.0000000 magnetization      48.0000000

 Free energy of the ion-electron system (eV)
  ---------------------------------------------------
  alpha Z        PSCENC =      2652.81237852
  Ewald energy   TEWEN  =    -42030.10680958
  -Hartree energ DENC   =    -25593.18047050
  -exchange      EXHF   =         0.00000000
  -V(xc)+E(xc)   XCENC  =      3605.38638760
  PAW double counting   =     55594.23204139   -59034.67079123
  entropy T*S    EENTRO =        -0.00000000
  eigenvalues    EBANDS =    -10281.63564647
  atomic energy  EATOM  =     73862.19814772
  Solvation  Ediel_sol  =         0.00000000
  ---------------------------------------------------
  free energy    TOTEN  =     -1224.96476256 eV

  energy without entropy =    -1224.96476256  energy(sigma->0) =    -1224.96476256


--------------------------------------------------------------------------------------------------------




--------------------------------------- Iteration      1(   7)  ---------------------------------------


    EDDIAG:  cpu time    4.4083: real time    4.8353
  RMM-DIIS:  cpu time    9.1572: real time    9.1874
    ORTHCH:  cpu time    1.1573: real time    1.2428
       DOS:  cpu time    0.0016: real time    0.0016
    --------------------------------------------
      LOOP:  cpu time   14.7243: real time   15.2672

 eigenvalue-minimisations  :  7680
 total energy-change (2. order) :-0.1828296E+01  (-0.4861590E+02)
 number of electron     672.0000000 magnetization      48.0000000
 augmentation part      672.0000000 magnetization      48.0000000

 Free energy of the ion-electron system (eV)
  ---------------------------------------------------
  alpha Z        PSCENC =      2652.81237852
  Ewald energy   TEWEN  =    -42030.10680958
  -Hartree energ DENC   =    -25593.18047050
  -exchange      EXHF   =         0.00000000
  -V(xc)+E(xc)   XCENC  =      3605.38638760
  PAW double counting   =     55594.23204139   -59034.67079123
  entropy T*S    EENTRO =        -0.00000000
  eigenvalues    EBANDS =    -10283.46394227
  atomic energy  EATOM  =     73862.19814772
  Solvation  Ediel_sol  =         0.00000000
  ---------------------------------------------------
  free energy    TOTEN  =     -1226.79305836 eV

  energy without entropy =    -1226.79305836  energy(sigma->0) =    -1226.79305836


--------------------------------------------------------------------------------------------------------




--------------------------------------- Iteration      1(   8)  ---------------------------------------


    EDDIAG:  cpu time    4.4596: real time    4.8580
  RMM-DIIS:  cpu time    9.1635: real time    9.1791
    ORTHCH:  cpu time    1.1573: real time    1.2392
       DOS:  cpu time    0.0015: real time    0.0015
    --------------------------------------------
      LOOP:  cpu time   14.7819: real time   15.2778

 eigenvalue-minimisations  :  7680
 total energy-change (2. order) : 0.5030496E+01  (-0.3027984E+02)
 number of electron     672.0000000 magnetization      48.0000000
 augmentation part      672.0000000 magnetization      48.0000000

 Free energy of the ion-electron system (eV)
  ---------------------------------------------------
  alpha Z        PSCENC =      2652.81237852
  Ewald energy   TEWEN  =    -42030.10680958
  -Hartree energ DENC   =    -25593.18047050
  -exchange      EXHF   =         0.00000000
  -V(xc)+E(xc)   XCENC  =      3605.38638760
  PAW double counting   =     55594.23204139   -59034.67079123
  entropy T*S    EENTRO =        -0.00000000
  eigenvalues    EBANDS =    -10278.43344582
  atomic energy  EATOM  =     73862.19814772
  Solvation  Ediel_sol  =         0.00000000
  ---------------------------------------------------
  free energy    TOTEN  =     -1221.76256191 eV

  energy without entropy =    -1221.76256191  energy(sigma->0) =    -1221.76256191


--------------------------------------------------------------------------------------------------------




--------------------------------------- Iteration      1(   9)  ---------------------------------------


    EDDIAG:  cpu time    4.4342: real time    4.8599
  RMM-DIIS:  cpu time   19.5087: real time   19.5366
    ORTHCH:  cpu time    1.2375: real time    1.3230
       DOS:  cpu time    0.0013: real time    0.0013
    --------------------------------------------
      LOOP:  cpu time   25.1817: real time   25.7208

 eigenvalue-minimisations  : 21812
 total energy-change (2. order) : 0.9400025E+01  (-0.1341677E+02)
 number of electron     672.0000000 magnetization      48.0000000
 augmentation part      672.0000000 magnetization      48.0000000

 Free energy of the ion-electron system (eV)
  ---------------------------------------------------
  alpha Z        PSCENC =      2652.81237852
  Ewald energy   TEWEN  =    -42030.10680958
  -Hartree energ DENC   =    -25593.18047050
  -exchange      EXHF   =         0.00000000
  -V(xc)+E(xc)   XCENC  =      3605.38638760
  PAW double counting   =     55594.23204139   -59034.67079123
  entropy T*S    EENTRO =        -0.00000000
  eigenvalues    EBANDS =    -10269.03342090
  atomic energy  EATOM  =     73862.19814772
  Solvation  Ediel_sol  =         0.00000000
  ---------------------------------------------------
  free energy    TOTEN  =     -1212.36253699 eV

  energy without entropy =    -1212.36253699  energy(sigma->0) =    -1212.36253699


--------------------------------------------------------------------------------------------------------




--------------------------------------- Iteration      1(  10)  ---------------------------------------


    EDDIAG:  cpu time    4.4053: real time    4.8184
  RMM-DIIS:  cpu time   17.8403: real time   17.8788
    ORTHCH:  cpu time    1.1568: real time    1.2413
       DOS:  cpu time    0.0019: real time    0.0019
    --------------------------------------------
      LOOP:  cpu time   23.4043: real time   23.9405

 eigenvalue-minimisations  : 19634
 total energy-change (2. order) :-0.1938233E+01  (-0.5354556E+00)
 number of electron     672.0000000 magnetization      48.0000000
 augmentation part      672.0000000 magnetization      48.0000000

 Free energy of the ion-electron system (eV)
  ---------------------------------------------------
  alpha Z        PSCENC =      2652.81237852
  Ewald energy   TEWEN  =    -42030.10680958
  -Hartree energ DENC   =    -25593.18047050
  -exchange      EXHF   =         0.00000000
  -V(xc)+E(xc)   XCENC  =      3605.38638760
  PAW double counting   =     55594.23204139   -59034.67079123
  entropy T*S    EENTRO =        -0.00000001
  eigenvalues    EBANDS =    -10270.97165410
  atomic energy  EATOM  =     73862.19814772
  Solvation  Ediel_sol  =         0.00000000
  ---------------------------------------------------
  free energy    TOTEN  =     -1214.30077019 eV

  energy without entropy =    -1214.30077019  energy(sigma->0) =    -1214.30077019


--------------------------------------------------------------------------------------------------------




--------------------------------------- Iteration      1(  11)  ---------------------------------------


    EDDIAG:  cpu time    4.4101: real time    4.8258
  RMM-DIIS:  cpu time   20.0800: real time   20.1209
    ORTHCH:  cpu time    1.2284: real time    1.3099
       DOS:  cpu time    0.0014: real time    0.0014
    --------------------------------------------
      LOOP:  cpu time   25.7199: real time   26.2579

 eigenvalue-minimisations  : 22600
 total energy-change (2. order) : 0.7123990E-01  (-0.4376831E-01)
 number of electron     672.0000000 magnetization      48.0000000
 augmentation part      672.0000000 magnetization      48.0000000

 Free energy of the ion-electron system (eV)
  ---------------------------------------------------
  alpha Z        PSCENC =      2652.81237852
  Ewald energy   TEWEN  =    -42030.10680958
  -Hartree energ DENC   =    -25593.18047050
  -exchange      EXHF   =         0.00000000
  -V(xc)+E(xc)   XCENC  =      3605.38638760
  PAW double counting   =     55594.23204139   -59034.67079123
  entropy T*S    EENTRO =        -0.00000001
  eigenvalues    EBANDS =    -10270.90041420
  atomic energy  EATOM  =     73862.19814772
  Solvation  Ediel_sol  =         0.00000000
  ---------------------------------------------------
  free energy    TOTEN  =     -1214.22953029 eV

  energy without entropy =    -1214.22953029  energy(sigma->0) =    -1214.22953029


--------------------------------------------------------------------------------------------------------




--------------------------------------- Iteration      1(  12)  ---------------------------------------


    EDDIAG:  cpu time    4.4039: real time    4.8181
  RMM-DIIS:  cpu time   21.7661: real time   21.8468
    ORTHCH:  cpu time    1.1558: real time    1.2410
       DOS:  cpu time    0.0013: real time    0.0013
    CHARGE:  cpu time    1.7868: real time    1.7920
    MIXING:  cpu time    0.0024: real time    0.0024
    --------------------------------------------
      LOOP:  cpu time   29.1162: real time   29.7016

 eigenvalue-minimisations  : 24334
 total energy-change (2. order) :-0.8394967E-03  (-0.4306251E-02)
 number of electron     672.0000236 magnetization      48.0000037
 augmentation part      238.9973546 magnetization      29.0339090

 Broyden mixing:
  rms(total) = 0.12470E+02    rms(broyden)= 0.12461E+02
  rms(prec ) = 0.14342E+02
  weight for this iteration     100.00

 Free energy of the ion-electron system (eV)
  ---------------------------------------------------
  alpha Z        PSCENC =      2652.81237852
  Ewald energy   TEWEN  =    -42030.10680958
  -Hartree energ DENC   =    -25593.18047050
  -exchange      EXHF   =         0.00000000
  -V(xc)+E(xc)   XCENC  =      3605.38638760
  PAW double counting   =     55594.23204139   -59034.67079123
  entropy T*S    EENTRO =        -0.00000001
  eigenvalues    EBANDS =    -10270.90125370
  atomic energy  EATOM  =     73862.19814772
  Solvation  Ediel_sol  =         0.00000000
  ---------------------------------------------------
  free energy    TOTEN  =     -1214.23036979 eV

  energy without entropy =    -1214.23036978  energy(sigma->0) =    -1214.23036979


--------------------------------------------------------------------------------------------------------




--------------------------------------- Iteration      1(  13)  ---------------------------------------


    POTLOK:  cpu time    0.1733: real time    0.1745
    SETDIJ:  cpu time    5.0647: real time    5.0695
    EDDIAG:  cpu time    4.4968: real time    4.9202
  RMM-DIIS:  cpu time   17.2224: real time   17.2624
    ORTHCH:  cpu time    1.1568: real time    1.2367
       DOS:  cpu time    0.0021: real time    0.0022
    CHARGE:  cpu time    1.7902: real time    1.7913
    MIXING:  cpu time    0.0011: real time    0.0012
    --------------------------------------------
      LOOP:  cpu time   29.9074: real time   30.4580

 eigenvalue-minimisations  : 18762
 total energy-change (2. order) : 0.2271434E+03  (-0.1224981E+03)
 number of electron     672.0000112 magnetization      48.0000050
 augmentation part      269.3190203 magnetization      26.2143409

 Broyden mixing:
  rms(total) = 0.14072E+02    rms(broyden)= 0.14069E+02
  rms(prec ) = 0.15879E+02
  weight for this iteration     100.00

 eigenvalues of (default mixing * dielectric matrix)
  average eigenvalue GAMMA=   0.3153
  0.3153

 Free energy of the ion-electron system (eV)
  ---------------------------------------------------
  alpha Z        PSCENC =      2652.81237852
  Ewald energy   TEWEN  =    -42030.10680958
  -Hartree energ DENC   =    -24914.66462361
  -exchange      EXHF   =         0.00000000
  -V(xc)+E(xc)   XCENC  =      3695.42770207
  PAW double counting   =     59820.24355371   -63245.08408998
  entropy T*S    EENTRO =        -0.08523992
  eigenvalues    EBANDS =    -10827.82793907
  atomic energy  EATOM  =     73862.19814772
  Solvation  Ediel_sol  =         0.00000000
  ---------------------------------------------------
  free energy    TOTEN  =      -987.08692014 eV

  energy without entropy =     -987.00168021  energy(sigma->0) =     -987.04430018


--------------------------------------------------------------------------------------------------------




--------------------------------------- Iteration      1(  14)  ---------------------------------------


    POTLOK:  cpu time    0.1747: real time    0.1748
    SETDIJ:  cpu time    4.9625: real time    4.9638
    EDDIAG:  cpu time    4.4989: real time    4.9172
  RMM-DIIS:  cpu time   17.7003: real time   17.8667
    ORTHCH:  cpu time    1.1578: real time    1.2372
       DOS:  cpu time    0.0012: real time    0.0012
    CHARGE:  cpu time    1.7966: real time    1.7974
    MIXING:  cpu time    0.0009: real time    0.0009
    --------------------------------------------
      LOOP:  cpu time   30.2929: real time   30.9592

 eigenvalue-minimisations  : 19339
 total energy-change (2. order) : 0.7120844E+02  (-0.1794492E+02)
 number of electron     672.0000180 magnetization      48.0000080
 augmentation part      246.4764838 magnetization      32.1408751

 Broyden mixing:
  rms(total) = 0.52417E+01    rms(broyden)= 0.52371E+01
  rms(prec ) = 0.56896E+01
  weight for this iteration     100.00

 eigenvalues of (default mixing * dielectric matrix)
  average eigenvalue GAMMA=   0.7255
  1.0956  0.3555

 Free energy of the ion-electron system (eV)
  ---------------------------------------------------
  alpha Z        PSCENC =      2652.81237852
  Ewald energy   TEWEN  =    -42030.10680958
  -Hartree energ DENC   =    -25527.42623488
  -exchange      EXHF   =         0.00000000
  -V(xc)+E(xc)   XCENC  =      3672.11987233
  PAW double counting   =     63178.40006108   -66660.18533957
  entropy T*S    EENTRO =        -0.00000000
  eigenvalues    EBANDS =    -10063.69055301
  atomic energy  EATOM  =     73862.19814772
  Solvation  Ediel_sol  =         0.00000000
  ---------------------------------------------------
  free energy    TOTEN  =      -915.87847739 eV

  energy without entropy =     -915.87847739  energy(sigma->0) =     -915.87847739


--------------------------------------------------------------------------------------------------------




--------------------------------------- Iteration      1(  15)  ---------------------------------------


    POTLOK:  cpu time    0.1688: real time    0.1689
    SETDIJ:  cpu time    5.0033: real time    5.0046
    EDDIAG:  cpu time    4.4395: real time    4.8556
  RMM-DIIS:  cpu time   18.1043: real time   18.1569
    ORTHCH:  cpu time    1.1792: real time    1.2629
       DOS:  cpu time    0.0023: real time    0.0023
    CHARGE:  cpu time    1.7989: real time    1.8033
    MIXING:  cpu time    0.0009: real time    0.0009
    --------------------------------------------
      LOOP:  cpu time   30.6971: real time   31.2553

 eigenvalue-minimisations  : 20246
 total energy-change (2. order) : 0.1464795E+02  (-0.2125108E+01)
 number of electron     672.0000164 magnetization      48.0000098
 augmentation part      249.6782789 magnetization      33.8344358

 Broyden mixing:
  rms(total) = 0.21987E+01    rms(broyden)= 0.21983E+01
  rms(prec ) = 0.22797E+01
  weight for this iteration     100.00

 eigenvalues of (default mixing * dielectric matrix)
  average eigenvalue GAMMA=   0.9257
  1.6556  0.3794  0.7421

 Free energy of the ion-electron system (eV)
  ---------------------------------------------------
  alpha Z        PSCENC =      2652.81237852
  Ewald energy   TEWEN  =    -42030.10680958
  -Hartree energ DENC   =    -25441.81266092
  -exchange      EXHF   =         0.00000000
  -V(xc)+E(xc)   XCENC  =      3705.63612025
  PAW double counting   =     67201.77521309   -70723.59949533
  entropy T*S    EENTRO =        -0.00000000
  eigenvalues    EBANDS =    -10128.13341917
  atomic energy  EATOM  =     73862.19814772
  Solvation  Ediel_sol  =         0.00000000
  ---------------------------------------------------
  free energy    TOTEN  =      -901.23052542 eV

  energy without entropy =     -901.23052542  energy(sigma->0) =     -901.23052542


--------------------------------------------------------------------------------------------------------




--------------------------------------- Iteration      1(  16)  ---------------------------------------


    POTLOK:  cpu time    0.1687: real time    0.1696
    SETDIJ:  cpu time    5.5708: real time    5.5766
    EDDIAG:  cpu time    4.4342: real time    4.8587
  RMM-DIIS:  cpu time   17.5854: real time   17.6235
    ORTHCH:  cpu time    1.2125: real time    1.2969
       DOS:  cpu time    0.0011: real time    0.0011
    CHARGE:  cpu time    1.7881: real time    1.7934
    MIXING:  cpu time    0.0011: real time    0.0011
    --------------------------------------------
      LOOP:  cpu time   30.7620: real time   31.3209

 eigenvalue-minimisations  : 19152
 total energy-change (2. order) :-0.1538054E+01  (-0.6489876E+00)
 number of electron     672.0000159 magnetization      48.0000103
 augmentation part      251.1204568 magnetization      33.9415249

 Broyden mixing:
  rms(total) = 0.14894E+01    rms(broyden)= 0.14889E+01
  rms(prec ) = 0.15756E+01
  weight for this iteration     100.00

 eigenvalues of (default mixing * dielectric matrix)
  average eigenvalue GAMMA=   0.9674
  2.0695  0.9000  0.3854  0.5146

 Free energy of the ion-electron system (eV)
  ---------------------------------------------------
  alpha Z        PSCENC =      2652.81237852
  Ewald energy   TEWEN  =    -42030.10680958
  -Hartree energ DENC   =    -25391.37337730
  -exchange      EXHF   =         0.00000000
  -V(xc)+E(xc)   XCENC  =      3706.47525679
  PAW double counting   =     70025.68365310   -73576.34756593
  entropy T*S    EENTRO =        -0.00000000
  eigenvalues    EBANDS =    -10152.11026292
  atomic energy  EATOM  =     73862.19814772
  Solvation  Ediel_sol  =         0.00000000
  ---------------------------------------------------
  free energy    TOTEN  =      -902.76857960 eV

  energy without entropy =     -902.76857960  energy(sigma->0) =     -902.76857960


--------------------------------------------------------------------------------------------------------




--------------------------------------- Iteration      1(  17)  ---------------------------------------


    POTLOK:  cpu time    0.1720: real time    0.1734
    SETDIJ:  cpu time    5.0605: real time    5.0667
    EDDIAG:  cpu time    4.4549: real time    4.8711
  RMM-DIIS:  cpu time   18.5647: real time   18.6291
    ORTHCH:  cpu time    1.1790: real time    1.2641
       DOS:  cpu time    0.0070: real time    0.0071
    CHARGE:  cpu time    1.7961: real time    1.7995
    MIXING:  cpu time    0.0086: real time    0.0086
    --------------------------------------------
      LOOP:  cpu time   31.2429: real time   31.8195

 eigenvalue-minimisations  : 20394
 total energy-change (2. order) : 0.1131347E+00  (-0.7409173E-01)
 number of electron     672.0000157 magnetization      48.0000105
 augmentation part      251.1134436 magnetization      33.9444560

 Broyden mixing:
  rms(total) = 0.79531E+00    rms(broyden)= 0.79515E+00
  rms(prec ) = 0.89995E+00
  weight for this iteration     100.00

 eigenvalues of (default mixing * dielectric matrix)
  average eigenvalue GAMMA=   0.9910
  2.2217  1.1171  0.3757  0.6895  0.5513

 Free energy of the ion-electron system (eV)
  ---------------------------------------------------
  alpha Z        PSCENC =      2652.81237852
  Ewald energy   TEWEN  =    -42030.10680958
  -Hartree energ DENC   =    -25381.27950692
  -exchange      EXHF   =         0.00000000
  -V(xc)+E(xc)   XCENC  =      3703.97171777
  PAW double counting   =     70967.90065827   -74527.83559676
  entropy T*S    EENTRO =        -0.00000000
  eigenvalues    EBANDS =    -10150.31643390
  atomic energy  EATOM  =     73862.19814772
  Solvation  Ediel_sol  =         0.00000000
  ---------------------------------------------------
  free energy    TOTEN  =      -902.65544488 eV

  energy without entropy =     -902.65544488  energy(sigma->0) =     -902.65544488


--------------------------------------------------------------------------------------------------------




--------------------------------------- Iteration      1(  18)  ---------------------------------------


    POTLOK:  cpu time    0.1816: real time    0.1824
    SETDIJ:  cpu time    5.0780: real time    5.0806
    EDDIAG:  cpu time    4.4062: real time    4.8212
  RMM-DIIS:  cpu time   17.6844: real time   17.7694
    ORTHCH:  cpu time    1.1576: real time    1.2442
       DOS:  cpu time    0.0011: real time    0.0011
    CHARGE:  cpu time    1.7991: real time    1.8001
    MIXING:  cpu time    0.0011: real time    0.0011
    --------------------------------------------
      LOOP:  cpu time   30.3090: real time   30.9000

 eigenvalue-minimisations  : 19134
 total energy-change (2. order) : 0.4327248E+00  (-0.7028642E-01)
 number of electron     672.0000161 magnetization      48.0000106
 augmentation part      250.5932361 magnetization      33.9076309

 Broyden mixing:
  rms(total) = 0.29685E+00    rms(broyden)= 0.29658E+00
  rms(prec ) = 0.31336E+00
  weight for this iteration     100.00

 eigenvalues of (default mixing * dielectric matrix)
  average eigenvalue GAMMA=   1.0150
  2.4509  1.3589  0.8512  0.5888  0.3772  0.4629

 Free energy of the ion-electron system (eV)
[...]
   4      -0.897    -0.653     1.550     0.069     0.465    -0.178
   5      -0.649    -0.678     1.327    -0.076     0.045     0.124
   6      -0.816    -0.627     1.444     0.059    -0.474     0.193
   7      -0.958    -0.952     1.911    -0.035     0.046     0.017
   8      -0.774    -0.700     1.474     0.121     0.456    -0.265
   9      -0.807    -0.701     1.508     0.100    -0.398     0.288
  10      -0.655    -0.976     1.631     0.085     0.075    -0.620
  11      -0.998    -0.926     1.924     0.024     0.039    -0.039
  12      -0.680    -0.960     1.640     0.009     0.030     0.591
  13      -0.795    -0.574     1.369    -0.178    -0.331    -0.162
  14      -0.742    -0.696     1.438    -0.006    -0.163    -0.069
  15      -0.960    -0.897     1.856    -0.025     0.069     0.072
  16      -0.675    -0.872     1.548    -0.007    -0.073    -0.504
  17       1.477     1.366    -2.844    -0.082    -0.089    -0.025
  18       1.504     1.422    -2.926     0.042    -0.063    -0.054
  19       1.365     1.560    -2.925     0.034     0.035     0.052
  20       1.515     1.393    -2.908    -0.040     0.013    -0.118
  21       1.374     1.482    -2.856     0.123     0.041     0.025
  22       1.450     1.443    -2.893     0.123    -0.130     0.048
  23       1.420     1.425    -2.845     0.027    -0.017    -0.039
  24       1.539     1.463    -3.002     0.255     0.112    -0.034
  25       0.666    -0.637    -0.029    -0.520     0.778    -0.304
  26      -1.315     0.287     1.028     0.386    -0.701     0.642
  27      -1.940     1.087     0.853    -0.129     0.291     0.962
  28       0.370    -0.841     0.471     0.170    -0.075    -0.875
  29      -0.537     1.682    -1.145    -0.049    -0.934     0.364
  30       0.647    -0.003    -0.644     0.344    -0.147    -0.764
  31       0.790    -1.260     0.470    -0.545    -1.254    -1.380
  32      -0.231     0.378    -0.147     2.398    -0.385     2.570
  33      -0.455    -0.532     0.987    -0.265    -0.556     0.022
  34       0.937     0.244    -1.182     1.037     0.071    -1.809
  35      -0.957    -0.074     1.031     0.012     0.290    -1.036
  36      -0.414     0.675    -0.261    -0.041     0.658    -0.661
  37      -0.195     1.475    -1.280    -0.416    -0.373     0.368
  38       0.753     0.333    -1.086     0.602    -0.826    -0.972
  39      -0.372     0.168     0.205     0.202    -0.336    -0.786
  40      -0.676    -2.634     3.310     0.189    -2.346     0.322
  41      -4.941     3.091     1.850    -4.259     3.026    -3.280
  42      -4.794     3.603     1.191     5.532     2.789     4.698
  43       4.203    -6.959     2.755    -0.006    -5.541     1.651
  44      -5.319     3.427     1.892     4.260    -2.378    -3.955
  45      -2.120     1.295     0.825    -4.616    -0.770     4.521
  46       6.733    -6.246    -0.487     0.034     3.868    -0.253
  47      -1.452     2.088    -0.636    -5.017     1.042    -4.098
  48       5.164    -5.580     0.416    -1.591    -4.382     1.006
  49      -2.720     4.180    -1.460     5.914     0.864     4.087
  50       3.405    -5.040     1.635     0.947     5.049     0.945
  51      -3.000     2.484     0.517    -5.044    -3.380     3.764
  52      -4.256     3.280     0.977     4.582    -1.006    -5.268
  53      -1.939     1.971    -0.032    -4.990     2.450    -4.298
  54      -1.615    -0.111     1.726     5.518     3.877     3.244
  55       7.122    -6.075    -1.048     1.149    -3.776    -1.663
  56      -1.532    -2.708     4.240     5.831    -2.637    -6.575
  57      -1.585     0.966     0.620    -4.665    -3.066     4.268
  58       6.214    -6.482     0.268     1.181     4.147     0.838
  59      -3.131     1.313     1.818    -5.096     2.432    -2.891
  60       4.184    -4.424     0.241     1.677    -5.058     0.056
  61      -2.670     1.091     1.580     4.771     3.596     3.554
  62       4.030    -5.422     1.392     0.723     4.450     0.316
  63      -3.301     5.552    -2.250    -3.616    -2.423     3.514
  64      -3.268     3.596    -0.328     5.381    -4.001    -2.030
  65      -2.371     1.297     1.075    -5.497     2.056    -4.932
  66      -2.563     2.564    -0.001     6.136     2.270     3.539
  67       6.290    -6.266    -0.024     0.731    -4.670    -0.972
  68      -4.654     3.426     1.228     3.759    -2.255    -4.988
  69      -4.791     2.820     1.971    -5.385    -2.163     4.961
  70       6.022    -6.642     0.619     0.301     4.850    -1.469
  71      -2.976     3.643    -0.667    -5.273     3.770    -3.122
  72       5.226    -5.744     0.518    -0.679    -4.504    -1.587
  73      -2.735     3.457    -0.723     5.264     1.980     3.834
  74       3.034    -3.533     0.499    -1.064     5.021     0.746
  75      -1.579     1.710    -0.131    -5.731    -2.045     2.043
  76      -3.885     3.819     0.066     4.401    -1.175    -5.144
  77      -3.068     2.581     0.487    -6.080     2.010    -5.584
  78      -3.881     0.837     3.045     5.171     0.949     4.728
  79       7.871    -7.332    -0.539    -0.194    -3.200    -0.662
  80      -2.201     0.433     1.768     4.948    -2.963    -3.818
  81      -1.766     2.095    -0.329    -5.445    -2.674     3.189
  82       4.299    -7.951     3.653    -0.724     3.253    -0.216
  83      -2.858     3.128    -0.269    -5.718     1.678    -2.744
  84       5.304    -4.773    -0.531    -1.019    -4.692     0.235
  85      -2.809     4.094    -1.285     4.037     2.674     3.711
  86       4.774    -5.514     0.741    -0.863     4.713    -0.352
  87      -3.805     2.897     0.908    -4.019    -2.928     2.934
  88      -3.769     2.735     1.034     4.630    -4.131    -2.670
 ---------------------------------------------------------------------


 Total hyperfine coupling parameters after diagonalization (MHz)
 (convention: |A_zz| > |A_xx| > |A_yy|)
 ----------------------------------------------------------------------
  ion      A_xx      A_yy      A_zz     asymmetry (A_yy - A_xx)/ A_zz 
 ----------------------------------------------------------------------
   1       2.692     2.371     5.167      -0.062
   2       0.529     0.333     3.253      -0.060
   3       2.401     2.002     4.726      -0.084
   4       2.420     2.044     4.702      -0.080
   5       1.383     1.221     3.305      -0.049
   6       1.852     1.522     4.017      -0.082
   7      -0.462    -0.391     2.441       0.029
   8       2.100     1.736     4.300      -0.085
   9       2.073     1.749     4.319      -0.075
  10       2.683     2.182     5.091      -0.098
  11      -0.058     0.030     2.874       0.031
  12       2.313     1.905     4.762      -0.086
  13       1.427     0.951     3.331      -0.143
  14       0.357     0.298     2.506      -0.024
  15       0.435     0.353     3.184      -0.026
  16       2.623     2.323     4.949      -0.060
  17      12.662     8.493    12.861      -0.324
  18      14.022     9.690    14.142      -0.306
  19      14.641    10.356    14.849      -0.289
  20      13.913     9.618    14.056      -0.306
  21      13.602     9.452    13.871      -0.299
  22      13.979     9.754    14.222      -0.297
  23      12.899     8.658    12.953      -0.327
  24      15.391    11.141    15.906      -0.267
  25      96.148    95.859    98.032      -0.003
  26      96.048    94.181    97.316      -0.019
  27      99.533    97.496   101.427      -0.020
  28      96.765    95.135    97.367      -0.017
  29      93.416    91.471    95.057      -0.020
  30      95.997    94.639    96.746      -0.014
  31      96.800    93.967    98.376      -0.029
  32      94.595    90.759    97.853      -0.039
  33      95.719    95.221    97.245      -0.005
  34      98.411    95.435   100.073      -0.030
  35      94.711    94.285    97.010      -0.004
  36      97.199    96.092    98.300      -0.011
  37      97.974    96.784    99.840      -0.012
  38      94.262    92.633    96.047      -0.017
  39      97.340    97.124    98.842      -0.002
  40      98.469    97.397   104.535      -0.010
  41       6.631     0.408    15.402      -0.404
  42       5.510     0.179    17.546      -0.304
  43       5.195    -0.313    16.154      -0.341
  44       5.157    -0.705    14.796      -0.396
  45       4.471    -0.348    13.012      -0.370
  46       5.178     1.070    15.746      -0.261
  47       4.423     0.727    13.941      -0.265
  48       5.207     1.560    15.435      -0.236
  49       3.652    -0.329    15.296      -0.260
  50       2.929     0.347    13.314      -0.194
  51       5.781     1.932    16.708      -0.230
  52       5.387     0.792    16.439      -0.279
  53       1.393    -1.098    12.596      -0.198
  54       5.197     0.569    15.546      -0.298
  55       8.849     4.489    19.855      -0.220
  56       5.754    -1.504    18.079      -0.401
  57       3.260     1.129    14.462      -0.147
  58       7.938     3.162    18.271      -0.261
  59       6.415     0.669    14.415      -0.399
  60       6.471     4.077    16.962      -0.141
  61       4.475     0.416    14.646      -0.277
  62       3.831     0.276    13.151      -0.270
  63       5.615     3.423    17.186      -0.128
  64       7.204     0.856    16.382      -0.388
  65       5.413     1.007    16.416      -0.268
  66       5.675     1.060    16.396      -0.282
  67       7.428     3.451    18.715      -0.213
  68       5.922     2.462    17.446      -0.198
  69       8.926     3.222    20.309      -0.281
  70       7.454     2.198    18.158      -0.289
  71       7.159     2.719    18.143      -0.245
  72       6.631     1.712    16.110      -0.305
  73       5.215     2.191    16.434      -0.184
  74      -3.242    -0.755     8.440       0.295
  75       8.175     3.472    16.555      -0.284
  76      -1.816     1.629    13.220       0.261
  77       3.100    -1.425    15.859      -0.285
  78       6.508    -0.384    15.387      -0.448
  79       8.434     2.556    18.921      -0.311
  80       3.690    -0.329    13.665      -0.294
  81       4.192     0.912    14.563      -0.225
  82       8.251    -0.462    14.808      -0.588
  83       5.515     0.737    14.917      -0.320
  84       2.506     0.699    13.588      -0.133
  85       1.288    -0.725    12.450      -0.162
  86       6.283     3.054    16.586      -0.195
  87       4.839    -0.010    13.273      -0.365
  88       9.564     3.373    18.396      -0.337
 ---------------------------------------------------------------------



--------------------------------------------------------------------------------------------------------


 stress matrix after NEB project (eV)
    -45.42343     -0.93740      5.64821
     -0.93663    -50.50958      2.13284
      5.62126      2.14690    -64.91552
  FORCES: max atom, RMS     2.479302    1.112362
  FORCE total and by dimension   10.434879    2.083467
  Stress total and by dimension   94.355422   64.915521
     LOOP+:  cpu time  795.8489: real time  812.6837
    4ORBIT:  cpu time    0.0000: real time    0.0000
 


 total charge     
 
# of ion       s       p       d       tot
------------------------------------------
    1        0.051   5.992   0.000   6.043
    2        0.054   5.999   0.000   6.053
    3        0.056   6.000   0.000   6.056
    4        0.049   5.991   0.000   6.041
    5        0.044   5.985   0.000   6.029
    6        0.054   5.997   0.000   6.051
    7        0.049   5.992   0.000   6.041
    8        0.051   5.993   0.000   6.045
    9        0.047   5.989   0.000   6.036
   10        0.055   5.997   0.000   6.052
   11        0.054   6.000   0.000   6.054
   12        0.051   5.994   0.000   6.045
   13        0.049   5.993   0.000   6.042
   14        0.049   5.992   0.000   6.042
   15        0.049   5.992   0.000   6.041
   16        0.048   5.990   0.000   6.038
   17        0.147   6.125   0.081   6.353
   18        0.148   6.127   0.084   6.359
   19        0.145   6.122   0.079   6.347
   20        0.154   6.136   0.090   6.380
   21        0.143   6.118   0.076   6.338
   22        0.153   6.133   0.088   6.373
   23        0.147   6.123   0.079   6.349
   24        0.151   6.130   0.086   6.367
   25        0.382   6.470   4.847  11.699
   26        0.371   6.445   4.817  11.634
   27        0.362   6.428   4.804  11.593
   28        0.379   6.466   4.833  11.679
   29        0.371   6.444   4.817  11.631
   30        0.367   6.438   4.812  11.617
   31        0.392   6.494   4.868  11.754
   32        0.382   6.465   4.844  11.691
   33        0.370   6.440   4.814  11.624
   34        0.379   6.465   4.846  11.690
   35        0.368   6.438   4.809  11.614
   36        0.376   6.458   4.824  11.659
   37        0.371   6.444   4.827  11.642
   38        0.371   6.443   4.819  11.632
   39        0.383   6.469   4.852  11.703
   40        0.364   6.426   4.820  11.611
   41        1.597   3.509   0.000   5.106
   42        1.602   3.495   0.000   5.097
   43        1.599   3.500   0.000   5.099
   44        1.597   3.503   0.000   5.100
   45        1.596   3.481   0.000   5.076
   46        1.601   3.498   0.000   5.099
   47        1.597   3.501   0.000   5.098
   48        1.599   3.515   0.000   5.114
   49        1.599   3.483   0.000   5.083
   50        1.600   3.511   0.000   5.111
   51        1.603   3.501   0.000   5.104
   52        1.600   3.501   0.000   5.101
   53        1.598   3.482   0.000   5.080
   54        1.601   3.506   0.000   5.107
   55        1.600   3.483   0.000   5.084
   56        1.600   3.502   0.000   5.103
   57        1.598   3.489   0.000   5.088
   58        1.601   3.498   0.000   5.099
   59        1.598   3.522   0.000   5.120
   60        1.599   3.502   0.000   5.101
   61        1.598   3.489   0.000   5.088
   62        1.597   3.529   0.000   5.125
   63        1.599   3.498   0.000   5.097
   64        1.599   3.521   0.000   5.120
   65        1.599   3.501   0.000   5.099
   66        1.599   3.510   0.000   5.110
   67        1.601   3.512   0.000   5.113
   68        1.602   3.516   0.000   5.118
   69        1.599   3.506   0.000   5.104
   70        1.602   3.507   0.000   5.109
   71        1.602   3.482   0.000   5.084
   72        1.599   3.502   0.000   5.101
   73        1.601   3.505   0.000   5.107
   74        1.597   3.492   0.000   5.089
   75        1.597   3.527   0.000   5.123
   76        1.596   3.473   0.000   5.070
   77        1.601   3.486   0.000   5.087
   78        1.599   3.514   0.000   5.112
   79        1.598   3.484   0.000   5.082
   80        1.598   3.525   0.000   5.123
   81        1.598   3.486   0.000   5.084
   82        1.597   3.519   0.000   5.116
   83        1.598   3.519   0.000   5.117
   84        1.598   3.493   0.000   5.091
   85        1.597   3.469   0.000   5.066
   86        1.600   3.512   0.000   5.112
   87        1.597   3.495   0.000   5.092
   88        1.602   3.541   0.000   5.143
--------------------------------------------------
tot         84.744 416.241  77.914 578.898
 


 magnetization (x)
 
# of ion       s       p       d       tot
------------------------------------------
    1        0.003   0.000   0.000   0.003
    2        0.001   0.000   0.000   0.001
    3        0.002   0.000   0.000   0.003
    4        0.002   0.000   0.000   0.003
    5        0.002   0.001   0.000   0.002
    6        0.002   0.000   0.000   0.002
    7        0.000   0.000   0.000   0.001
    8        0.002   0.000   0.000   0.002
    9        0.002   0.000   0.000   0.002
   10        0.002   0.000   0.000   0.002
   11        0.001   0.000   0.000   0.001
   12        0.002   0.000   0.000   0.002
   13        0.001   0.000   0.000   0.002
   14        0.001   0.000   0.000   0.001
   15        0.001   0.001   0.000   0.002
   16        0.003   0.000   0.000   0.003
   17        0.006   0.002   0.001   0.009
   18        0.007   0.002   0.001   0.010
   19        0.008   0.002   0.001   0.011
   20        0.007   0.002   0.001   0.010
   21        0.007   0.002   0.001   0.010
   22        0.007   0.002   0.001   0.011
   23        0.006   0.002   0.001   0.009
   24        0.008   0.003   0.001   0.012
   25        0.015   0.030   2.739   2.785
   26        0.015   0.030   2.760   2.806
   27        0.016   0.030   2.792   2.838
   28        0.016   0.031   2.744   2.791
   29        0.014   0.030   2.765   2.809
   30        0.015   0.029   2.775   2.819
   31        0.016   0.031   2.721   2.768
   32        0.014   0.029   2.739   2.782
   33        0.015   0.030   2.775   2.820
   34        0.016   0.030   2.738   2.784
   35        0.015   0.029   2.784   2.828
   36        0.016   0.030   2.753   2.800
   37        0.016   0.030   2.762   2.808
   38        0.015   0.030   2.758   2.802
   39        0.016   0.031   2.735   2.781
   40        0.016   0.028   2.773   2.817
   41        0.002   0.040   0.000   0.042
   42        0.002   0.036   0.000   0.038
   43        0.002   0.030   0.000   0.031
   44        0.002   0.033   0.000   0.035
   45        0.002   0.015   0.000   0.017
   46        0.002   0.036   0.000   0.038
   47        0.002   0.020   0.000   0.022
   48        0.002   0.031   0.000   0.033
   49        0.002   0.018   0.000   0.019
   50        0.002   0.021   0.000   0.022
   51        0.002   0.037   0.000   0.039
   52        0.002   0.037   0.000   0.039
   53        0.002   0.003   0.000   0.004
   54        0.002   0.035   0.000   0.037
   55        0.003   0.053   0.000   0.055
   56        0.002   0.030   0.000   0.032
   57        0.002   0.023   0.000   0.025
   58        0.003   0.040   0.000   0.042
   59        0.002   0.037   0.000   0.039
   60        0.002   0.037   0.000   0.040
   61        0.002   0.023   0.000   0.025
   62        0.001   0.029   0.000   0.031
   63        0.002   0.025   0.000   0.028
   64        0.002   0.045   0.000   0.047
   65        0.002   0.037   0.000   0.039
   66        0.002   0.043   0.000   0.045
   67        0.002   0.056   0.000   0.059
   68        0.002   0.038   0.000   0.040
   69        0.003   0.064   0.000   0.066
   70        0.002   0.051   0.000   0.054
   71        0.002   0.037   0.000   0.040
   72        0.002   0.038   0.000   0.040
   73        0.002   0.033   0.000   0.035
   74        0.001  -0.023   0.000  -0.022
   75        0.002   0.051   0.000   0.054
   76        0.001   0.006   0.000   0.007
   77        0.002   0.014   0.000   0.015
   78        0.002   0.040   0.000   0.042
   79        0.003   0.051   0.000   0.053
   80        0.002   0.024   0.000   0.026
   81        0.002   0.026   0.000   0.028
   82        0.002   0.042   0.000   0.044
   83        0.002   0.038   0.000   0.039
   84        0.002   0.013   0.000   0.015
   85        0.002  -0.003   0.000  -0.001
   86        0.002   0.043   0.000   0.046
   87        0.002   0.021   0.000   0.023
   88        0.002   0.066   0.000   0.069
--------------------------------------------------
tot          0.422   2.041  44.123  46.586
 

 total amount of memory used by VASP MPI-rank0    94430. kBytes
=======================================================================

   base      :      30000. kBytes
   nonlr-proj:      13671. kBytes
   fftplans  :       1275. kBytes
   grid      :      22786. kBytes
   one-center:       2737. kBytes
   wavefun   :      23961. kBytes
 
  
  
 General timing and accounting informations for this job:
 ========================================================
  
                  Total CPU time used (sec):      817.012
                            User time (sec):      808.427
                          System time (sec):        8.584
                         Elapsed time (sec):      836.339
  
                   Maximum memory used (kb):      193360.
                   Average memory used (kb):           0.
  
                          Minor page faults:       293900
                          Major page faults:            0
                 Voluntary context switches:       281410
