 vasp.5.4.4.18Apr17-6-g9f103f2a35 (build Dec 02 2020 12:53:39) complex          
  
 executed on             LinuxIFC date 2021.08.04  16:10:39
 running on   96 total cores
 distrk:  each k-point on   96 cores,    1 groups
 distr:  one band on NCORES_PER_BAND=   1 cores,   96 groups


--------------------------------------------------------------------------------------------------------


 INCAR:
 POTCAR:    PAW_PBE Na_pv 19Sep2006               
 POTCAR:    PAW_PBE Mg_pv 13Apr2007               
 POTCAR:    PAW_PBE Mn_pv 02Aug2007               
 POTCAR:    PAW_PBE O 08Apr2002                   

 ----------------------------------------------------------------------------- 
|                                                                             |
|           W    W    AA    RRRRR   N    N  II  N    N   GGGG   !!!           |
|           W    W   A  A   R    R  NN   N  II  NN   N  G    G  !!!           |
|           W    W  A    A  R    R  N N  N  II  N N  N  G       !!!           |
|           W WW W  AAAAAA  RRRRR   N  N N  II  N  N N  G  GGG   !            |
|           WW  WW  A    A  R   R   N   NN  II  N   NN  G    G                |
|           W    W  A    A  R    R  N    N  II  N    N   GGGG   !!!           |
|                                                                             |
|      For optimal performance we recommend to set                            |
|        NCORE= 4 - approx SQRT( number of cores)                             |
|      NCORE specifies how many cores store one orbital (NPAR=cpu/NCORE).     |
|      This setting can  greatly improve the performance of VASP for DFT.     |
|      The default,   NCORE=1            might be grossly inefficient         |
|      on modern multi-core architectures or massively parallel machines.     |
|      Do your own testing !!!!                                               |
|      Unfortunately you need to use the default for GW and RPA calculations. |
|      (for HF NCORE is supported but not extensively tested yet)             |
|                                                                             |
 ----------------------------------------------------------------------------- 

 POTCAR:    PAW_PBE Na_pv 19Sep2006               
   VRHFIN =Na: p6s1                                                             
   LEXCH  = PE                                                                  
   EATOM  =   766.0439 eV,   56.3026 Ry                                         
                                                                                
   TITEL  = PAW_PBE Na_pv 19Sep2006                                             
   LULTRA =        F    use ultrasoft PP ?                                      
   IUNSCR =        1    unscreen: 0-lin 1-nonlin 2-no                           
   RPACOR =    1.800    partial core radius                                     
   POMASS =   22.990; ZVAL   =    7.000    mass and valenz                      
   RCORE  =    2.200    outmost cutoff radius                                   
   RWIGS  =    2.200; RWIGS  =    1.164    wigner-seitz radius (au A)           
   ENMAX  =  259.561; ENMIN  =  194.671 eV                                      
   ICORE  =        2    local potential                                         
   LCOR   =        T    correct aug charges                                     
   LPAW   =        T    paw PP                                                  
   EAUG   =  368.056                                                            
   DEXC   =    0.000                                                            
   RMAX   =    2.245    core radius for proj-oper                               
   RAUG   =    1.300    factor for augmentation sphere                          
   RDEP   =    2.259    radius for radial grids                                 
   RDEPT  =    1.738    core radius for aug-charge                              
                                                                                
   Atomic configuration                                                         
    5 entries                                                                   
     n  l   j            E        occ.                                          
     1  0  0.50     -1033.6933   2.0000                                         
     2  0  0.50       -56.7526   2.0000                                         
     2  1  1.50       -28.6721   6.0000                                         
     3  0  0.50        -2.7440   1.0000                                         
     3  2  1.50        -1.3606   0.0000                                         
   Description                                                                  
     l       E           TYP  RCUT    TYP  RCUT                                 
     1    -28.6720912     23  2.000                                             
     1      6.8029130     23  2.000                                             
     0     -2.7439560     23  2.200                                             
     0     34.0145650     23  2.200                                             
     2     -1.3605826     23  2.200                                             
  local pseudopotential read in
  partial core-charges read in
  partial kinetic energy density read in
  atomic valenz-charges read in
  non local Contribution for L=           1  read in
    real space projection operators read in
  non local Contribution for L=           1  read in
    real space projection operators read in
  non local Contribution for L=           0  read in
    real space projection operators read in
  non local Contribution for L=           0  read in
    real space projection operators read in
    PAW grid and wavefunctions read in
 
   number of l-projection  operators is LMAX  =           4
   number of lm-projection operators is LMMAX =           8
 
 POTCAR:    PAW_PBE Mg_pv 13Apr2007               
   VRHFIN =Mg: p6s2                                                             
   LEXCH  = PE                                                                  
   EATOM  =  1056.7344 eV,   77.6678 Ry                                         
                                                                                
   TITEL  = PAW_PBE Mg_pv 13Apr2007                                             
   LULTRA =        F    use ultrasoft PP ?                                      
   IUNSCR =        1    unscreen: 0-lin 1-nonlin 2-no                           
   RPACOR =    1.500    partial core radius                                     
   POMASS =   24.305; ZVAL   =    8.000    mass and valenz                      
   RCORE  =    2.000    outmost cutoff radius                                   
   RWIGS  =    2.000; RWIGS  =    1.058    wigner-seitz radius (au A)           
   ENMAX  =  403.929; ENMIN  =  302.947 eV                                      
   RCLOC  =    1.506    cutoff for local pot                                    
   LCOR   =        T    correct aug charges                                     
   LPAW   =        T    paw PP                                                  
   EAUG   =  758.780                                                            
   DEXC   =    0.000                                                            
   RMAX   =    2.045    core radius for proj-oper                               
   RAUG   =    1.300    factor for augmentation sphere                          
   RDEP   =    2.025    radius for radial grids                                 
   RDEPT  =    1.557    core radius for aug-charge                              
                                                                                
   Atomic configuration                                                         
    5 entries                                                                   
     n  l   j            E        occ.                                          
     1  0  0.50     -1259.6230   2.0000                                         
     2  0  0.50       -79.8442   2.0000                                         
     2  1  1.50       -46.6121   6.0000                                         
     3  0  0.50        -4.7055   2.0000                                         
     3  2  1.50        -1.3606   0.0000                                         
   Description                                                                  
     l       E           TYP  RCUT    TYP  RCUT                                 
     1    -46.6121073     23  1.600                                             
     1      2.7211652     23  1.600                                             
     0     -4.7054661     23  2.000                                             
     0     61.2262170     23  2.000                                             
     2     -1.3605826     23  2.000                                             
  local pseudopotential read in
  partial core-charges read in
  partial kinetic energy density read in
  atomic valenz-charges read in
  non local Contribution for L=           1  read in
    real space projection operators read in
  non local Contribution for L=           1  read in
    real space projection operators read in
  non local Contribution for L=           0  read in
    real space projection operators read in
  non local Contribution for L=           0  read in
    real space projection operators read in
  non local Contribution for L=           2  read in
    real space projection operators read in
    PAW grid and wavefunctions read in
 
   number of l-projection  operators is LMAX  =           5
   number of lm-projection operators is LMMAX =          13
 
 POTCAR:    PAW_PBE Mn_pv 02Aug2007               
   VRHFIN =Mn: 3p4s3d                                                           
   LEXCH  = PE                                                                  
   EATOM  =  2025.2664 eV,  148.8529 Ry                                         
                                                                                
   TITEL  = PAW_PBE Mn_pv 02Aug2007                                             
   LULTRA =        F    use ultrasoft PP ?                                      
   IUNSCR =        1    unscreen: 0-lin 1-nonlin 2-no                           
   RPACOR =    2.080    partial core radius                                     
   POMASS =   54.938; ZVAL   =   13.000    mass and valenz                      
   RCORE  =    2.300    outmost cutoff radius                                   
   RWIGS  =    2.500; RWIGS  =    1.323    wigner-seitz radius (au A)           
   ENMAX  =  269.864; ENMIN  =  202.398 eV                                      
   ICORE  =        3    local potential                                         
   LCOR   =        T    correct aug charges                                     
   LPAW   =        T    paw PP                                                  
   EAUG   =  569.085                                                            
   DEXC   =    0.000                                                            
   RMAX   =    2.343    core radius for proj-oper                               
   RAUG   =    1.300    factor for augmentation sphere                          
   RDEP   =    2.338    radius for radial grids                                 
   RDEPT  =    1.798    core radius for aug-charge                              
                                                                                
   Atomic configuration                                                         
    8 entries                                                                   
     n  l   j            E        occ.                                          
     1  0  0.50     -6424.8287   2.0000                                         
     2  0  0.50      -739.1154   2.0000                                         
     2  1  1.50      -625.3949   6.0000                                         
     3  0  0.50       -81.6100   2.0000                                         
     3  1  1.50       -50.4667   6.0000                                         
     3  2  2.50        -3.3745   6.0000                                         
     4  0  0.50        -4.1331   1.0000                                         
     4  3  2.50        -1.3606   0.0000                                         
   Description                                                                  
     l       E           TYP  RCUT    TYP  RCUT                                 
     1    -50.4666628     23  2.000                                             
     1     -1.3605826     23  2.000                                             
     2     -3.3744729     23  2.300                                             
     2     -4.7350555     23  2.300                                             
     0     -4.1331431     23  2.300                                             
     0      7.6656591     23  2.300                                             
     3      9.5240782     23  2.300                                             
  local pseudopotential read in
  partial core-charges read in
  partial kinetic energy density read in
  atomic valenz-charges read in
  non local Contribution for L=           1  read in
    real space projection operators read in
  non local Contribution for L=           1  read in
    real space projection operators read in
  non local Contribution for L=           2  read in
    real space projection operators read in
  non local Contribution for L=           2  read in
    real space projection operators read in
  non local Contribution for L=           0  read in
    real space projection operators read in
  non local Contribution for L=           0  read in
    real space projection operators read in
    PAW grid and wavefunctions read in
 
   number of l-projection  operators is LMAX  =           6
   number of lm-projection operators is LMMAX =          18
 
 POTCAR:    PAW_PBE O 08Apr2002                   
   VRHFIN =O: s2p4                                                              
   LEXCH  = PE                                                                  
   EATOM  =   432.3788 eV,   31.7789 Ry                                         
                                                                                
   TITEL  = PAW_PBE O 08Apr2002                                                 
   LULTRA =        F    use ultrasoft PP ?                                      
   IUNSCR =        1    unscreen: 0-lin 1-nonlin 2-no                           
   RPACOR =    1.200    partial core radius                                     
   POMASS =   16.000; ZVAL   =    6.000    mass and valenz                      
   RCORE  =    1.520    outmost cutoff radius                                   
   RWIGS  =    1.550; RWIGS  =    0.820    wigner-seitz radius (au A)           
   ENMAX  =  400.000; ENMIN  =  300.000 eV                                      
   ICORE  =        2    local potential                                         
   LCOR   =        T    correct aug charges                                     
   LPAW   =        T    paw PP                                                  
   EAUG   =  605.392                                                            
   DEXC   =    0.000                                                            
   RMAX   =    1.553    core radius for proj-oper                               
   RAUG   =    1.300    factor for augmentation sphere                          
   RDEP   =    1.550    radius for radial grids                                 
   RDEPT  =    1.329    core radius for aug-charge                              
                                                                                
   Atomic configuration                                                         
    4 entries                                                                   
     n  l   j            E        occ.                                          
     1  0  0.50      -514.6923   2.0000                                         
     2  0  0.50       -23.9615   2.0000                                         
     2  1  0.50        -9.0305   4.0000                                         
     3  2  1.50        -9.5241   0.0000                                         
   Description                                                                  
     l       E           TYP  RCUT    TYP  RCUT                                 
     0    -23.9615318     23  1.200                                             
     0     -9.5240782     23  1.200                                             
     1     -9.0304911     23  1.520                                             
     1      8.1634956     23  1.520                                             
     2     -9.5240782      7  1.500                                             
  local pseudopotential read in
  partial core-charges read in
  partial kinetic energy density read in
  kinetic energy density of atom read in
  atomic valenz-charges read in
  non local Contribution for L=           0  read in
    real space projection operators read in
  non local Contribution for L=           0  read in
    real space projection operators read in
  non local Contribution for L=           1  read in
    real space projection operators read in
  non local Contribution for L=           1  read in
    real space projection operators read in
    PAW grid and wavefunctions read in
 
   number of l-projection  operators is LMAX  =           4
   number of lm-projection operators is LMMAX =           8
 
 Optimization of the real space projectors (new method)

 maximal supplied QI-value         = 17.01
 optimisation between [QCUT,QGAM] = [ 10.20, 20.41] = [ 29.16,116.64] Ry 
 Optimized for a Real-space Cutoff    1.30 Angstroem

   l    n(q)    QCUT    max X(q) W(low)/X(q) W(high)/X(q)  e(spline) 
   1      7    10.205     4.940    0.23E-03    0.84E-03    0.11E-06
   1      7    10.205     6.253    0.40E-03    0.13E-02    0.18E-06
   0      8    10.205    37.438    0.23E-03    0.37E-03    0.42E-07
   0      8    10.205     9.606    0.16E-03    0.26E-03    0.31E-07
 Optimization of the real space projectors (new method)

 maximal supplied QI-value         = 18.90
 optimisation between [QCUT,QGAM] = [ 10.20, 20.41] = [ 29.16,116.64] Ry 
 Optimized for a Real-space Cutoff    1.26 Angstroem

   l    n(q)    QCUT    max X(q) W(low)/X(q) W(high)/X(q)  e(spline) 
   1      7    10.205     2.974    0.63E-04    0.14E-03    0.13E-06
   1      7    10.205     4.279    0.11E-03    0.45E-03    0.24E-06
   0      8    10.205    16.381    0.44E-03    0.15E-03    0.55E-07
   0      8    10.205     5.611    0.31E-03    0.11E-03    0.40E-07
   2      7    10.205     4.652    0.50E-03    0.47E-03    0.57E-07
 Optimization of the real space projectors (new method)

 maximal supplied QI-value         = 16.25
 optimisation between [QCUT,QGAM] = [ 10.24, 20.48] = [ 29.35,117.42] Ry 
 Optimized for a Real-space Cutoff    1.34 Angstroem

   l    n(q)    QCUT    max X(q) W(low)/X(q) W(high)/X(q)  e(spline) 
   1      8    10.239     3.658    0.23E-03    0.30E-03    0.98E-07
   1      8    10.239     5.612    0.32E-03    0.65E-03    0.21E-06
   2      7    10.239    55.373    0.42E-03    0.45E-03    0.65E-07
   2      7    10.239    50.863    0.43E-03    0.48E-03    0.67E-07
   0      8    10.239    79.536    0.11E-03    0.21E-03    0.56E-07
   0      8    10.239    38.668    0.96E-04    0.19E-03    0.52E-07
 Optimization of the real space projectors (new method)

 maximal supplied QI-value         = 24.76
 optimisation between [QCUT,QGAM] = [ 10.15, 20.30] = [ 28.85,115.39] Ry 
 Optimized for a Real-space Cutoff    1.38 Angstroem

   l    n(q)    QCUT    max X(q) W(low)/X(q) W(high)/X(q)  e(spline) 
   0      8    10.150    20.381    0.22E-03    0.32E-03    0.29E-06
   0      8    10.150    15.268    0.23E-03    0.35E-03    0.30E-06
   1      8    10.150     5.964    0.46E-03    0.53E-03    0.21E-06
   1      8    10.150     5.382    0.38E-03    0.45E-03    0.19E-06
  PAW_PBE Na_pv 19Sep2006               :
 energy of atom  1       EATOM= -766.0439
 kinetic energy error for atom=    0.0103 (will be added to EATOM!!)
  PAW_PBE Mg_pv 13Apr2007               :
 energy of atom  2       EATOM=-1056.7344
 kinetic energy error for atom=    0.0820 (will be added to EATOM!!)
  PAW_PBE Mn_pv 02Aug2007               :
 energy of atom  3       EATOM=-2025.2664
 kinetic energy error for atom=    0.0284 (will be added to EATOM!!)
  PAW_PBE O 08Apr2002                   :
 energy of atom  4       EATOM= -432.3788
 kinetic energy error for atom=    0.1156 (will be added to EATOM!!)
 
 
 POSCAR: Na Mg Mn  O                             
  positions in cartesian coordinates
  No initial velocities read in

 METAGGA = SCAN     LMAXTAU =  6    LMIXTAU =  F

 exchange correlation table for  LEXCH =        8
   RHO(1)=    0.500       N(1)  =     2000
   RHO(2)=  100.500       N(2)  =     4000

 VTST: version 3.2, (02/03/18)

 CHAIN: initializing optimizer
 
 OPT: Using VASP Dynamics algorithm
 CHAIN: Read ICHAIN            0
 
 POSCAR: Na Mg Mn  O                             
  positions in cartesian coordinates
  No initial velocities read in
 


--------------------------------------------------------------------------------------------------------


 ion  position               nearest neighbor table
   1  0.820  0.990  0.253-  63 2.32  67 2.33  74 2.34  54 2.38
   2  0.251  0.082  0.748-  44 2.25  84 2.31  47 2.38  36 2.98
   3  0.498  0.476  0.753-  49 2.25  46 2.31  71 2.38
   4  0.988  0.189  0.762-  61 2.13  47 2.23  58 2.24  25 2.75
   5  0.986  0.819  0.249-  75 2.33
   6  0.814  0.494  0.249-  66 2.30  75 2.31  62 2.34  55 2.36
   7  0.983  0.682  0.755-  73 2.16  70 2.16  37 2.79  39 2.96
   8  0.248  0.584  0.755-  80 2.13  48 2.19  83 2.31  32 2.96
   9  0.511  0.151  0.256-  51 2.23  53 2.27  88 2.35  31 2.83  29 2.92
  10  0.488  0.607  0.249-  43 2.19  52 2.20  33 2.90  35 2.90
  11  0.019  0.366  0.245-  64 2.21  55 2.24
  12  0.715  0.320  0.748-  56 2.18  60 2.25  30 2.96
  13  0.699  0.830  0.749-  72 2.30  71 2.36  68 2.37
  14  0.477  0.961  0.758-  85 2.23  81 2.35
  15  0.218  0.196  0.246-  42 2.21  41 2.32
  16  0.302  0.791  0.245-  78 2.22  86 2.29  38 2.87
  17  0.637  0.479  0.015-  66 1.99  43 2.02  53 2.02  71 2.12  60 2.14  49 2.21  33 2.82
  18  0.354  0.336  0.495-  50 2.00  44 2.00  45 2.03  46 2.07  51 2.07  52 2.09  32 2.85
  19  0.146  0.481  0.007-  78 2.01  41 2.04  55 2.04  48 2.05  83 2.08  61 2.12  33 2.84  38 2.84

  20  0.854  0.329  0.513-  58 2.02  57 2.03  56 2.03  62 2.05  63 2.08  64 2.15  31 2.74  40 2.78

  21  0.133  0.971  0.997-  77 1.98  73 2.03  67 2.04  84 2.05  42 2.14  47 2.15  34 2.81
  22  0.861  0.827  0.496-  75 2.00  74 2.05  68 2.09  76 2.10  69 2.12  28 2.82  39 2.86
  23  0.644  0.976  0.999-  59 2.00  65 2.02  72 2.03  85 2.10  79 2.10  54 2.11
  24  0.355  0.838  0.503-  81 1.93  86 1.99  82 2.07  80 2.09  87 2.10  88 2.11  39 2.82  36 2.83

  25  0.975  0.149  0.006-  41 1.87  61 1.89  54 1.90  67 1.92  72 1.92  47 1.95   4 2.75  30 2.87
                            26 2.88  34 2.94
  26  0.305  0.309  0.987-  49 1.81  42 1.87  43 1.89  48 1.93  47 1.96  41 1.97  33 2.87  25 2.88
                            29 2.89
  27  0.023  0.167  0.495-  50 1.85  58 1.87  63 1.87  44 1.92  69 1.93  76 1.94  40 2.79  32 2.89
                            36 2.92
  28  0.690  0.503  0.505-  68 1.87  57 1.88  52 1.88  46 1.89  62 1.92  75 1.99  22 2.82  31 2.86
                            35 2.90  39 2.96
  29  0.471  0.142  0.998-  59 1.85  42 1.88  84 1.91  79 1.92  53 1.97  49 2.05  30 2.87  26 2.89
                            38 2.90   9 2.92
  30  0.802  0.306  0.998-  61 1.87  59 1.91  60 1.92  53 1.95  54 1.98  55 2.00  25 2.87  29 2.87
                            37 2.88  12 2.96
  31  0.539  0.173  0.507-  56 1.86  88 1.87  81 1.88  62 1.89  51 2.00  46 2.03  20 2.74   9 2.83
                            40 2.85  28 2.86  36 2.98
  32  0.191  0.501  0.500-  80 1.90  45 1.91  87 1.94  50 1.96  64 1.96  58 2.00  39 2.84  18 2.85
                            35 2.88  27 2.89   8 2.96
  33  0.473  0.640  0.994-  71 1.85  85 1.95  43 1.95  48 1.95  65 1.96  78 1.98  17 2.82  19 2.84
                            26 2.87  10 2.90  38 2.91  34 2.92
  34  0.809  0.810  1.000-  73 1.84  71 1.94  72 1.95  67 1.99  66 1.99  65 1.99  21 2.81  37 2.91
                            33 2.92  25 2.94
  35  0.522  0.669  0.503-  45 1.82  74 1.90  82 1.91  87 1.93  52 1.96  68 2.04  32 2.88  28 2.90
                            10 2.90  40 2.95
  36  0.195  0.003  0.490-  44 1.90  51 1.93  86 1.94  76 1.98  70 2.02  81 2.05  24 2.83  39 2.91
                            27 2.92   2 2.98  31 2.98
  37  0.971  0.637  0.001-  66 1.88  55 1.89  77 1.89  83 1.90  60 1.92  73 2.01   7 2.79  30 2.88
                            38 2.91  34 2.91
  38  0.306  0.808  0.990-  78 1.90  83 1.90  84 1.90  77 1.93  85 1.93  79 2.04  19 2.84  16 2.87
                            29 2.90  37 2.91  33 2.91
  39  0.031  0.668  0.497-  75 1.82  86 1.87  70 1.88  80 1.95  64 1.96  57 1.97  24 2.82  32 2.84
                            22 2.86  36 2.91   7 2.96  28 2.96
  40  0.702  0.009  0.510-  56 1.93  63 1.93  69 1.93  88 1.93  74 1.97  82 1.97  20 2.78  27 2.79
                            31 2.85  35 2.95
  41  0.143  0.299  0.092-  25 1.87  26 1.97  19 2.04  15 2.32
  42  0.322  0.164  0.083-  26 1.87  29 1.88  21 2.14  15 2.21
  43  0.447  0.466  0.089-  26 1.89  33 1.95  17 2.02  10 2.19
  44  0.183  0.157  0.581-  36 1.90  27 1.92  18 2.00   2 2.25
  45  0.364  0.516  0.585-  35 1.82  32 1.91  18 2.03
  46  0.531  0.346  0.597-  28 1.89  31 2.03  18 2.07   3 2.31
  47  0.128  0.152  0.898-  25 1.95  26 1.96  21 2.15   4 2.23   2 2.38
  48  0.309  0.476  0.899-  26 1.93  33 1.95  19 2.05   8 2.19
  49  0.455  0.305  0.899-  26 1.81  29 2.05  17 2.21   3 2.25
  50  0.176  0.327  0.408-  27 1.85  32 1.96  18 2.00
  51  0.370  0.163  0.405-  36 1.93  31 2.00  18 2.07   9 2.23
  52  0.543  0.516  0.409-  28 1.88  35 1.96  18 2.09  10 2.20
  53  0.638  0.300  0.097-  30 1.95  29 1.97  17 2.02   9 2.27
  54  0.821  0.155  0.100-  25 1.90  30 1.98  23 2.11   1 2.38
  55  0.965  0.478  0.094-  37 1.89  30 2.00  19 2.04  11 2.24   6 2.36
  56  0.679  0.156  0.606-  31 1.86  40 1.93  20 2.03  12 2.18
  57  0.855  0.512  0.591-  28 1.88  39 1.97  20 2.03
  58  0.031  0.322  0.593-  27 1.87  32 2.00  20 2.02   4 2.24
  59  0.632  0.145  0.914-  29 1.85  30 1.91  23 2.00
  60  0.811  0.474  0.909-  30 1.92  37 1.92  17 2.14  12 2.25
  61  0.960  0.299  0.914-  30 1.87  25 1.89  19 2.12   4 2.13
  62  0.687  0.340  0.415-  31 1.89  28 1.92  20 2.05   6 2.34
  63  0.859  0.160  0.408-  27 1.87  40 1.93  20 2.08   1 2.32
  64  0.030  0.503  0.402-  39 1.96  32 1.96  20 2.15  11 2.21
  65  0.635  0.799  0.093-  33 1.96  34 1.99  23 2.02
  66  0.821  0.649  0.095-  37 1.88  34 1.99  17 1.99   6 2.30
  67  0.968  0.983  0.096-  25 1.92  34 1.99  21 2.04   1 2.33
  68  0.687  0.655  0.600-  28 1.87  35 2.04  22 2.09  13 2.37
  69  0.869  0.010  0.597-  40 1.93  27 1.93  22 2.12
  70  0.055  0.827  0.599-  39 1.88  36 2.02   7 2.16
  71  0.637  0.654  0.908-  33 1.85  34 1.94  17 2.12  13 2.36   3 2.38
  72  0.824  0.983  0.910-  25 1.92  34 1.95  23 2.03  13 2.30
  73  0.954  0.798  0.906-  34 1.84  37 2.01  21 2.03   7 2.16
  74  0.681  0.835  0.415-  35 1.90  40 1.97  22 2.05   1 2.34
  75  0.871  0.656  0.411-  39 1.82  28 1.99  22 2.00   6 2.31   5 2.33
  76  0.032  0.012  0.398-  27 1.94  36 1.98  22 2.10
  77  0.139  0.800  0.081-  37 1.89  38 1.93  21 1.98
  78  0.320  0.663  0.091-  38 1.90  33 1.98  19 2.01  16 2.22
  79  0.465  0.981  0.094-  29 1.92  38 2.04  23 2.10
  80  0.181  0.651  0.597-  32 1.90  39 1.95  24 2.09   8 2.13
  81  0.372  0.012  0.590-  31 1.88  24 1.93  36 2.05  14 2.35
  82  0.532  0.834  0.596-  35 1.91  40 1.97  24 2.07
  83  0.134  0.649  0.906-  38 1.90  37 1.90  19 2.08   8 2.31
  84  0.314  0.977  0.907-  38 1.90  29 1.91  21 2.05   2 2.31
  85  0.466  0.800  0.900-  38 1.93  33 1.95  23 2.10  14 2.23
  86  0.184  0.829  0.407-  39 1.87  36 1.94  24 1.99  16 2.29
  87  0.358  0.660  0.407-  35 1.93  32 1.94  24 2.10
  88  0.546  0.021  0.417-  31 1.87  40 1.93  24 2.11   9 2.35
 
  LATTYP: Found a hexagonal cell.
 ALAT       =    10.0190000534
 C/A-ratio  =     1.1196726572
  
  Lattice vectors:
  
 A1 = (  10.0190000534,   0.0000000000,   0.0000000000)
 A2 = (  -5.0095000267,   8.6767085668,   0.0000000000)
 A3 = (   0.0000000000,   0.0000000000,  11.2180004120)


Analysis of symmetry for initial positions (statically):
=====================================================================
 Subroutine PRICEL returns:
 Original cell was already a primitive cell.
 

 Routine SETGRP: Setting up the symmetry group for a 
 hexagonal supercell.


 Subroutine GETGRP returns: Found  1 space group operations
 (whereof  1 operations were pure point group operations)
 out of a pool of 24 trial point group operations.


The static configuration has the point symmetry C_1 .


Analysis of symmetry for dynamics (positions and initial velocities):
=====================================================================
 Subroutine PRICEL returns:
 Original cell was already a primitive cell.
 

 Routine SETGRP: Setting up the symmetry group for a 
 hexagonal supercell.


 Subroutine GETGRP returns: Found  1 space group operations
 (whereof  1 operations were pure point group operations)
 out of a pool of 24 trial point group operations.


The dynamic configuration has the point symmetry C_1 .


Analysis of structural, dynamic, and magnetic symmetry:
=====================================================================
 Subroutine PRICEL returns:
 Original cell was already a primitive cell.
 

 Routine SETGRP: Setting up the symmetry group for a 
 hexagonal supercell.


 Subroutine GETGRP returns: Found  1 space group operations
 (whereof  1 operations were pure point group operations)
 out of a pool of 24 trial point group operations.


The magnetic configuration has the point symmetry C_1 .


 Subroutine INISYM returns: Found  1 space group operations
 (whereof  1 operations are pure point group operations),
 and found     1 'primitive' translations

 
 

Automatic generation of k-mesh.
 generate k-points for:    2    2    2
Space group operators:
 irot       det(A)        alpha          n_x          n_y          n_z        tau_x        tau_y        tau_z
    1     1.000000     0.000000     1.000000     0.000000     0.000000     0.000000     0.000000     0.000000
 
 Subroutine IBZKPT returns following result:
 ===========================================
 
 Found      8 irreducible k-points:
 
 Following reciprocal coordinates:
            Coordinates               Weight
  0.000000  0.000000  0.000000      1.000000
  0.500000 -0.000000 -0.000000      1.000000
  0.000000  0.500000  0.000000      1.000000
  0.500000  0.500000 -0.000000      1.000000
  0.000000  0.000000  0.500000      1.000000
  0.500000 -0.000000  0.500000      1.000000
  0.000000  0.500000  0.500000      1.000000
  0.500000  0.500000  0.500000      1.000000
 
 Following cartesian coordinates:
            Coordinates               Weight
  0.000000  0.000000  0.000000      1.000000
  0.049905  0.028813 -0.000000      1.000000
  0.000000  0.057626  0.000000      1.000000
  0.049905  0.086438 -0.000000      1.000000
  0.000000  0.000000  0.044571      1.000000
  0.049905  0.028813  0.044571      1.000000
  0.000000  0.057626  0.044571      1.000000
  0.049905  0.086438  0.044571      1.000000
 


--------------------------------------------------------------------------------------------------------




 Dimension of arrays:
   k-points           NKPTS =      8   k-points in BZ     NKDIM =      8   number of bands    NBANDS=    480
   number of dos      NEDOS =    301   number of ions     NIONS =     88
   non local maximal  LDIM  =      6   non local SUM 2l+1 LMDIM =     18
   total plane-waves  NPLWV = 140000
   max r-space proj   IRMAX =   1632   max aug-charges    IRDMAX=   4555
   dimension x,y,z NGX =    50 NGY =   50 NGZ =   56
   dimension x,y,z NGXF=   100 NGYF=  100 NGZF=  112
   support grid    NGXF=   100 NGYF=  100 NGZF=  112
   ions per type =              16   8  16  48
   NGX,Y,Z   is equivalent  to a cutoff of   8.30,  8.30,  8.30 a.u.
   NGXF,Y,Z  is equivalent  to a cutoff of  16.59, 16.59, 16.60 a.u.

 SYSTEM =  unknown system                          
 POSCAR =  Na Mg Mn  O                             

 Startparameter for this run:
   NWRITE =      2    write-flag & timer
   PREC   = normal    normal or accurate (medium, high low for compatibility)
   ISTART =      0    job   : 0-new  1-cont  2-samecut
   ICHARG =      1    charge: 1-file 2-atom 10-const
   ISPIN  =      2    spin polarized calculation?
   LNONCOLLINEAR =      F non collinear calculations
   LSORBIT =      F    spin-orbit coupling
   INIWAV =      1    electr: 0-lowe 1-rand  2-diag
   LASPH  =      T    aspherical Exc in radial PAW
   METAGGA=      F    non-selfconsistent MetaGGA calc.

 Electronic Relaxation 1
   ENCUT  =  400.0 eV  29.40 Ry    5.42 a.u.  16.34 16.34 18.29*2*pi/ulx,y,z
   ENINI  =  400.0     initial cutoff
   ENAUG  =  758.8 eV  augmentation charge cutoff
   NELM   =    200;   NELMIN=  6; NELMDL=-12     # of ELM steps 
   EDIFF  = 0.1E-04   stopping-criterion for ELM
   LREAL  =      T    real-space projection
   NLSPLINE    = F    spline interpolate recip. space projectors
   LCOMPAT=      F    compatible to vasp.4.4
   GGA_COMPAT  = T    GGA compatible to vasp.4.4-vasp.4.6
   LMAXPAW     = -100 max onsite density
   LMAXMIX     =    4 max onsite mixed and CHGCAR
   VOSKOWN=      0    Vosko Wilk Nusair interpolation
   ROPT   =   -0.00050  -0.00050  -0.00050  -0.00050
 Ionic relaxation
   EDIFFG = 0.1E-03   stopping-criterion for IOM
   NSW    =      1    number of steps for IOM
   NBLOCK =      1;   KBLOCK =      1    inner block; outer block 
   IBRION =     -1    ionic relax: 0-MD 1-quasi-New 2-CG
   NFREE  =      0    steps in history (QN), initial steepest desc. (CG)
   ISIF   =      2    stress and relaxation
   IWAVPR =     10    prediction:  0-non 1-charg 2-wave 3-comb
   ISYM   =      2    0-nonsym 1-usesym 2-fastsym
   LCORR  =      T    Harris-Foulkes like correction to forces

   POTIM  = 0.5000    time-step for ionic-motion
   TEIN   =    0.0    initial temperature
   TEBEG  =    0.0;   TEEND  =   0.0 temperature during run
   SMASS  =  -3.00    Nose mass-parameter (am)
   estimated Nose-frequenzy (Omega)   =  0.10E-29 period in steps =****** mass=  -0.229E-26a.u.
   SCALEE = 1.0000    scale energy and forces
   NPACO  =    256;   APACO  = 16.0  distance and # of slots for P.C.
   PSTRESS=    0.0 pullay stress

  Mass of Ions in am
   POMASS =  22.99 24.30 54.94 16.00
  Ionic Valenz
   ZVAL   =   7.00  8.00 13.00  6.00
  Atomic Wigner-Seitz radii
   RWIGS  =  -1.00 -1.00 -1.00 -1.00
  virtual crystal weights 
   VCA    =   1.00  1.00  1.00  1.00
   NELECT =     672.0000    total number of electrons
   NUPDOWN=      48.0000    fix difference up-down

 DOS related values:
   EMIN   =  10.00;   EMAX   =-10.00  energy-range for DOS
   EFERMI =   0.00
   ISMEAR =     0;   SIGMA  =   0.05  broadening in eV -4-tet -1-fermi 0-gaus

 Electronic relaxation 2 (details)
   IALGO  =     48    algorithm
   LDIAG  =      T    sub-space diagonalisation (order eigenvalues)
   LSUBROT=      F    optimize rotation matrix (better conditioning)
   TURBO    =      0    0=normal 1=particle mesh
   IRESTART =      0    0=no restart 2=restart with 2 vectors
   NREBOOT  =      0    no. of reboots
   NMIN     =      0    reboot dimension
   EREF     =   0.00    reference energy to select bands
   IMIX   =      4    mixing-type and parameters
     AMIX     =   0.40;   BMIX     =  1.00
     AMIX_MAG =   1.60;   BMIX_MAG =  1.00
     AMIN     =   0.10
     WC   =   100.;   INIMIX=   1;  MIXPRE=   1;  MAXMIX= -45

 Intra band minimization:
   WEIMIN = 0.0000     energy-eigenvalue tresh-hold
   EBREAK =  0.52E-08  absolut break condition
   DEPER  =   0.30     relativ break condition  

   TIME   =   0.40     timestep for ELM

  volume/ion in A,a.u.               =      11.08        74.78
  Fermi-wavevector in a.u.,A,eV,Ry     =   1.445993  2.732531 28.448379  2.090897
  Thomas-Fermi vector in A             =   2.564112
 
 Write flags
   LWAVE        =      F    write WAVECAR
   LDOWNSAMPLE  =      F    k-point downsampling of WAVECAR
   LCHARG       =      F    write CHGCAR
   LVTOT        =      F    write LOCPOT, total local potential
   LVHAR        =      F    write LOCPOT, Hartree potential only
   LELF         =      F    write electronic localiz. function (ELF)
   LORBIT       =     11    0 simple, 1 ext, 2 COOP (PROOUT), +10 PAW based schemes


 Dipole corrections
   LMONO  =      F    monopole corrections only (constant potential shift)
   LDIPOL =      F    correct potential (dipole corrections)
   IDIPOL =      0    1-x, 2-y, 3-z, 4-all directions 
   EPSILON=  1.0000000 bulk dielectric constant

 Exchange correlation treatment:
   GGA     =    --    GGA type
   LEXCH   =     8    internal setting for exchange type
   VOSKOWN=      0    Vosko Wilk Nusair interpolation
   LHFCALC =     F    Hartree Fock is set to
   LHFONE  =     F    Hartree Fock one center treatment
   AEXX    =    0.0000 exact exchange contribution

 Linear response parameters
   LEPSILON=     F    determine dielectric tensor
   LRPA    =     F    only Hartree local field effects (RPA)
   LNABLA  =     F    use nabla operator in PAW spheres
   LVEL    =     F    velocity operator in full k-point grid
   LINTERFAST=   F  fast interpolation
   KINTER  =     0    interpolate to denser k-point grid
   CSHIFT  =0.1000    complex shift for real part using Kramers Kronig
   OMEGAMAX=  -1.0    maximum frequency
   DEG_THRESHOLD= 0.2000000E-02 threshold for treating states as degnerate
   RTIME   =   -0.100 relaxation time in fs
  (WPLASMAI=    0.000 imaginary part of plasma frequency in eV, 0.658/RTIME)
   DFIELD  = 0.0000000 0.0000000 0.0000000 field for delta impulse in time
 
 Orbital magnetization related:
   ORBITALMAG=     F  switch on orbital magnetization
   LCHIMAG   =     F  perturbation theory with respect to B field
   DQ        =  0.001000  dq finite difference perturbation B field
   LLRAUG    =     F  two centre corrections for induced B field



--------------------------------------------------------------------------------------------------------


 Static calculation
 charge density and potential will be updated during run
 spin polarized calculation
 RMM-DIIS sequential band-by-band
 perform sub-space diagonalisation
    before iterative eigenvector-optimisation
 modified Broyden-mixing scheme, WC =      100.0
 initial mixing is a Kerker type mixing with AMIX =  0.4000 and BMIX =      1.0000
 Hartree-type preconditioning will be used
 using additional bands          144
 real space projection scheme for non local part
 use partial core corrections
 calculate Harris-corrections to forces 
   (improved forces if not selfconsistent)
 use gradient corrections 
 use of overlap-Matrix (Vanderbilt PP)
 Gauss-broadening in eV      SIGMA  =   0.05


--------------------------------------------------------------------------------------------------------


  energy-cutoff  :      400.00
  volume of cell :      975.20
      direct lattice vectors                 reciprocal lattice vectors
    10.019000053  0.000000000  0.000000000     0.099810360  0.057625538 -0.000000000
    -5.009500027  8.676708567  0.000000000     0.000000000  0.115251076  0.000000000
     0.000000000  0.000000000 11.218000412     0.000000000  0.000000000  0.089142446

  length of vectors
    10.019000053 10.019000053 11.218000412     0.115251076  0.115251076  0.089142446


 
 k-points in units of 2pi/SCALE and weight: read from INCAR                         
   0.00000000  0.00000000  0.00000000       0.125
   0.04990518  0.02881277 -0.00000000       0.125
   0.00000000  0.05762554  0.00000000       0.125
   0.04990518  0.08643831 -0.00000000       0.125
   0.00000000  0.00000000  0.04457122       0.125
   0.04990518  0.02881277  0.04457122       0.125
   0.00000000  0.05762554  0.04457122       0.125
   0.04990518  0.08643831  0.04457122       0.125
 
 k-points in reciprocal lattice and weights: read from INCAR                         
   0.00000000  0.00000000  0.00000000       0.125
   0.50000000 -0.00000000 -0.00000000       0.125
   0.00000000  0.50000000  0.00000000       0.125
   0.50000000  0.50000000 -0.00000000       0.125
   0.00000000  0.00000000  0.50000000       0.125
   0.50000000 -0.00000000  0.50000000       0.125
   0.00000000  0.50000000  0.50000000       0.125
   0.50000000  0.50000000  0.50000000       0.125
 
 position of ions in fractional coordinates (direct lattice) 
   0.81999452  0.99046314  0.25311374
   0.25092529  0.08224778  0.74842215
   0.49829688  0.47586313  0.75344800
   0.98821393  0.18918365  0.76220625
   0.98554711  0.81873970  0.24853716
   0.81402572  0.49350708  0.24898020
   0.98285171  0.68168312  0.75518717
   0.24826687  0.58396765  0.75500621
   0.51082748  0.15122884  0.25647352
   0.48812777  0.60683742  0.24876448
   0.01939272  0.36562449  0.24482795
   0.71517589  0.31969002  0.74787393
   0.69944899  0.82955980  0.74851842
   0.47696191  0.96107016  0.75845781
   0.21770977  0.19611419  0.24627473
   0.30237226  0.79114496  0.24539846
   0.63663462  0.47937763  0.01450196
   0.35414953  0.33567106  0.49484220
   0.14638018  0.48106836  0.00731856
   0.85417531  0.32865804  0.51257174
   0.13274584  0.97077364  0.99677298
   0.86132693  0.82730104  0.49585397
   0.64382387  0.97595994  0.99941747
   0.35529152  0.83784305  0.50282045
   0.97480784  0.14872937  0.00550672
   0.30534882  0.30875533  0.98678392
   0.02262713  0.16726504  0.49490460
   0.68965379  0.50310437  0.50506862
   0.47079795  0.14173363  0.99799622
   0.80155538  0.30576572  0.99798534
   0.53861034  0.17332609  0.50728559
   0.19092633  0.50059305  0.49981278
   0.47284871  0.63984055  0.99350216
   0.80904855  0.81011825  0.99972160
   0.52223789  0.66937249  0.50286145
   0.19540904  0.00321452  0.49027811
   0.97112729  0.63714829  0.00099157
   0.30576034  0.80777520  0.98992744
   0.03076451  0.66772324  0.49658939
   0.70175268  0.00852183  0.51044124
   0.14328733  0.29918027  0.09154573
   0.32154701  0.16433766  0.08259172
   0.44664433  0.46620213  0.08921109
   0.18326099  0.15663675  0.58091012
   0.36364801  0.51619113  0.58522640
   0.53139866  0.34588346  0.59696913
   0.12849587  0.15186289  0.89774466
   0.30911394  0.47628199  0.89903723
   0.45488996  0.30472154  0.89903723
   0.17561862  0.32733265  0.40825190
   0.36992543  0.16294098  0.40520858
   0.54309539  0.51633750  0.40863432
   0.63823222  0.30025326  0.09663487
   0.82111645  0.15534001  0.09997949
   0.96515735  0.47752900  0.09402567
   0.67915869  0.15597982  0.60573184
   0.85519776  0.51173898  0.59051076
   0.03111027  0.32206683  0.59276963
   0.63165387  0.14522212  0.91387053
   0.81122415  0.47353325  0.90864678
   0.95985102  0.29897743  0.91443213
   0.68704804  0.33953774  0.41456764
   0.85920582  0.15988683  0.40812710
   0.02954343  0.50302139  0.40189961
   0.63477289  0.79940106  0.09320645
   0.82145916  0.64886702  0.09458370
   0.96833968  0.98315507  0.09607684
   0.68707911  0.65524616  0.59976108
   0.86876213  0.00967319  0.59656443
   0.05511944  0.82724456  0.59854785
   0.63747563  0.65421467  0.90811193
   0.82384340  0.98341093  0.90965409
   0.95419520  0.79799615  0.90643605
   0.68120929  0.83461141  0.41489034
   0.87054549  0.65618431  0.41087269
   0.03202367  0.01184452  0.39768050
   0.13902115  0.80007643  0.08117409
   0.31994414  0.66294148  0.09051078
   0.46536520  0.98089269  0.09381618
   0.18112151  0.65109021  0.59653234
   0.37188603  0.01241962  0.58955427
   0.53183440  0.83397523  0.59561684
   0.13448347  0.64890505  0.90629342
   0.31371674  0.97745244  0.90691742
   0.46573385  0.79974796  0.90011585
   0.18401087  0.82853077  0.40670617
   0.35838649  0.65956347  0.40653056
   0.54644349  0.02060590  0.41664466
 
 position of ions in cartesian coordinates  (Angst):
   3.25380008  8.59395997  2.83943000
   2.10200024  0.71364003  8.39580000
   2.60860008  4.12892570  8.45218000
   8.95319987  1.64149143  8.55043000
   5.77272005  7.10396573  2.78809000
   5.68349995  4.28201713  2.79306000
   6.43229979  5.91476573  8.47169000
  -0.43800021  5.06691713  8.46966000
   4.36039973  1.31216853  2.87712000
   1.85060011  5.26535140  2.79064000
  -1.63730021  3.17241713  2.74648000
   5.56386008  2.77385717  8.38965000
   2.85209968  7.19784860  8.39688000
  -0.03579955  8.33892570  8.50838000
   1.19880013  1.70162570  2.76271000
  -0.93377300  6.86453427  2.75288000
   3.97700000  4.15942000  0.16268300
   1.86668000  2.91252000  5.55114000
  -0.94332900  4.17409000  0.08209959
   6.91157000  2.85167000  5.75003000
  -3.53311000  8.42312000 11.18179971
   4.48527000  7.17825000  5.56249000
   1.56140000  8.46812000 11.21146560
  -0.63750900  7.26972000  5.64064000
   9.02154003  1.29048143  0.06177440
   1.51258000  2.67898000 11.06974241
  -0.61121300  1.45131000  5.55184000
   4.38934000  4.36529000  5.66586000
   4.00691003  1.22978143 11.19552201
   6.49905000  2.65304000 11.19540000
   4.52806000  1.50390000  5.69073000
  -0.59483000  4.34350000  5.60690000
   1.53219000  5.55171000 11.14510761
   4.04757000  7.02916000 11.21487734
   1.87908000  5.80795000  5.64110000
   1.94170003  0.02789143  5.49994000
   6.53793005  5.52835000  0.01112340
  -0.98313700  7.00883000 11.10500641
  -3.03673000  5.79364000  5.57074000
   6.98817003  0.07394143  5.72613000
  -0.06314780  2.59590000  1.02696000
   2.39833000  1.42591000  0.92651400
   2.13949000  4.04510000  1.00077000
   1.05142003  1.35909143  6.51665000
   1.05753000  4.47884000  6.56507000
   3.59138000  3.00113000  6.69680000
   0.52664300  1.31767000 10.07090000
   0.71107800  4.13256000 10.08540000
   3.03104000  2.64398000 10.08540000
   0.11975000  2.84017000  4.57977000
   2.89003003  1.41379143  4.54563000
   2.85468000  4.48011000  4.58406000
   4.89033000  2.60521000  1.08405000
   7.44859000  1.34784000  1.12157000
   7.27773000  4.14338000  1.05478000
   6.02311003  1.35339143  6.79510000
   6.00467000  4.44021000  6.62435000
  -1.30170000  2.79448000  6.64969000
   5.60105000  1.26005000 10.25180000
   5.75549000  4.10871000 10.19320000
   8.11902000  2.59414000 10.25810000
   5.18262000  2.94607000  4.65062000
   7.80743003  1.38729143  4.57837000
  -2.22389000  4.36457000  4.50851000
   2.35519000  6.93617000  1.04559000
   4.97970000  5.63003000  1.06104000
   4.77668000  8.53055000  1.07779000
   3.60139000  5.68538000  6.72812000
   8.65567003  0.08393143  6.69226000
  -3.59184000  7.17776000  6.71451000
   3.10958000  5.67643000 10.18720000
   3.32769000  8.53277000 10.20450000
   5.56252000  6.92398000 10.16840000
   2.64405000  7.24168000  4.65424000
   5.43484000  5.69352000  4.60917000
   0.26151003  0.10277143  4.46118000
  -2.61513000  6.94203000  0.91061100
  -0.11548500  5.75215000  1.01535000
  -0.25128800  8.51092000  1.05243000
  -1.44698000  5.64932000  6.69190000
   3.66371003  0.10776143  6.61362000
   1.15065000  7.23616000  6.68163000
  -1.90330000  5.63036000 10.16680000
  -1.75342000  8.48107000 10.17380000
   0.65985000  6.93918000 10.09750000
  -2.30692000  7.18892000  4.56243000
   0.28659100  5.72284000  4.56046000
   5.37159203  0.17879143  4.67392000
 


--------------------------------------------------------------------------------------------------------


 k-point  1 :   0.0000 0.0000 0.0000  plane waves:   17725
 k-point  2 :   0.5000-0.0000-0.0000  plane waves:   17736
 k-point  3 :   0.0000 0.5000 0.0000  plane waves:   17736
 k-point  4 :   0.5000 0.5000-0.0000  plane waves:   17736
 k-point  5 :   0.0000 0.0000 0.5000  plane waves:   17676
 k-point  6 :   0.5000-0.0000 0.5000  plane waves:   17700
 k-point  7 :   0.0000 0.5000 0.5000  plane waves:   17700
 k-point  8 :   0.5000 0.5000 0.5000  plane waves:   17700

 maximum and minimum number of plane-waves per node :     17736    17676

 maximum number of plane-waves:     17736
 maximum index in each direction: 
   IXMAX=   16   IYMAX=   16   IZMAX=   18
   IXMIN=  -16   IYMIN=  -16   IZMIN=  -18


 serial   3D FFT for wavefunctions
 parallel 3D FFT for charge:
    minimum data exchange during FFTs selected (reduces bandwidth)


 total amount of memory used by VASP MPI-rank0    94442. kBytes
=======================================================================

   base      :      30000. kBytes
   nonlr-proj:      13683. kBytes
   fftplans  :       1275. kBytes
   grid      :      22786. kBytes
   one-center:       2737. kBytes
   wavefun   :      23961. kBytes
 
     INWAV:  cpu time    0.0000: real time    0.0001
 Broyden mixing: mesh for mixing (old mesh)
   NGX = 33   NGY = 33   NGZ = 37
  (NGX  =100   NGY  =100   NGZ  =112)
  gives a total of  40293 points

 initial charge density was supplied:
 charge density of overlapping atoms calculated
 number of electron     672.0000000 magnetization      48.0000000
 keeping initial charge density in first step


--------------------------------------------------------------------------------------------------------


 Maximum index for non-local projection operator         1551
 Maximum index for augmentation-charges          556 (set IRDMAX)


--------------------------------------------------------------------------------------------------------


 First call to EWALD:  gamma=   0.179
 Maximum number of real-space cells 3x 3x 2
 Maximum number of reciprocal cells 3x 3x 3

    FEWALD:  cpu time    0.0030: real time    0.0030


--------------------------------------- Iteration      1(   1)  ---------------------------------------


    POTLOK:  cpu time    0.1850: real time    0.1860
    SETDIJ:  cpu time    4.6379: real time    4.6438
    EDDIAG:  cpu time    4.4257: real time    4.8331
  RMM-DIIS:  cpu time    9.1592: real time    9.1691
    ORTHCH:  cpu time    1.1582: real time    1.2413
       DOS:  cpu time    0.0023: real time    0.0024
    --------------------------------------------
      LOOP:  cpu time   19.5685: real time   20.0755

 eigenvalue-minimisations  :  7680
 total energy-change (2. order) : 0.1606745E+04  (-0.3496763E+05)
 number of electron     672.0000000 magnetization      48.0000000
 augmentation part      672.0000000 magnetization      48.0000000

 Free energy of the ion-electron system (eV)
  ---------------------------------------------------
  alpha Z        PSCENC =      2652.81237852
  Ewald energy   TEWEN  =    -41884.96841290
  -Hartree energ DENC   =    -25730.30296854
  -exchange      EXHF   =         0.00000000
  -V(xc)+E(xc)   XCENC  =      3605.97039556
  PAW double counting   =     55594.23204139   -59034.67079123
  entropy T*S    EENTRO =        -0.05009388
  eigenvalues    EBANDS =     -7458.47524835
  atomic energy  EATOM  =     73862.19814772
  Solvation  Ediel_sol  =         0.00000000
  ---------------------------------------------------
  free energy    TOTEN  =      1606.74544827 eV

  energy without entropy =     1606.79554216  energy(sigma->0) =     1606.77049521


--------------------------------------------------------------------------------------------------------




--------------------------------------- Iteration      1(   2)  ---------------------------------------


    EDDIAG:  cpu time    4.4181: real time    4.8191
  RMM-DIIS:  cpu time    9.1689: real time    9.2279
    ORTHCH:  cpu time    1.1539: real time    1.2412
       DOS:  cpu time    0.0018: real time    0.0019
    --------------------------------------------
      LOOP:  cpu time   14.7427: real time   15.2901

 eigenvalue-minimisations  :  7680
 total energy-change (2. order) :-0.2338514E+04  (-0.8039482E+04)
 number of electron     672.0000000 magnetization      48.0000000
 augmentation part      672.0000000 magnetization      48.0000000

 Free energy of the ion-electron system (eV)
  ---------------------------------------------------
  alpha Z        PSCENC =      2652.81237852
  Ewald energy   TEWEN  =    -41884.96841290
  -Hartree energ DENC   =    -25730.30296854
  -exchange      EXHF   =         0.00000000
  -V(xc)+E(xc)   XCENC  =      3605.97039556
  PAW double counting   =     55594.23204139   -59034.67079123
  entropy T*S    EENTRO =        -0.04499349
  eigenvalues    EBANDS =     -9796.99463816
  atomic energy  EATOM  =     73862.19814772
  Solvation  Ediel_sol  =         0.00000000
  ---------------------------------------------------
  free energy    TOTEN  =      -731.76884114 eV

  energy without entropy =     -731.72384765  energy(sigma->0) =     -731.74634440


--------------------------------------------------------------------------------------------------------




--------------------------------------- Iteration      1(   3)  ---------------------------------------


    EDDIAG:  cpu time    4.4722: real time    4.8660
  RMM-DIIS:  cpu time    9.1703: real time    9.1937
    ORTHCH:  cpu time    1.1562: real time    1.2434
       DOS:  cpu time    0.0023: real time    0.0023
    --------------------------------------------
      LOOP:  cpu time   14.8009: real time   15.3054

 eigenvalue-minimisations  :  7680
 total energy-change (2. order) : 0.8677573E+02  (-0.1422267E+04)
 number of electron     672.0000000 magnetization      48.0000000
 augmentation part      672.0000000 magnetization      48.0000000

 Free energy of the ion-electron system (eV)
  ---------------------------------------------------
  alpha Z        PSCENC =      2652.81237852
  Ewald energy   TEWEN  =    -41884.96841290
  -Hartree energ DENC   =    -25730.30296854
  -exchange      EXHF   =         0.00000000
  -V(xc)+E(xc)   XCENC  =      3605.97039556
  PAW double counting   =     55594.23204139   -59034.67079123
  entropy T*S    EENTRO =        -0.04595793
  eigenvalues    EBANDS =     -9710.21794535
  atomic energy  EATOM  =     73862.19814772
  Solvation  Ediel_sol  =         0.00000000
  ---------------------------------------------------
  free energy    TOTEN  =      -644.99311277 eV

  energy without entropy =     -644.94715484  energy(sigma->0) =     -644.97013381


--------------------------------------------------------------------------------------------------------




--------------------------------------- Iteration      1(   4)  ---------------------------------------


    EDDIAG:  cpu time    4.4283: real time    4.8502
  RMM-DIIS:  cpu time    9.2014: real time    9.2094
    ORTHCH:  cpu time    1.1557: real time    1.2394
       DOS:  cpu time    0.0013: real time    0.0013
    --------------------------------------------
      LOOP:  cpu time   14.7867: real time   15.3002

 eigenvalue-minimisations  :  7680
 total energy-change (2. order) :-0.4668502E+03  (-0.4280916E+03)
 number of electron     672.0000000 magnetization      48.0000000
 augmentation part      672.0000000 magnetization      48.0000000

 Free energy of the ion-electron system (eV)
  ---------------------------------------------------
  alpha Z        PSCENC =      2652.81237852
  Ewald energy   TEWEN  =    -41884.96841290
  -Hartree energ DENC   =    -25730.30296854
  -exchange      EXHF   =         0.00000000
  -V(xc)+E(xc)   XCENC  =      3605.97039556
  PAW double counting   =     55594.23204139   -59034.67079123
  entropy T*S    EENTRO =        -0.00000000
  eigenvalues    EBANDS =    -10177.11415252
  atomic energy  EATOM  =     73862.19814772
  Solvation  Ediel_sol  =         0.00000000
  ---------------------------------------------------
  free energy    TOTEN  =     -1111.84336201 eV

  energy without entropy =    -1111.84336201  energy(sigma->0) =    -1111.84336201


--------------------------------------------------------------------------------------------------------




--------------------------------------- Iteration      1(   5)  ---------------------------------------


    EDDIAG:  cpu time    4.4643: real time    4.8574
  RMM-DIIS:  cpu time    9.1919: real time    9.1998
    ORTHCH:  cpu time    1.1494: real time    1.2340
       DOS:  cpu time    0.0014: real time    0.0014
    --------------------------------------------
      LOOP:  cpu time   14.8070: real time   15.2927

 eigenvalue-minimisations  :  7680
 total energy-change (2. order) :-0.1043043E+03  (-0.1600162E+03)
 number of electron     672.0000000 magnetization      48.0000000
 augmentation part      672.0000000 magnetization      48.0000000

 Free energy of the ion-electron system (eV)
  ---------------------------------------------------
  alpha Z        PSCENC =      2652.81237852
  Ewald energy   TEWEN  =    -41884.96841290
  -Hartree energ DENC   =    -25730.30296854
  -exchange      EXHF   =         0.00000000
  -V(xc)+E(xc)   XCENC  =      3605.97039556
  PAW double counting   =     55594.23204139   -59034.67079123
  entropy T*S    EENTRO =        -0.00000000
  eigenvalues    EBANDS =    -10281.41840762
  atomic energy  EATOM  =     73862.19814772
  Solvation  Ediel_sol  =         0.00000000
  ---------------------------------------------------
  free energy    TOTEN  =     -1216.14761710 eV

  energy without entropy =    -1216.14761710  energy(sigma->0) =    -1216.14761710


--------------------------------------------------------------------------------------------------------




--------------------------------------- Iteration      1(   6)  ---------------------------------------


    EDDIAG:  cpu time    4.4475: real time    4.8451
  RMM-DIIS:  cpu time    9.1913: real time    9.1991
    ORTHCH:  cpu time    1.1559: real time    1.2386
       DOS:  cpu time    0.0014: real time    0.0014
    --------------------------------------------
      LOOP:  cpu time   14.7962: real time   15.2842

 eigenvalue-minimisations  :  7680
 total energy-change (2. order) :-0.9052724E+01  (-0.7956136E+02)
 number of electron     672.0000000 magnetization      48.0000000
 augmentation part      672.0000000 magnetization      48.0000000

 Free energy of the ion-electron system (eV)
  ---------------------------------------------------
  alpha Z        PSCENC =      2652.81237852
  Ewald energy   TEWEN  =    -41884.96841290
  -Hartree energ DENC   =    -25730.30296854
  -exchange      EXHF   =         0.00000000
  -V(xc)+E(xc)   XCENC  =      3605.97039556
  PAW double counting   =     55594.23204139   -59034.67079123
  entropy T*S    EENTRO =        -0.00000000
  eigenvalues    EBANDS =    -10290.47113210
  atomic energy  EATOM  =     73862.19814772
  Solvation  Ediel_sol  =         0.00000000
  ---------------------------------------------------
  free energy    TOTEN  =     -1225.20034158 eV

  energy without entropy =    -1225.20034158  energy(sigma->0) =    -1225.20034158


--------------------------------------------------------------------------------------------------------




--------------------------------------- Iteration      1(   7)  ---------------------------------------


    EDDIAG:  cpu time    4.4654: real time    4.8595
  RMM-DIIS:  cpu time    9.1805: real time    9.1880
    ORTHCH:  cpu time    1.1531: real time    1.2393
       DOS:  cpu time    0.0019: real time    0.0019
    --------------------------------------------
      LOOP:  cpu time   14.8008: real time   15.2887

 eigenvalue-minimisations  :  7680
 total energy-change (2. order) :-0.1805814E+01  (-0.4855286E+02)
 number of electron     672.0000000 magnetization      48.0000000
 augmentation part      672.0000000 magnetization      48.0000000

 Free energy of the ion-electron system (eV)
  ---------------------------------------------------
  alpha Z        PSCENC =      2652.81237852
  Ewald energy   TEWEN  =    -41884.96841290
  -Hartree energ DENC   =    -25730.30296854
  -exchange      EXHF   =         0.00000000
  -V(xc)+E(xc)   XCENC  =      3605.97039556
  PAW double counting   =     55594.23204139   -59034.67079123
  entropy T*S    EENTRO =        -0.00000000
  eigenvalues    EBANDS =    -10292.27694563
  atomic energy  EATOM  =     73862.19814772
  Solvation  Ediel_sol  =         0.00000000
  ---------------------------------------------------
  free energy    TOTEN  =     -1227.00615512 eV

  energy without entropy =    -1227.00615512  energy(sigma->0) =    -1227.00615512


--------------------------------------------------------------------------------------------------------




--------------------------------------- Iteration      1(   8)  ---------------------------------------


    EDDIAG:  cpu time    4.4742: real time    4.8868
  RMM-DIIS:  cpu time    9.1598: real time    9.1815
    ORTHCH:  cpu time    1.1526: real time    1.2396
       DOS:  cpu time    0.0015: real time    0.0015
    --------------------------------------------
      LOOP:  cpu time   14.7881: real time   15.3094

 eigenvalue-minimisations  :  7680
 total energy-change (2. order) : 0.4973658E+01  (-0.3022497E+02)
 number of electron     672.0000000 magnetization      48.0000000
 augmentation part      672.0000000 magnetization      48.0000000

 Free energy of the ion-electron system (eV)
  ---------------------------------------------------
  alpha Z        PSCENC =      2652.81237852
  Ewald energy   TEWEN  =    -41884.96841290
  -Hartree energ DENC   =    -25730.30296854
  -exchange      EXHF   =         0.00000000
  -V(xc)+E(xc)   XCENC  =      3605.97039556
  PAW double counting   =     55594.23204139   -59034.67079123
  entropy T*S    EENTRO =        -0.00000000
  eigenvalues    EBANDS =    -10287.30328766
  atomic energy  EATOM  =     73862.19814772
  Solvation  Ediel_sol  =         0.00000000
  ---------------------------------------------------
  free energy    TOTEN  =     -1222.03249715 eV

  energy without entropy =    -1222.03249715  energy(sigma->0) =    -1222.03249715


--------------------------------------------------------------------------------------------------------




--------------------------------------- Iteration      1(   9)  ---------------------------------------


    EDDIAG:  cpu time    4.4420: real time    4.8352
  RMM-DIIS:  cpu time   19.4299: real time   19.4592
    ORTHCH:  cpu time    1.1543: real time    1.2375
       DOS:  cpu time    0.0014: real time    0.0014
    --------------------------------------------
      LOOP:  cpu time   25.0276: real time   25.5333

 eigenvalue-minimisations  : 21790
 total energy-change (2. order) : 0.9394324E+01  (-0.1330590E+02)
 number of electron     672.0000000 magnetization      48.0000000
 augmentation part      672.0000000 magnetization      48.0000000

 Free energy of the ion-electron system (eV)
  ---------------------------------------------------
  alpha Z        PSCENC =      2652.81237852
  Ewald energy   TEWEN  =    -41884.96841290
  -Hartree energ DENC   =    -25730.30296854
  -exchange      EXHF   =         0.00000000
  -V(xc)+E(xc)   XCENC  =      3605.97039556
  PAW double counting   =     55594.23204139   -59034.67079123
  entropy T*S    EENTRO =        -0.00000000
  eigenvalues    EBANDS =    -10277.90896328
  atomic energy  EATOM  =     73862.19814772
  Solvation  Ediel_sol  =         0.00000000
  ---------------------------------------------------
  free energy    TOTEN  =     -1212.63817277 eV

  energy without entropy =    -1212.63817277  energy(sigma->0) =    -1212.63817277


--------------------------------------------------------------------------------------------------------




--------------------------------------- Iteration      1(  10)  ---------------------------------------


    EDDIAG:  cpu time    4.4208: real time    4.8227
  RMM-DIIS:  cpu time   17.7503: real time   17.7632
    ORTHCH:  cpu time    1.1716: real time    1.2643
       DOS:  cpu time    0.0014: real time    0.0014
    --------------------------------------------
      LOOP:  cpu time   23.3441: real time   23.8517

 eigenvalue-minimisations  : 19654
 total energy-change (2. order) :-0.1913480E+01  (-0.5326853E+00)
 number of electron     672.0000000 magnetization      48.0000000
 augmentation part      672.0000000 magnetization      48.0000000

 Free energy of the ion-electron system (eV)
  ---------------------------------------------------
  alpha Z        PSCENC =      2652.81237852
  Ewald energy   TEWEN  =    -41884.96841290
  -Hartree energ DENC   =    -25730.30296854
  -exchange      EXHF   =         0.00000000
  -V(xc)+E(xc)   XCENC  =      3605.97039556
  PAW double counting   =     55594.23204139   -59034.67079123
  entropy T*S    EENTRO =        -0.00000029
  eigenvalues    EBANDS =    -10279.82244296
  atomic energy  EATOM  =     73862.19814772
  Solvation  Ediel_sol  =         0.00000000
  ---------------------------------------------------
  free energy    TOTEN  =     -1214.55165274 eV

  energy without entropy =    -1214.55165245  energy(sigma->0) =    -1214.55165260


--------------------------------------------------------------------------------------------------------




--------------------------------------- Iteration      1(  11)  ---------------------------------------


    EDDIAG:  cpu time    4.4215: real time    4.8254
  RMM-DIIS:  cpu time   20.2254: real time   20.2400
    ORTHCH:  cpu time    1.1732: real time    1.2576
       DOS:  cpu time    0.0015: real time    0.0015
    --------------------------------------------
      LOOP:  cpu time   25.8215: real time   26.3245

 eigenvalue-minimisations  : 22624
 total energy-change (2. order) : 0.7025232E-01  (-0.4370480E-01)
 number of electron     672.0000000 magnetization      48.0000000
 augmentation part      672.0000000 magnetization      48.0000000

 Free energy of the ion-electron system (eV)
  ---------------------------------------------------
  alpha Z        PSCENC =      2652.81237852
  Ewald energy   TEWEN  =    -41884.96841290
  -Hartree energ DENC   =    -25730.30296854
  -exchange      EXHF   =         0.00000000
  -V(xc)+E(xc)   XCENC  =      3605.97039556
  PAW double counting   =     55594.23204139   -59034.67079123
  entropy T*S    EENTRO =        -0.00000025
  eigenvalues    EBANDS =    -10279.75219069
  atomic energy  EATOM  =     73862.19814772
  Solvation  Ediel_sol  =         0.00000000
  ---------------------------------------------------
  free energy    TOTEN  =     -1214.48140042 eV

  energy without entropy =    -1214.48140017  energy(sigma->0) =    -1214.48140030


--------------------------------------------------------------------------------------------------------




--------------------------------------- Iteration      1(  12)  ---------------------------------------


    EDDIAG:  cpu time    4.4550: real time    4.8659
  RMM-DIIS:  cpu time   21.8494: real time   21.8960
    ORTHCH:  cpu time    1.1526: real time    1.2365
       DOS:  cpu time    0.0020: real time    0.0020
    CHARGE:  cpu time    1.7932: real time    1.7942
    MIXING:  cpu time    0.0010: real time    0.0012
    --------------------------------------------
      LOOP:  cpu time   29.2533: real time   29.7958

 eigenvalue-minimisations  : 24430
 total energy-change (2. order) :-0.7224369E-03  (-0.4235322E-02)
 number of electron     671.9999156 magnetization      47.9999998
 augmentation part      239.0864535 magnetization      29.0402976

 Broyden mixing:
  rms(total) = 0.12572E+02    rms(broyden)= 0.12563E+02
  rms(prec ) = 0.14425E+02
  weight for this iteration     100.00

 Free energy of the ion-electron system (eV)
  ---------------------------------------------------
  alpha Z        PSCENC =      2652.81237852
  Ewald energy   TEWEN  =    -41884.96841290
  -Hartree energ DENC   =    -25730.30296854
  -exchange      EXHF   =         0.00000000
  -V(xc)+E(xc)   XCENC  =      3605.97039556
  PAW double counting   =     55594.23204139   -59034.67079123
  entropy T*S    EENTRO =        -0.00000025
  eigenvalues    EBANDS =    -10279.75291312
  atomic energy  EATOM  =     73862.19814772
  Solvation  Ediel_sol  =         0.00000000
  ---------------------------------------------------
  free energy    TOTEN  =     -1214.48212286 eV

  energy without entropy =    -1214.48212261  energy(sigma->0) =    -1214.48212274


--------------------------------------------------------------------------------------------------------




--------------------------------------- Iteration      1(  13)  ---------------------------------------


    POTLOK:  cpu time    0.1693: real time    0.1705
    SETDIJ:  cpu time    4.9254: real time    4.9850
    EDDIAG:  cpu time    4.4290: real time    4.8206
  RMM-DIIS:  cpu time   17.3483: real time   17.3605
    ORTHCH:  cpu time    1.1528: real time    1.2358
       DOS:  cpu time    0.0024: real time    0.0024
    CHARGE:  cpu time    1.7939: real time    1.7947
    MIXING:  cpu time    0.0009: real time    0.0009
    --------------------------------------------
      LOOP:  cpu time   29.8220: real time   30.3704

 eigenvalue-minimisations  : 18756
 total energy-change (2. order) : 0.2282857E+03  (-0.1219171E+03)
 number of electron     671.9999215 magnetization      47.9999996
 augmentation part      269.1109275 magnetization      26.3431804

 Broyden mixing:
  rms(total) = 0.14010E+02    rms(broyden)= 0.14007E+02
  rms(prec ) = 0.15787E+02
  weight for this iteration     100.00

 eigenvalues of (default mixing * dielectric matrix)
  average eigenvalue GAMMA=   0.3181
  0.3181

 Free energy of the ion-electron system (eV)
  ---------------------------------------------------
  alpha Z        PSCENC =      2652.81237852
  Ewald energy   TEWEN  =    -41884.96841290
  -Hartree energ DENC   =    -25062.22543478
  -exchange      EXHF   =         0.00000000
  -V(xc)+E(xc)   XCENC  =      3696.46010184
  PAW double counting   =     59901.46511902   -63326.82757568
  entropy T*S    EENTRO =        -0.06895183
  eigenvalues    EBANDS =    -10825.04179202
  atomic energy  EATOM  =     73862.19814772
  Solvation  Ediel_sol  =         0.00000000
  ---------------------------------------------------
  free energy    TOTEN  =      -986.19642012 eV

  energy without entropy =     -986.12746828  energy(sigma->0) =     -986.16194420


--------------------------------------------------------------------------------------------------------




--------------------------------------- Iteration      1(  14)  ---------------------------------------


    POTLOK:  cpu time    0.1747: real time    0.1748
    SETDIJ:  cpu time    4.9510: real time    4.9742
    EDDIAG:  cpu time    4.4188: real time    4.8335
  RMM-DIIS:  cpu time   17.7260: real time   17.7573
    ORTHCH:  cpu time    1.1555: real time    1.2402
       DOS:  cpu time    0.0013: real time    0.0013
    CHARGE:  cpu time    1.7947: real time    1.7968
    MIXING:  cpu time    0.0012: real time    0.0012
    --------------------------------------------
      LOOP:  cpu time   30.2232: real time   30.7793

 eigenvalue-minimisations  : 19313
 total energy-change (2. order) : 0.6997185E+02  (-0.1776629E+02)
 number of electron     671.9999179 magnetization      47.9999992
 augmentation part      246.5733082 magnetization      32.1504487

 Broyden mixing:
  rms(total) = 0.52990E+01    rms(broyden)= 0.52947E+01
  rms(prec ) = 0.57463E+01
  weight for this iteration     100.00

 eigenvalues of (default mixing * dielectric matrix)
  average eigenvalue GAMMA=   0.7286
  1.1002  0.3570

 Free energy of the ion-electron system (eV)
  ---------------------------------------------------
  alpha Z        PSCENC =      2652.81237852
  Ewald energy   TEWEN  =    -41884.96841290
  -Hartree energ DENC   =    -25674.09049923
  -exchange      EXHF   =         0.00000000
  -V(xc)+E(xc)   XCENC  =      3673.60927489
  PAW double counting   =     63287.76805519   -66770.25450766
  entropy T*S    EENTRO =        -0.00000000
  eigenvalues    EBANDS =    -10063.29900968
  atomic energy  EATOM  =     73862.19814772
  Solvation  Ediel_sol  =         0.00000000
  ---------------------------------------------------
  free energy    TOTEN  =      -916.22457315 eV

  energy without entropy =     -916.22457315  energy(sigma->0) =     -916.22457315


--------------------------------------------------------------------------------------------------------




--------------------------------------- Iteration      1(  15)  ---------------------------------------


    POTLOK:  cpu time    0.1714: real time    0.1715
    SETDIJ:  cpu time    4.9719: real time    4.9823
    EDDIAG:  cpu time    4.4175: real time    4.8351
  RMM-DIIS:  cpu time   18.3196: real time   18.3395
    ORTHCH:  cpu time    1.1536: real time    1.2378
       DOS:  cpu time    0.0016: real time    0.0016
    CHARGE:  cpu time    1.7932: real time    1.7956
    MIXING:  cpu time    0.0014: real time    0.0014
    --------------------------------------------
      LOOP:  cpu time   30.8302: real time   31.3647

 eigenvalue-minimisations  : 20224
 total energy-change (2. order) : 0.1453176E+02  (-0.2233298E+01)
 number of electron     671.9999189 magnetization      47.9999990
 augmentation part      249.6506258 magnetization      33.8022253

 Broyden mixing:
  rms(total) = 0.22804E+01    rms(broyden)= 0.22800E+01
  rms(prec ) = 0.23720E+01
  weight for this iteration     100.00

 eigenvalues of (default mixing * dielectric matrix)
  average eigenvalue GAMMA=   0.9075
  1.6187  0.3837  0.7202

 Free energy of the ion-electron system (eV)
  ---------------------------------------------------
  alpha Z        PSCENC =      2652.81237852
  Ewald energy   TEWEN  =    -41884.96841290
  -Hartree energ DENC   =    -25597.05860655
  -exchange      EXHF   =         0.00000000
  -V(xc)+E(xc)   XCENC  =      3706.71183023
  PAW double counting   =     67351.05004725   -70873.82778131
  entropy T*S    EENTRO =        -0.00000000
  eigenvalues    EBANDS =    -10118.61041638
  atomic energy  EATOM  =     73862.19814772
  Solvation  Ediel_sol  =         0.00000000
  ---------------------------------------------------
  free energy    TOTEN  =      -901.69281342 eV

  energy without entropy =     -901.69281342  energy(sigma->0) =     -901.69281342


--------------------------------------------------------------------------------------------------------




--------------------------------------- Iteration      1(  16)  ---------------------------------------


    POTLOK:  cpu time    0.1674: real time    0.1684
    SETDIJ:  cpu time    5.0204: real time    5.0404
    EDDIAG:  cpu time    4.4231: real time    4.8320
  RMM-DIIS:  cpu time   17.7433: real time   17.7593
    ORTHCH:  cpu time    1.1540: real time    1.2392
       DOS:  cpu time    0.0011: real time    0.0011
    CHARGE:  cpu time    1.8029: real time    1.8309
    MIXING:  cpu time    0.0009: real time    0.0009
    --------------------------------------------
      LOOP:  cpu time   30.3131: real time   30.8723

 eigenvalue-minimisations  : 19216
 total energy-change (2. order) :-0.1276015E+01  (-0.6596248E+00)
 number of electron     671.9999190 magnetization      47.9999990
 augmentation part      251.0481772 magnetization      33.9100684

 Broyden mixing:
  rms(total) = 0.15614E+01    rms(broyden)= 0.15609E+01
  rms(prec ) = 0.16388E+01
  weight for this iteration     100.00

 eigenvalues of (default mixing * dielectric matrix)
  average eigenvalue GAMMA=   0.9613
  2.0741  0.8870  0.3898  0.4941

 Free energy of the ion-electron system (eV)
  ---------------------------------------------------
  alpha Z        PSCENC =      2652.81237852
  Ewald energy   TEWEN  =    -41884.96841290
  -Hartree energ DENC   =    -25548.27910309
  -exchange      EXHF   =         0.00000000
  -V(xc)+E(xc)   XCENC  =      3707.59834287
  PAW double counting   =     70141.61194629   -73692.59199847
  entropy T*S    EENTRO =        -0.00000000
  eigenvalues    EBANDS =    -10141.35012888
  atomic energy  EATOM  =     73862.19814772
  Solvation  Ediel_sol  =         0.00000000
  ---------------------------------------------------
  free energy    TOTEN  =      -902.96882795 eV

  energy without entropy =     -902.96882795  energy(sigma->0) =     -902.96882795


--------------------------------------------------------------------------------------------------------




--------------------------------------- Iteration      1(  17)  ---------------------------------------


    POTLOK:  cpu time    0.1701: real time    0.1716
    SETDIJ:  cpu time    5.0334: real time    5.0367
    EDDIAG:  cpu time    4.4210: real time    4.8261
  RMM-DIIS:  cpu time   18.5173: real time   18.5441
    ORTHCH:  cpu time    1.1761: real time    1.2693
       DOS:  cpu time    0.0019: real time    0.0019
    CHARGE:  cpu time    1.7905: real time    1.7965
    MIXING:  cpu time    0.0021: real time    0.0021
    --------------------------------------------
      LOOP:  cpu time   31.1125: real time   31.6482

 eigenvalue-minimisations  : 20375
 total energy-change (2. order) : 0.5464805E-01  (-0.8582719E-01)
 number of electron     671.9999192 magnetization      47.9999990
 augmentation part      251.1472849 magnetization      33.9118354

 Broyden mixing:
  rms(total) = 0.80897E+00    rms(broyden)= 0.80879E+00
  rms(prec ) = 0.91471E+00
  weight for this iteration     100.00

 eigenvalues of (default mixing * dielectric matrix)
  average eigenvalue GAMMA=   0.9814
  2.2176  1.0970  0.3775  0.6695  0.5454

 Free energy of the ion-electron system (eV)
  ---------------------------------------------------
  alpha Z        PSCENC =      2652.81237852
  Ewald energy   TEWEN  =    -41884.96841290
  -Hartree energ DENC   =    -25535.47550521
  -exchange      EXHF   =         0.00000000
  -V(xc)+E(xc)   XCENC  =      3705.35965776
  PAW double counting   =     71160.93257477   -74721.84059517
  entropy T*S    EENTRO =        -0.00000000
  eigenvalues    EBANDS =    -10141.93242540
  atomic energy  EATOM  =     73862.19814772
  Solvation  Ediel_sol  =         0.00000000
  ---------------------------------------------------
  free energy    TOTEN  =      -902.91417991 eV

  energy without entropy =     -902.91417991  energy(sigma->0) =     -902.91417991


--------------------------------------------------------------------------------------------------------




--------------------------------------- Iteration      1(  18)  ---------------------------------------


    POTLOK:  cpu time    0.1649: real time    0.1655
    SETDIJ:  cpu time    5.0453: real time    5.0477
    EDDIAG:  cpu time    4.4243: real time    4.8239
  RMM-DIIS:  cpu time   18.1217: real time   18.1386
    ORTHCH:  cpu time    1.1618: real time    1.2583
       DOS:  cpu time    0.0013: real time    0.0013
    CHARGE:  cpu time    1.7884: real time    1.7945
    MIXING:  cpu time    0.0011: real time    0.0011
    --------------------------------------------
      LOOP:  cpu time   30.7087: real time   31.2308

 eigenvalue-minimisations  : 19312
 total energy-change (2. order) : 0.4364479E+00  (-0.6940197E-01)
 number of electron     671.9999190 magnetization      47.9999990
 augmentation part      250.6347772 magnetization      33.8787975

 Broyden mixing:
  rms(total) = 0.30116E+00    rms(broyden)= 0.30093E+00
  rms(prec ) = 0.31915E+00
  weight for this iteration     100.00

 eigenvalues of (default mixing * dielectric matrix)
  average eigenvalue GAMMA=   1.0128
  2.4409  1.3629  0.8397  0.5843  0.3797  0.4693

 Free energy of the ion-electron system (eV)
  ---------------------------------------------------
[...]
   4      -0.801    -1.065     1.866     0.104    -0.014     0.077
   5      -0.764    -0.663     1.427    -0.101     0.446     0.248
   6      -0.915    -0.725     1.640     0.122    -0.355     0.202
   7      -0.698    -1.065     1.763     0.089    -0.036     0.018
   8      -0.534    -0.856     1.390    -0.018     0.112     0.372
   9      -0.804    -1.049     1.853     0.188     0.002    -0.007
  10      -0.805    -0.964     1.769     0.150     0.021     0.027
  11      -0.781    -0.571     1.351    -0.104     0.395     0.305
  12      -0.821    -0.691     1.512     0.081     0.371    -0.103
  13      -0.868    -0.641     1.509     0.114     0.425    -0.316
  14      -0.808    -0.508     1.316    -0.033    -0.528    -0.248
  15      -0.577    -0.937     1.514    -0.023    -0.080    -0.421
  16      -0.609    -0.782     1.391    -0.035    -0.110    -0.130
  17       1.570     1.287    -2.857     0.021     0.148    -0.000
  18       1.462     1.529    -2.991     0.163     0.114     0.086
  19       1.359     1.528    -2.887     0.018    -0.065    -0.049
  20       1.518     1.385    -2.903    -0.085    -0.121    -0.088
  21       1.456     1.477    -2.932     0.043    -0.052    -0.006
  22       1.319     1.475    -2.793    -0.206    -0.244    -0.033
  23       1.400     1.507    -2.907    -0.141     0.160     0.045
  24       1.378     1.599    -2.977     0.005     0.187     0.039
  25       0.167     0.335    -0.502     0.109    -0.126    -0.017
  26      -0.640     1.828    -1.187     0.508     0.102    -0.634
  27      -0.072     0.066     0.006    -0.161     0.052    -0.048
  28      -1.535     0.810     0.725    -0.202     0.610    -0.179
  29      -2.066     0.991     1.075     0.649     0.569    -0.576
  30      -1.570     0.018     1.553    -0.302    -0.077     0.183
  31       0.940    -1.119     0.179     0.899    -0.658     1.380
  32       0.113    -0.438     0.325    -0.742     0.309    -0.507
  33      -0.236    -0.006     0.241    -0.717     0.819     0.803
  34      -0.924     0.035     0.890     0.383     1.187    -0.627
  35      -0.105    -1.121     1.225    -0.912     0.157     0.296
  36       0.129    -1.713     1.584     1.320     0.521    -0.137
  37      -0.743    -0.551     1.294    -0.532     0.810     0.104
  38      -1.597     0.191     1.406     0.361    -0.636     0.303
  39       1.033     0.027    -1.061    -1.996    -1.375    -2.064
  40      -1.192     0.703     0.489     0.412    -0.000     0.359
  41      -2.206     1.748     0.458    -5.328     0.590    -3.604
  42      -2.805     3.533    -0.728     5.761     1.857     3.993
  43       7.212    -5.511    -1.700     0.872    -2.736     0.975
  44      -2.724     2.127     0.596     5.227     0.082    -5.193
  45      -3.893     1.332     2.561    -4.817    -2.184     4.658
  46       3.370    -5.549     2.179    -0.030     4.960     2.476
  47      -2.966     2.763     0.203    -5.025     2.819    -3.021
  48       2.815    -5.592     2.777    -1.108    -4.889    -1.141
  49      -5.258     3.997     1.261     4.209     3.807     4.210
  50       3.522    -6.032     2.510    -1.444     4.521     0.381
  51      -3.084     0.898     2.185    -5.778    -1.056     3.710
  52      -2.204     2.941    -0.737     5.488    -1.823    -2.949
  53      -2.027     2.232    -0.205    -4.117     2.948    -4.241
  54      -5.181     4.797     0.384     3.821     1.833     4.847
  55       4.687    -4.983     0.296     0.629    -4.039     0.870
  56      -3.819     4.058    -0.239     4.706    -2.679    -2.326
  57      -4.000     2.695     1.305    -3.831    -1.377     3.554
  58       5.532    -5.654     0.122     0.227     5.174    -1.141
  59      -3.062     0.900     2.162    -5.472     2.520    -3.801
  60       4.628    -5.938     1.310     0.692    -4.782    -0.188
  61      -5.549     3.763     1.786     4.347     1.886     5.444
  62       5.110    -5.635     0.524     1.841     4.322     1.863
  63      -3.257     3.786    -0.529    -5.146    -2.033     4.764
  64      -3.625     2.420     1.204     4.867    -4.510    -3.286
  65      -2.428     1.788     0.639    -4.768     2.587    -5.427
  66      -3.017     2.699     0.318     4.343     2.453     3.376
  67       4.940    -5.113     0.174     0.030    -3.721    -1.560
  68      -2.692     1.702     0.990     4.325    -2.178    -4.531
  69      -4.560     3.082     1.477    -3.196    -2.574     4.004
  70       9.851    -5.672    -4.179     1.766     2.620    -0.237
  71      -4.439     3.248     1.191    -6.210     3.401    -4.009
  72       5.435    -5.860     0.425     2.473    -3.844     0.874
  73      -3.871     3.324     0.547     5.418     4.209     3.715
  74       5.276    -6.208     0.933    -0.471     5.071    -1.562
  75      -3.907     3.488     0.419    -4.072    -2.873     2.302
  76      -4.276     2.787     1.490     3.282    -3.456    -3.485
  77      -2.631     0.196     2.436    -4.320     3.651    -4.075
  78      -1.429     3.600    -2.171     5.231     0.204     3.707
  79       5.867    -5.252    -0.615     2.208    -5.237     1.090
  80      -1.170     2.091    -0.921     6.298    -0.184    -4.949
  81      -3.744     2.214     1.530    -3.953    -3.187     3.947
  82       4.385    -6.108     1.723    -1.793     4.875    -1.229
  83      -2.288     0.804     1.484    -6.015     2.741    -4.152
  84       3.346    -6.242     2.896    -0.011    -3.958    -1.485
  85      -4.518     3.143     1.375     4.136     2.681     3.943
  86       4.726    -6.305     1.579    -0.076     4.590     0.637
  87      -2.783     2.745     0.038    -5.351    -2.773     4.742
  88      -1.641     1.527     0.114     5.365    -2.026    -5.757
 ---------------------------------------------------------------------


 Total hyperfine coupling parameters after diagonalization (MHz)
 (convention: |A_zz| > |A_xx| > |A_yy|)
 ----------------------------------------------------------------------
  ion      A_xx      A_yy      A_zz     asymmetry (A_yy - A_xx)/ A_zz 
 ----------------------------------------------------------------------
   1       2.002     1.622     4.444      -0.086
   2       1.514     1.194     3.506      -0.091
   3       2.750     2.437     4.909      -0.064
   4       1.446     1.108     4.080      -0.083
   5       2.214     1.878     4.352      -0.077
   6       2.230     1.859     4.598      -0.081
   7       0.314    -0.093     2.755      -0.148
   8       1.357     0.975     3.350      -0.114
   9       0.453     0.004     3.009      -0.149
  10      -0.558    -0.220     2.265       0.149
  11       2.233     1.841     4.229      -0.093
  12       1.204     0.939     3.431      -0.077
  13       1.471     1.049     3.691      -0.114
  14       2.113     1.679     4.098      -0.106
  15       2.434     2.000     4.597      -0.094
  16       0.972     0.779     2.982      -0.065
  17      14.135     9.988    14.426      -0.288
  18      15.649    11.324    15.985      -0.271
  19      14.190     9.943    14.362      -0.296
  20      13.533     9.278    13.747      -0.310
  21      14.771    10.415    14.859      -0.293
  22      12.825     8.828    13.256      -0.302
  23      14.106     9.884    14.403      -0.293
  24      15.176    10.804    15.389      -0.284
  25      93.109    92.453    93.372      -0.007
  26      91.418    90.709    94.125      -0.008
  27      93.231    93.068    93.446      -0.002
  28      92.928    90.605    93.378      -0.025
  29     100.022    96.968   100.910      -0.030
  30     100.405    98.731   101.935      -0.016
  31      96.784    93.379    97.079      -0.035
  32      99.012    98.056   100.112      -0.010
  33      97.793    95.629    98.175      -0.022
  34      98.201    96.315    99.634      -0.019
  35      98.764    96.638    99.597      -0.021
  36     100.834    97.744   101.959      -0.030
  37      96.691    95.518    98.474      -0.012
  38      98.140    96.089    99.475      -0.021
  39      93.058    88.101    94.487      -0.052
  40     101.124    99.585   101.887      -0.015
  41       6.055     0.517    13.980      -0.396
  42       5.199     1.615    16.803      -0.213
  43       5.832     1.973    15.916      -0.242
  44       6.660     0.154    15.638      -0.416
  45       7.586     2.564    17.934      -0.280
  46       5.140     0.023    14.535      -0.352
  47       6.142     1.852    15.740      -0.273
  48       5.845     1.116    15.009      -0.315
  49       7.532     1.770    18.533      -0.311
  50       5.844     0.660    14.676      -0.353
  51       5.435    -1.827    13.111      -0.554
  52       5.717     2.163    15.687      -0.227
  53       3.888     2.682    15.263      -0.079
  54       5.405     1.591    17.226      -0.221
  55       4.943     1.357    13.784      -0.260
  56       7.748     2.554    16.581      -0.313
  57       2.793    -1.718    11.015      -0.410
  58       3.023    -0.414    14.319      -0.240
  59       7.552     1.935    17.025      -0.330
  60       6.569     2.660    16.710      -0.234
  61       5.652     0.786    17.735      -0.274
  62       7.147     2.926    17.303      -0.244
  63       7.048     4.232    19.490      -0.145
  64       7.459     1.774    17.690      -0.321
  65       3.651     1.280    16.128      -0.147
  66       4.409     0.989    13.870      -0.247
  67       4.664     0.399    13.071      -0.326
  68       4.242     1.369    14.740      -0.195
  69       7.991     3.865    17.527      -0.235
  70       4.652     3.035    19.597      -0.083
  71       6.653     0.389    18.241      -0.343
  72       4.914    -0.956    13.607      -0.431
  73       6.665     1.258    18.111      -0.299
  74       3.486    -0.935    14.365      -0.308
  75       4.993    -0.457    12.735      -0.428
  76       4.596    -0.272    13.530      -0.360
  77       3.079    -0.222    13.958      -0.236
  78       5.901     2.150    15.962      -0.235
  79       3.157    -1.283    14.325      -0.310
  80       7.607     1.247    17.546      -0.362
  81      -2.504     1.378    11.466       0.339
  82       5.543     1.104    15.971      -0.278
  83       5.954     0.829    16.629      -0.308
  84       6.723     0.836    14.523      -0.405
  85       6.081     1.365    16.016      -0.294
  86       5.874     1.128    15.518      -0.306
  87       2.990     0.172    15.488      -0.182
  88       4.494     0.767    16.603      -0.224
 ---------------------------------------------------------------------



--------------------------------------------------------------------------------------------------------


 stress matrix after NEB project (eV)
    -44.29427     -3.52577     -7.89833
     -3.52143    -45.91351     -1.59443
     -7.88433     -1.61926    -57.04003
  FORCES: max atom, RMS     2.463780    1.089159
  FORCE total and by dimension   10.217214    2.147954
  Stress total and by dimension   86.476241   57.040029
     LOOP+:  cpu time  872.2128: real time  889.4882
    4ORBIT:  cpu time    0.0000: real time    0.0000
 


 total charge     
 
# of ion       s       p       d       tot
------------------------------------------
    1        0.049   5.991   0.000   6.040
    2        0.048   5.990   0.000   6.039
    3        0.051   5.993   0.000   6.044
    4        0.058   6.005   0.000   6.063
    5        0.050   5.990   0.000   6.039
    6        0.051   5.993   0.000   6.044
    7        0.055   6.001   0.000   6.056
    8        0.056   6.001   0.000   6.058
    9        0.053   5.997   0.000   6.050
   10        0.052   5.996   0.000   6.048
   11        0.051   5.994   0.000   6.045
   12        0.052   5.996   0.000   6.048
   13        0.048   5.991   0.000   6.039
   14        0.052   5.994   0.000   6.046
   15        0.050   5.992   0.000   6.042
   16        0.049   5.992   0.000   6.041
   17        0.146   6.122   0.079   6.347
   18        0.150   6.131   0.087   6.367
   19        0.150   6.129   0.085   6.364
   20        0.151   6.131   0.085   6.367
   21        0.148   6.127   0.083   6.357
   22        0.143   6.117   0.075   6.335
   23        0.148   6.127   0.083   6.358
   24        0.152   6.133   0.088   6.374
   25        0.388   6.482   4.858  11.728
   26        0.391   6.485   4.865  11.740
   27        0.393   6.493   4.867  11.753
   28        0.388   6.481   4.852  11.720
   29        0.376   6.455   4.831  11.661
   30        0.368   6.439   4.813  11.620
   31        0.381   6.463   4.848  11.693
   32        0.363   6.429   4.804  11.596
   33        0.371   6.442   4.822  11.635
   34        0.362   6.426   4.804  11.593
   35        0.379   6.463   4.838  11.680
   36        0.353   6.405   4.785  11.543
   37        0.384   6.472   4.846  11.701
   38        0.372   6.447   4.823  11.642
   39        0.388   6.480   4.858  11.726
   40        0.364   6.432   4.807  11.603
   41        1.598   3.523   0.000   5.122
   42        1.601   3.521   0.000   5.122
   43        1.603   3.506   0.000   5.109
   44        1.601   3.516   0.000   5.117
   45        1.601   3.536   0.000   5.137
   46        1.598   3.490   0.000   5.088
   47        1.598   3.494   0.000   5.093
   48        1.598   3.510   0.000   5.108
   49        1.600   3.494   0.000   5.094
   50        1.599   3.528   0.000   5.127
   51        1.597   3.493   0.000   5.089
   52        1.600   3.501   0.000   5.101
   53        1.597   3.497   0.000   5.095
   54        1.600   3.480   0.000   5.080
   55        1.598   3.512   0.000   5.111
   56        1.600   3.528   0.000   5.128
   57        1.597   3.520   0.000   5.117
   58        1.600   3.505   0.000   5.105
   59        1.599   3.538   0.000   5.137
   60        1.599   3.496   0.000   5.095
   61        1.604   3.518   0.000   5.122
   62        1.600   3.516   0.000   5.115
   63        1.603   3.501   0.000   5.104
   64        1.598   3.479   0.000   5.077
   65        1.598   3.475   0.000   5.074
   66        1.597   3.523   0.000   5.120
   67        1.595   3.507   0.000   5.102
   68        1.598   3.488   0.000   5.086
   69        1.599   3.490   0.000   5.088
   70        1.603   3.464   0.000   5.067
   71        1.601   3.508   0.000   5.109
   72        1.599   3.505   0.000   5.104
   73        1.603   3.505   0.000   5.108
   74        1.598   3.495   0.000   5.093
   75        1.598   3.545   0.000   5.143
   76        1.594   3.496   0.000   5.089
   77        1.599   3.524   0.000   5.123
   78        1.600   3.507   0.000   5.106
   79        1.600   3.465   0.000   5.065
   80        1.601   3.504   0.000   5.105
   81        1.599   3.514   0.000   5.113
   82        1.597   3.498   0.000   5.095
   83        1.599   3.515   0.000   5.114
   84        1.597   3.526   0.000   5.124
   85        1.596   3.503   0.000   5.099
   86        1.598   3.531   0.000   5.129
   87        1.599   3.486   0.000   5.084
   88        1.603   3.489   0.000   5.092
--------------------------------------------------
tot         84.794 416.493  77.985 579.272
 


 magnetization (x)
 
# of ion       s       p       d       tot
------------------------------------------
    1        0.002   0.000   0.000   0.002
    2        0.002   0.000   0.000   0.002
    3        0.002   0.001   0.000   0.003
    4        0.001   0.001   0.000   0.002
    5        0.002   0.000   0.000   0.002
    6        0.002   0.000   0.000   0.002
    7        0.001   0.000   0.000   0.001
    8        0.001   0.000   0.000   0.002
    9        0.001   0.000   0.000   0.001
   10        0.000  -0.000   0.000   0.000
   11        0.002   0.000   0.000   0.002
   12        0.001   0.000   0.000   0.001
   13        0.002   0.000   0.000   0.002
   14        0.002   0.000   0.000   0.002
   15        0.002   0.001   0.000   0.003
   16        0.001   0.001   0.000   0.002
   17        0.007   0.002   0.001   0.010
   18        0.008   0.003   0.001   0.012
   19        0.007   0.002   0.001   0.010
   20        0.007   0.002   0.001   0.009
   21        0.007   0.002   0.001   0.011
   22        0.007   0.002   0.001   0.009
   23        0.007   0.002   0.001   0.011
   24        0.008   0.003   0.002   0.013
   25        0.015   0.030   2.725   2.770
   26        0.014   0.030   2.712   2.756
   27        0.015   0.030   2.721   2.766
   28        0.014   0.030   2.725   2.768
   29        0.016   0.030   2.763   2.810
   30        0.016   0.030   2.771   2.817
   31        0.015   0.029   2.739   2.783
   32        0.016   0.030   2.785   2.831
   33        0.015   0.030   2.767   2.812
   34        0.015   0.029   2.782   2.826
   35        0.016   0.030   2.753   2.799
   36        0.016   0.030   2.811   2.857
   37        0.016   0.031   2.741   2.787
   38        0.015   0.030   2.762   2.808
   39        0.014   0.030   2.719   2.763
   40        0.017   0.031   2.784   2.831
   41        0.002   0.037   0.000   0.038
   42        0.002   0.046   0.000   0.048
   43        0.002   0.024   0.000   0.026
   44        0.002   0.034   0.000   0.036
   45        0.002   0.055   0.000   0.057
   46        0.002   0.027   0.000   0.029
   47        0.002   0.035   0.000   0.037
   48        0.002   0.036   0.000   0.038
   49        0.002   0.052   0.000   0.055
   50        0.002   0.040   0.000   0.042
   51        0.002   0.017   0.000   0.019
   52        0.002   0.035   0.000   0.037
   53        0.002   0.025   0.000   0.027
   54        0.002   0.034   0.000   0.036
   55        0.002   0.022   0.000   0.024
   56        0.002   0.046   0.000   0.048
   57        0.001   0.022   0.000   0.023
   58        0.002   0.022   0.000   0.023
   59        0.002   0.050   0.000   0.052
   60        0.002   0.042   0.000   0.044
   61        0.002   0.047   0.000   0.049
   62        0.002   0.051   0.000   0.053
   63        0.003   0.048   0.000   0.051
   64        0.002   0.042   0.000   0.044
   65        0.002   0.021   0.000   0.023
   66        0.002   0.027   0.000   0.028
   67        0.002   0.020   0.000   0.022
   68        0.002   0.028   0.000   0.030
   69        0.002   0.051   0.000   0.053
   70        0.003   0.029   0.000   0.031
   71        0.002   0.044   0.000   0.046
   72        0.002   0.021   0.000   0.023
   73        0.002   0.041   0.000   0.043
   74        0.002   0.023   0.000   0.024
   75        0.001   0.033   0.000   0.034
   76        0.002   0.022   0.000   0.024
   77        0.002   0.026   0.000   0.028
   78        0.002   0.030   0.000   0.033
   79        0.002   0.005   0.000   0.006
   80        0.002   0.042   0.000   0.044
   81        0.001  -0.000   0.000   0.001
   82        0.002   0.027   0.000   0.029
   83        0.002   0.038   0.000   0.040
   84        0.002   0.040   0.000   0.042
   85        0.002   0.036   0.000   0.038
   86        0.002   0.042   0.000   0.043
   87        0.002   0.016   0.000   0.017
   88        0.002   0.026   0.000   0.029
--------------------------------------------------
tot          0.422   2.079  44.070  46.571
 

 total amount of memory used by VASP MPI-rank0    94442. kBytes
=======================================================================

   base      :      30000. kBytes
   nonlr-proj:      13683. kBytes
   fftplans  :       1275. kBytes
   grid      :      22786. kBytes
   one-center:       2737. kBytes
   wavefun   :      23961. kBytes
 
  
  
 General timing and accounting informations for this job:
 ========================================================
  
                  Total CPU time used (sec):      893.360
                            User time (sec):      884.110
                          System time (sec):        9.251
                         Elapsed time (sec):      913.216
  
                   Maximum memory used (kb):      195468.
                   Average memory used (kb):           0.
  
                          Minor page faults:       314353
                          Major page faults:            0
                 Voluntary context switches:       303942
