 vasp.5.4.4.18Apr17-6-g9f103f2a35 (build Dec 02 2020 12:53:39) complex          
  
 executed on             LinuxIFC date 2021.07.31  01:46:02
 running on  112 total cores
 distrk:  each k-point on  112 cores,    1 groups
 distr:  one band on NCORES_PER_BAND=   1 cores,  112 groups


--------------------------------------------------------------------------------------------------------


 INCAR:
 POTCAR:    PAW_PBE Na_pv 19Sep2006               
 POTCAR:    PAW_PBE Mg_pv 13Apr2007               
 POTCAR:    PAW_PBE Mn_pv 02Aug2007               
 POTCAR:    PAW_PBE O 08Apr2002                   

 ----------------------------------------------------------------------------- 
|                                                                             |
|           W    W    AA    RRRRR   N    N  II  N    N   GGGG   !!!           |
|           W    W   A  A   R    R  NN   N  II  NN   N  G    G  !!!           |
|           W    W  A    A  R    R  N N  N  II  N N  N  G       !!!           |
|           W WW W  AAAAAA  RRRRR   N  N N  II  N  N N  G  GGG   !            |
|           WW  WW  A    A  R   R   N   NN  II  N   NN  G    G                |
|           W    W  A    A  R    R  N    N  II  N    N   GGGG   !!!           |
|                                                                             |
|      For optimal performance we recommend to set                            |
|        NCORE= 4 - approx SQRT( number of cores)                             |
|      NCORE specifies how many cores store one orbital (NPAR=cpu/NCORE).     |
|      This setting can  greatly improve the performance of VASP for DFT.     |
|      The default,   NCORE=1            might be grossly inefficient         |
|      on modern multi-core architectures or massively parallel machines.     |
|      Do your own testing !!!!                                               |
|      Unfortunately you need to use the default for GW and RPA calculations. |
|      (for HF NCORE is supported but not extensively tested yet)             |
|                                                                             |
 ----------------------------------------------------------------------------- 

 POTCAR:    PAW_PBE Na_pv 19Sep2006               
   VRHFIN =Na: p6s1                                                             
   LEXCH  = PE                                                                  
   EATOM  =   766.0439 eV,   56.3026 Ry                                         
                                                                                
   TITEL  = PAW_PBE Na_pv 19Sep2006                                             
   LULTRA =        F    use ultrasoft PP ?                                      
   IUNSCR =        1    unscreen: 0-lin 1-nonlin 2-no                           
   RPACOR =    1.800    partial core radius                                     
   POMASS =   22.990; ZVAL   =    7.000    mass and valenz                      
   RCORE  =    2.200    outmost cutoff radius                                   
   RWIGS  =    2.200; RWIGS  =    1.164    wigner-seitz radius (au A)           
   ENMAX  =  259.561; ENMIN  =  194.671 eV                                      
   ICORE  =        2    local potential                                         
   LCOR   =        T    correct aug charges                                     
   LPAW   =        T    paw PP                                                  
   EAUG   =  368.056                                                            
   DEXC   =    0.000                                                            
   RMAX   =    2.245    core radius for proj-oper                               
   RAUG   =    1.300    factor for augmentation sphere                          
   RDEP   =    2.259    radius for radial grids                                 
   RDEPT  =    1.738    core radius for aug-charge                              
                                                                                
   Atomic configuration                                                         
    5 entries                                                                   
     n  l   j            E        occ.                                          
     1  0  0.50     -1033.6933   2.0000                                         
     2  0  0.50       -56.7526   2.0000                                         
     2  1  1.50       -28.6721   6.0000                                         
     3  0  0.50        -2.7440   1.0000                                         
     3  2  1.50        -1.3606   0.0000                                         
   Description                                                                  
     l       E           TYP  RCUT    TYP  RCUT                                 
     1    -28.6720912     23  2.000                                             
     1      6.8029130     23  2.000                                             
     0     -2.7439560     23  2.200                                             
     0     34.0145650     23  2.200                                             
     2     -1.3605826     23  2.200                                             
  local pseudopotential read in
  partial core-charges read in
  partial kinetic energy density read in
  atomic valenz-charges read in
  non local Contribution for L=           1  read in
    real space projection operators read in
  non local Contribution for L=           1  read in
    real space projection operators read in
  non local Contribution for L=           0  read in
    real space projection operators read in
  non local Contribution for L=           0  read in
    real space projection operators read in
    PAW grid and wavefunctions read in
 
   number of l-projection  operators is LMAX  =           4
   number of lm-projection operators is LMMAX =           8
 
 POTCAR:    PAW_PBE Mg_pv 13Apr2007               
   VRHFIN =Mg: p6s2                                                             
   LEXCH  = PE                                                                  
   EATOM  =  1056.7344 eV,   77.6678 Ry                                         
                                                                                
   TITEL  = PAW_PBE Mg_pv 13Apr2007                                             
   LULTRA =        F    use ultrasoft PP ?                                      
   IUNSCR =        1    unscreen: 0-lin 1-nonlin 2-no                           
   RPACOR =    1.500    partial core radius                                     
   POMASS =   24.305; ZVAL   =    8.000    mass and valenz                      
   RCORE  =    2.000    outmost cutoff radius                                   
   RWIGS  =    2.000; RWIGS  =    1.058    wigner-seitz radius (au A)           
   ENMAX  =  403.929; ENMIN  =  302.947 eV                                      
   RCLOC  =    1.506    cutoff for local pot                                    
   LCOR   =        T    correct aug charges                                     
   LPAW   =        T    paw PP                                                  
   EAUG   =  758.780                                                            
   DEXC   =    0.000                                                            
   RMAX   =    2.045    core radius for proj-oper                               
   RAUG   =    1.300    factor for augmentation sphere                          
   RDEP   =    2.025    radius for radial grids                                 
   RDEPT  =    1.557    core radius for aug-charge                              
                                                                                
   Atomic configuration                                                         
    5 entries                                                                   
     n  l   j            E        occ.                                          
     1  0  0.50     -1259.6230   2.0000                                         
     2  0  0.50       -79.8442   2.0000                                         
     2  1  1.50       -46.6121   6.0000                                         
     3  0  0.50        -4.7055   2.0000                                         
     3  2  1.50        -1.3606   0.0000                                         
   Description                                                                  
     l       E           TYP  RCUT    TYP  RCUT                                 
     1    -46.6121073     23  1.600                                             
     1      2.7211652     23  1.600                                             
     0     -4.7054661     23  2.000                                             
     0     61.2262170     23  2.000                                             
     2     -1.3605826     23  2.000                                             
  local pseudopotential read in
  partial core-charges read in
  partial kinetic energy density read in
  atomic valenz-charges read in
  non local Contribution for L=           1  read in
    real space projection operators read in
  non local Contribution for L=           1  read in
    real space projection operators read in
  non local Contribution for L=           0  read in
    real space projection operators read in
  non local Contribution for L=           0  read in
    real space projection operators read in
  non local Contribution for L=           2  read in
    real space projection operators read in
    PAW grid and wavefunctions read in
 
   number of l-projection  operators is LMAX  =           5
   number of lm-projection operators is LMMAX =          13
 
 POTCAR:    PAW_PBE Mn_pv 02Aug2007               
   VRHFIN =Mn: 3p4s3d                                                           
   LEXCH  = PE                                                                  
   EATOM  =  2025.2664 eV,  148.8529 Ry                                         
                                                                                
   TITEL  = PAW_PBE Mn_pv 02Aug2007                                             
   LULTRA =        F    use ultrasoft PP ?                                      
   IUNSCR =        1    unscreen: 0-lin 1-nonlin 2-no                           
   RPACOR =    2.080    partial core radius                                     
   POMASS =   54.938; ZVAL   =   13.000    mass and valenz                      
   RCORE  =    2.300    outmost cutoff radius                                   
   RWIGS  =    2.500; RWIGS  =    1.323    wigner-seitz radius (au A)           
   ENMAX  =  269.864; ENMIN  =  202.398 eV                                      
   ICORE  =        3    local potential                                         
   LCOR   =        T    correct aug charges                                     
   LPAW   =        T    paw PP                                                  
   EAUG   =  569.085                                                            
   DEXC   =    0.000                                                            
   RMAX   =    2.343    core radius for proj-oper                               
   RAUG   =    1.300    factor for augmentation sphere                          
   RDEP   =    2.338    radius for radial grids                                 
   RDEPT  =    1.798    core radius for aug-charge                              
                                                                                
   Atomic configuration                                                         
    8 entries                                                                   
     n  l   j            E        occ.                                          
     1  0  0.50     -6424.8287   2.0000                                         
     2  0  0.50      -739.1154   2.0000                                         
     2  1  1.50      -625.3949   6.0000                                         
     3  0  0.50       -81.6100   2.0000                                         
     3  1  1.50       -50.4667   6.0000                                         
     3  2  2.50        -3.3745   6.0000                                         
     4  0  0.50        -4.1331   1.0000                                         
     4  3  2.50        -1.3606   0.0000                                         
   Description                                                                  
     l       E           TYP  RCUT    TYP  RCUT                                 
     1    -50.4666628     23  2.000                                             
     1     -1.3605826     23  2.000                                             
     2     -3.3744729     23  2.300                                             
     2     -4.7350555     23  2.300                                             
     0     -4.1331431     23  2.300                                             
     0      7.6656591     23  2.300                                             
     3      9.5240782     23  2.300                                             
  local pseudopotential read in
  partial core-charges read in
  partial kinetic energy density read in
  atomic valenz-charges read in
  non local Contribution for L=           1  read in
    real space projection operators read in
  non local Contribution for L=           1  read in
    real space projection operators read in
  non local Contribution for L=           2  read in
    real space projection operators read in
  non local Contribution for L=           2  read in
    real space projection operators read in
  non local Contribution for L=           0  read in
    real space projection operators read in
  non local Contribution for L=           0  read in
    real space projection operators read in
    PAW grid and wavefunctions read in
 
   number of l-projection  operators is LMAX  =           6
   number of lm-projection operators is LMMAX =          18
 
 POTCAR:    PAW_PBE O 08Apr2002                   
   VRHFIN =O: s2p4                                                              
   LEXCH  = PE                                                                  
   EATOM  =   432.3788 eV,   31.7789 Ry                                         
                                                                                
   TITEL  = PAW_PBE O 08Apr2002                                                 
   LULTRA =        F    use ultrasoft PP ?                                      
   IUNSCR =        1    unscreen: 0-lin 1-nonlin 2-no                           
   RPACOR =    1.200    partial core radius                                     
   POMASS =   16.000; ZVAL   =    6.000    mass and valenz                      
   RCORE  =    1.520    outmost cutoff radius                                   
   RWIGS  =    1.550; RWIGS  =    0.820    wigner-seitz radius (au A)           
   ENMAX  =  400.000; ENMIN  =  300.000 eV                                      
   ICORE  =        2    local potential                                         
   LCOR   =        T    correct aug charges                                     
   LPAW   =        T    paw PP                                                  
   EAUG   =  605.392                                                            
   DEXC   =    0.000                                                            
   RMAX   =    1.553    core radius for proj-oper                               
   RAUG   =    1.300    factor for augmentation sphere                          
   RDEP   =    1.550    radius for radial grids                                 
   RDEPT  =    1.329    core radius for aug-charge                              
                                                                                
   Atomic configuration                                                         
    4 entries                                                                   
     n  l   j            E        occ.                                          
     1  0  0.50      -514.6923   2.0000                                         
     2  0  0.50       -23.9615   2.0000                                         
     2  1  0.50        -9.0305   4.0000                                         
     3  2  1.50        -9.5241   0.0000                                         
   Description                                                                  
     l       E           TYP  RCUT    TYP  RCUT                                 
     0    -23.9615318     23  1.200                                             
     0     -9.5240782     23  1.200                                             
     1     -9.0304911     23  1.520                                             
     1      8.1634956     23  1.520                                             
     2     -9.5240782      7  1.500                                             
  local pseudopotential read in
  partial core-charges read in
  partial kinetic energy density read in
  kinetic energy density of atom read in
  atomic valenz-charges read in
  non local Contribution for L=           0  read in
    real space projection operators read in
  non local Contribution for L=           0  read in
    real space projection operators read in
  non local Contribution for L=           1  read in
    real space projection operators read in
  non local Contribution for L=           1  read in
    real space projection operators read in
    PAW grid and wavefunctions read in
 
   number of l-projection  operators is LMAX  =           4
   number of lm-projection operators is LMMAX =           8
 
 Optimization of the real space projectors (new method)

 maximal supplied QI-value         = 17.01
 optimisation between [QCUT,QGAM] = [ 10.20, 20.41] = [ 29.16,116.64] Ry 
 Optimized for a Real-space Cutoff    1.30 Angstroem

   l    n(q)    QCUT    max X(q) W(low)/X(q) W(high)/X(q)  e(spline) 
   1      7    10.205     4.940    0.23E-03    0.84E-03    0.11E-06
   1      7    10.205     6.253    0.40E-03    0.13E-02    0.18E-06
   0      8    10.205    37.438    0.23E-03    0.37E-03    0.42E-07
   0      8    10.205     9.606    0.16E-03    0.26E-03    0.31E-07
 Optimization of the real space projectors (new method)

 maximal supplied QI-value         = 18.90
 optimisation between [QCUT,QGAM] = [ 10.20, 20.41] = [ 29.16,116.64] Ry 
 Optimized for a Real-space Cutoff    1.26 Angstroem

   l    n(q)    QCUT    max X(q) W(low)/X(q) W(high)/X(q)  e(spline) 
   1      7    10.205     2.974    0.63E-04    0.14E-03    0.13E-06
   1      7    10.205     4.279    0.11E-03    0.45E-03    0.24E-06
   0      8    10.205    16.381    0.44E-03    0.15E-03    0.55E-07
   0      8    10.205     5.611    0.31E-03    0.11E-03    0.40E-07
   2      7    10.205     4.652    0.50E-03    0.47E-03    0.57E-07
 Optimization of the real space projectors (new method)

 maximal supplied QI-value         = 16.25
 optimisation between [QCUT,QGAM] = [ 10.24, 20.48] = [ 29.35,117.42] Ry 
 Optimized for a Real-space Cutoff    1.34 Angstroem

   l    n(q)    QCUT    max X(q) W(low)/X(q) W(high)/X(q)  e(spline) 
   1      8    10.239     3.658    0.23E-03    0.30E-03    0.98E-07
   1      8    10.239     5.612    0.32E-03    0.65E-03    0.21E-06
   2      7    10.239    55.373    0.42E-03    0.45E-03    0.65E-07
   2      7    10.239    50.863    0.43E-03    0.48E-03    0.67E-07
   0      8    10.239    79.536    0.11E-03    0.21E-03    0.56E-07
   0      8    10.239    38.668    0.96E-04    0.19E-03    0.52E-07
 Optimization of the real space projectors (new method)

 maximal supplied QI-value         = 24.76
 optimisation between [QCUT,QGAM] = [ 10.15, 20.30] = [ 28.85,115.39] Ry 
 Optimized for a Real-space Cutoff    1.38 Angstroem

   l    n(q)    QCUT    max X(q) W(low)/X(q) W(high)/X(q)  e(spline) 
   0      8    10.150    20.381    0.22E-03    0.32E-03    0.29E-06
   0      8    10.150    15.268    0.23E-03    0.35E-03    0.30E-06
   1      8    10.150     5.964    0.46E-03    0.53E-03    0.21E-06
   1      8    10.150     5.382    0.38E-03    0.45E-03    0.19E-06
  PAW_PBE Na_pv 19Sep2006               :
 energy of atom  1       EATOM= -766.0439
 kinetic energy error for atom=    0.0103 (will be added to EATOM!!)
  PAW_PBE Mg_pv 13Apr2007               :
 energy of atom  2       EATOM=-1056.7344
 kinetic energy error for atom=    0.0820 (will be added to EATOM!!)
  PAW_PBE Mn_pv 02Aug2007               :
 energy of atom  3       EATOM=-2025.2664
 kinetic energy error for atom=    0.0284 (will be added to EATOM!!)
  PAW_PBE O 08Apr2002                   :
 energy of atom  4       EATOM= -432.3788
 kinetic energy error for atom=    0.1156 (will be added to EATOM!!)
 
 
 POSCAR: Na Mg Mn  O                             
  positions in cartesian coordinates
  No initial velocities read in

 METAGGA = SCAN     LMAXTAU =  6    LMIXTAU =  F

 exchange correlation table for  LEXCH =        8
   RHO(1)=    0.500       N(1)  =     2000
   RHO(2)=  100.500       N(2)  =     4000

 VTST: version 3.2, (02/03/18)

 CHAIN: initializing optimizer
 
 OPT: Using VASP Dynamics algorithm
 CHAIN: Read ICHAIN            0
 
 POSCAR: Na Mg Mn  O                             
  positions in cartesian coordinates
  No initial velocities read in
 


--------------------------------------------------------------------------------------------------------


 ion  position               nearest neighbor table
   1  0.369  0.806  0.251-  51 2.27  79 2.35   9 2.76
   2  0.875  0.978  0.767-  61 2.19  72 2.26  59 2.37  12 2.72
   3  0.584  0.302  0.752-  68 2.23  49 2.32  71 2.34
   4  0.008  0.432  0.747-  57 2.12  60 2.25  39 2.83  37 2.89
   5  0.022  0.947  0.240-  67 2.23  54 2.36  25 2.79  27 2.93
   6  0.581  0.509  0.255-  74 2.15  65 2.27  35 2.92  33 2.95
   7  0.536  0.962  0.753-  84 2.24  59 2.37  46 2.37  29 2.74  31 2.85
   8  0.361  0.474  0.742-  80 2.25  85 2.34  45 2.36  82 2.37
   9  0.051  0.655  0.258-  76 2.25  86 2.28   1 2.76
  10  0.212  0.351  0.246-  64 2.32  78 2.32  55 2.32
  11  0.416  0.172  0.261-  52 2.25  43 2.29
  12  0.723  0.665  0.749-  69 2.21  72 2.28  82 2.36   2 2.72
  13  0.152  0.791  0.764-  47 2.30  73 2.31
  14  0.243  0.134  0.742-  45 2.21  47 2.22  48 2.32  44 2.35  58 2.37
  15  0.871  0.306  0.237-  55 2.26  66 2.34  53 2.35
  16  0.700  0.952  0.240-  88 2.29  54 2.31  79 2.35  53 2.38
  17  0.707  0.302  0.007-  60 1.97  53 2.00  49 2.05  66 2.10  43 2.12  71 2.17  30 2.78  29 2.82

  18  0.368  0.127  0.519-  44 1.96  45 1.98  46 2.00  52 2.16  51 2.17  50 2.22  32 2.78  36 2.82

  19  0.208  0.319  0.988-  83 1.89  61 2.04  55 2.08  48 2.10  78 2.16  41 2.22  37 2.73  38 2.82

  20  0.882  0.128  0.499-  64 2.01  63 2.04  56 2.10  57 2.12  58 2.15  62 2.17  27 2.80  32 2.85

  21  0.209  0.814  0.004-  77 2.02  84 2.02  42 2.03  67 2.10  47 2.10  73 2.13  29 2.79
  22  0.881  0.632  0.505-  75 2.00  69 2.00  70 2.01  68 2.05  74 2.07  76 2.12
  23  0.701  0.811  0.004-  59 2.00  79 2.02  65 2.05  54 2.12  72 2.12  85 2.19
  24  0.374  0.629  0.501-  80 1.95  82 2.03  81 2.04  87 2.06  86 2.07  88 2.15  40 2.80  39 2.82

  25  0.040  0.979  0.993-  61 1.89  47 1.90  67 1.91  72 1.94  54 2.04  41 2.07   5 2.79  26 2.89
                            30 2.91  34 3.01
  26  0.373  0.145  0.996-  43 1.88  49 1.89  41 1.89  48 1.91  47 2.01  42 2.02  29 2.82  33 2.87
                            25 2.89
  27  0.039  0.962  0.501-  50 1.88  63 1.90  44 1.90  76 1.94  58 1.98  69 2.02  20 2.80  32 2.85
                            36 2.89   5 2.93  40 2.97
  28  0.713  0.297  0.503-  75 1.88  62 1.91  57 1.92  52 1.94  68 1.96  46 2.00  31 2.87  39 2.91
                            35 2.93
  29  0.531  0.978  0.997-  49 1.84  42 1.88  84 1.91  59 1.96  53 1.97  79 2.06   7 2.74  21 2.79
                            17 2.82  26 2.82  38 2.90  30 2.93
  30  0.869  0.145  0.000-  54 1.87  53 1.88  60 1.90  59 1.93  61 2.01  55 2.02  17 2.78  37 2.88
                            25 2.91  29 2.93
  31  0.549  0.966  0.500-  46 1.86  81 1.91  56 1.94  88 1.99  62 1.99  51 2.00   7 2.85  28 2.87
                            40 2.87  36 2.90
  32  0.211  0.290  0.509-  58 1.88  50 1.91  64 1.91  80 1.95  87 1.96  45 1.98  18 2.78  27 2.85
                            20 2.85  35 2.91  39 2.95
  33  0.544  0.476  0.994-  65 1.89  43 1.90  71 1.92  85 2.01  48 2.01  78 2.02  34 2.82  26 2.87
                             6 2.95  38 2.96
  34  0.869  0.633  0.994-  71 1.85  73 1.86  67 1.91  65 1.91  66 1.95  72 2.04  33 2.82  37 2.94
                            25 3.01
  35  0.546  0.468  0.512-  74 1.85  82 1.88  52 1.90  68 1.92  87 1.92  45 1.93  40 2.74  32 2.91
                             6 2.92  28 2.93
  36  0.214  0.804  0.493-  51 1.83  76 1.87  81 1.89  44 1.94  70 1.97  86 2.00  18 2.82  27 2.89
                            31 2.90  39 2.93
  37  0.050  0.476  0.002-  73 1.83  55 1.86  77 1.89  83 1.92  60 1.96  66 1.98  19 2.73  38 2.79
                            30 2.88   4 2.89  34 2.94
  38  0.371  0.644  0.989-  85 1.82  83 1.88  79 1.92  84 2.00  78 2.02  77 2.03  37 2.79  19 2.82
                            29 2.90  33 2.96
  39  0.049  0.467  0.498-  70 1.87  57 1.90  80 1.92  64 1.93  86 1.94  75 2.03  24 2.82   4 2.83
                            28 2.91  36 2.93  32 2.95
  40  0.696  0.783  0.504-  82 1.84  56 1.86  69 1.87  74 1.89  88 1.94  63 2.02  35 2.74  24 2.80
                            31 2.87  27 2.97
  41  0.219  0.140  0.096-  26 1.89  25 2.07  19 2.22
  42  0.385  0.985  0.098-  29 1.88  26 2.02  21 2.03
  43  0.520  0.308  0.089-  26 1.88  33 1.90  17 2.12  11 2.29
  44  0.191  0.950  0.594-  27 1.90  36 1.94  18 1.96  14 2.35
  45  0.384  0.307  0.606-  35 1.93  18 1.98  32 1.98  14 2.21   8 2.36
  46  0.546  0.119  0.592-  31 1.86  18 2.00  28 2.00   7 2.37
  47  0.199  0.982  0.899-  25 1.90  26 2.01  21 2.10  14 2.22  13 2.30
  48  0.382  0.303  0.895-  26 1.91  33 2.01  19 2.10  14 2.32
  49  0.529  0.133  0.910-  29 1.84  26 1.89  17 2.05   3 2.32
  50  0.185  0.126  0.407-  27 1.88  32 1.91  18 2.22
  51  0.374  0.954  0.406-  36 1.83  31 2.00  18 2.17   1 2.27
  52  0.552  0.313  0.420-  35 1.90  28 1.94  18 2.16  11 2.25
  53  0.706  0.128  0.094-  30 1.88  29 1.97  17 2.00  15 2.35  16 2.38
  54  0.882  0.999  0.096-  30 1.87  25 2.04  23 2.12  16 2.31   5 2.36
  55  0.038  0.318  0.096-  37 1.86  30 2.02  19 2.08  15 2.26  10 2.32
  56  0.701  0.944  0.591-  40 1.86  31 1.94  20 2.10
  57  0.885  0.314  0.591-  39 1.90  28 1.92  20 2.12   4 2.12
  58  0.063  0.132  0.606-  32 1.88  27 1.98  20 2.15  14 2.37
  59  0.703  0.981  0.910-  30 1.93  29 1.96  23 2.00   7 2.37   2 2.37
  60  0.878  0.311  0.914-  30 1.90  37 1.96  17 1.97   4 2.25
  61  0.032  0.135  0.902-  25 1.89  30 2.01  19 2.04   2 2.19
  62  0.703  0.140  0.401-  28 1.91  31 1.99  20 2.17
  63  0.873  0.947  0.409-  27 1.90  40 2.02  20 2.04
  64  0.060  0.305  0.414-  32 1.91  39 1.93  20 2.01  10 2.32
  65  0.707  0.630  0.085-  33 1.89  34 1.91  23 2.05   6 2.27
  66  0.889  0.487  0.096-  34 1.95  37 1.98  17 2.10  15 2.34
  67  0.016  0.807  0.083-  25 1.91  34 1.91  21 2.10   5 2.23
  68  0.706  0.457  0.599-  35 1.92  28 1.96  22 2.05   3 2.23
  69  0.860  0.795  0.592-  40 1.87  22 2.00  27 2.02  12 2.21
  70  0.058  0.629  0.587-  39 1.87  36 1.97  22 2.01
  71  0.710  0.486  0.902-  34 1.85  33 1.92  17 2.17   3 2.34
  72  0.879  0.812  0.901-  25 1.94  34 2.04  23 2.12   2 2.26  12 2.28
  73  0.027  0.619  0.917-  37 1.83  34 1.86  21 2.13  13 2.31
  74  0.694  0.621  0.417-  35 1.85  40 1.89  22 2.07   6 2.15
  75  0.866  0.456  0.410-  28 1.88  22 2.00  39 2.03
  76  0.060  0.812  0.405-  36 1.87  27 1.94  22 2.12   9 2.25
  77  0.204  0.637  0.095-  37 1.89  21 2.02  38 2.03
  78  0.388  0.492  0.098-  38 2.02  33 2.02  19 2.16  10 2.32
  79  0.520  0.798  0.094-  38 1.92  23 2.02  29 2.06   1 2.35  16 2.35
  80  0.207  0.460  0.590-  39 1.92  32 1.95  24 1.95   8 2.25
  81  0.376  0.811  0.585-  36 1.89  31 1.91  24 2.04
  82  0.547  0.630  0.597-  40 1.84  35 1.88  24 2.03  12 2.36   8 2.37
  83  0.210  0.483  0.903-  38 1.88  19 1.89  37 1.92
  84  0.377  0.820  0.900-  29 1.91  38 2.00  21 2.02   7 2.24
  85  0.514  0.628  0.899-  38 1.82  33 2.01  23 2.19   8 2.34
  86  0.203  0.630  0.398-  39 1.94  36 2.00  24 2.07   9 2.28
  87  0.380  0.450  0.415-  35 1.92  32 1.96  24 2.06
  88  0.557  0.808  0.399-  40 1.94  31 1.99  24 2.15  16 2.29
 
  LATTYP: Found a hexagonal cell.
 ALAT       =    10.0190000534
 C/A-ratio  =     1.1196726572
  
  Lattice vectors:
  
 A1 = (  10.0190000534,   0.0000000000,   0.0000000000)
 A2 = (  -5.0095000267,   8.6767085668,   0.0000000000)
 A3 = (   0.0000000000,   0.0000000000,  11.2180004120)


Analysis of symmetry for initial positions (statically):
=====================================================================
 Subroutine PRICEL returns:
 Original cell was already a primitive cell.
 

 Routine SETGRP: Setting up the symmetry group for a 
 hexagonal supercell.


 Subroutine GETGRP returns: Found  1 space group operations
 (whereof  1 operations were pure point group operations)
 out of a pool of 24 trial point group operations.


The static configuration has the point symmetry C_1 .


Analysis of symmetry for dynamics (positions and initial velocities):
=====================================================================
 Subroutine PRICEL returns:
 Original cell was already a primitive cell.
 

 Routine SETGRP: Setting up the symmetry group for a 
 hexagonal supercell.


 Subroutine GETGRP returns: Found  1 space group operations
 (whereof  1 operations were pure point group operations)
 out of a pool of 24 trial point group operations.


The dynamic configuration has the point symmetry C_1 .


Analysis of structural, dynamic, and magnetic symmetry:
=====================================================================
 Subroutine PRICEL returns:
 Original cell was already a primitive cell.
 

 Routine SETGRP: Setting up the symmetry group for a 
 hexagonal supercell.


 Subroutine GETGRP returns: Found  1 space group operations
 (whereof  1 operations were pure point group operations)
 out of a pool of 24 trial point group operations.


The magnetic configuration has the point symmetry C_1 .


 Subroutine INISYM returns: Found  1 space group operations
 (whereof  1 operations are pure point group operations),
 and found     1 'primitive' translations

 
 

Automatic generation of k-mesh.
 generate k-points for:    2    2    2
Space group operators:
 irot       det(A)        alpha          n_x          n_y          n_z        tau_x        tau_y        tau_z
    1     1.000000     0.000000     1.000000     0.000000     0.000000     0.000000     0.000000     0.000000
 
 Subroutine IBZKPT returns following result:
 ===========================================
 
 Found      8 irreducible k-points:
 
 Following reciprocal coordinates:
            Coordinates               Weight
  0.000000  0.000000  0.000000      1.000000
  0.500000 -0.000000 -0.000000      1.000000
  0.000000  0.500000  0.000000      1.000000
  0.500000  0.500000 -0.000000      1.000000
  0.000000  0.000000  0.500000      1.000000
  0.500000 -0.000000  0.500000      1.000000
  0.000000  0.500000  0.500000      1.000000
  0.500000  0.500000  0.500000      1.000000
 
 Following cartesian coordinates:
            Coordinates               Weight
  0.000000  0.000000  0.000000      1.000000
  0.049905  0.028813 -0.000000      1.000000
  0.000000  0.057626  0.000000      1.000000
  0.049905  0.086438 -0.000000      1.000000
  0.000000  0.000000  0.044571      1.000000
  0.049905  0.028813  0.044571      1.000000
  0.000000  0.057626  0.044571      1.000000
  0.049905  0.086438  0.044571      1.000000
 


--------------------------------------------------------------------------------------------------------




 Dimension of arrays:
   k-points           NKPTS =      8   k-points in BZ     NKDIM =      8   number of bands    NBANDS=    448
   number of dos      NEDOS =    301   number of ions     NIONS =     88
   non local maximal  LDIM  =      6   non local SUM 2l+1 LMDIM =     18
   total plane-waves  NPLWV = 140000
   max r-space proj   IRMAX =   1632   max aug-charges    IRDMAX=   4555
   dimension x,y,z NGX =    50 NGY =   50 NGZ =   56
   dimension x,y,z NGXF=   100 NGYF=  100 NGZF=  112
   support grid    NGXF=   100 NGYF=  100 NGZF=  112
   ions per type =              16   8  16  48
   NGX,Y,Z   is equivalent  to a cutoff of   8.30,  8.30,  8.30 a.u.
   NGXF,Y,Z  is equivalent  to a cutoff of  16.59, 16.59, 16.60 a.u.

 SYSTEM =  unknown system                          
 POSCAR =  Na Mg Mn  O                             

 Startparameter for this run:
   NWRITE =      2    write-flag & timer
   PREC   = normal    normal or accurate (medium, high low for compatibility)
   ISTART =      0    job   : 0-new  1-cont  2-samecut
   ICHARG =      1    charge: 1-file 2-atom 10-const
   ISPIN  =      2    spin polarized calculation?
   LNONCOLLINEAR =      F non collinear calculations
   LSORBIT =      F    spin-orbit coupling
   INIWAV =      1    electr: 0-lowe 1-rand  2-diag
   LASPH  =      T    aspherical Exc in radial PAW
   METAGGA=      F    non-selfconsistent MetaGGA calc.

 Electronic Relaxation 1
   ENCUT  =  400.0 eV  29.40 Ry    5.42 a.u.  16.34 16.34 18.29*2*pi/ulx,y,z
   ENINI  =  400.0     initial cutoff
   ENAUG  =  758.8 eV  augmentation charge cutoff
   NELM   =    200;   NELMIN=  6; NELMDL=-12     # of ELM steps 
   EDIFF  = 0.1E-04   stopping-criterion for ELM
   LREAL  =      T    real-space projection
   NLSPLINE    = F    spline interpolate recip. space projectors
   LCOMPAT=      F    compatible to vasp.4.4
   GGA_COMPAT  = T    GGA compatible to vasp.4.4-vasp.4.6
   LMAXPAW     = -100 max onsite density
   LMAXMIX     =    4 max onsite mixed and CHGCAR
   VOSKOWN=      0    Vosko Wilk Nusair interpolation
   ROPT   =   -0.00050  -0.00050  -0.00050  -0.00050
 Ionic relaxation
   EDIFFG = 0.1E-03   stopping-criterion for IOM
   NSW    =      1    number of steps for IOM
   NBLOCK =      1;   KBLOCK =      1    inner block; outer block 
   IBRION =     -1    ionic relax: 0-MD 1-quasi-New 2-CG
   NFREE  =      0    steps in history (QN), initial steepest desc. (CG)
   ISIF   =      2    stress and relaxation
   IWAVPR =     10    prediction:  0-non 1-charg 2-wave 3-comb
   ISYM   =      2    0-nonsym 1-usesym 2-fastsym
   LCORR  =      T    Harris-Foulkes like correction to forces

   POTIM  = 0.5000    time-step for ionic-motion
   TEIN   =    0.0    initial temperature
   TEBEG  =    0.0;   TEEND  =   0.0 temperature during run
   SMASS  =  -3.00    Nose mass-parameter (am)
   estimated Nose-frequenzy (Omega)   =  0.10E-29 period in steps =****** mass=  -0.229E-26a.u.
   SCALEE = 1.0000    scale energy and forces
   NPACO  =    256;   APACO  = 16.0  distance and # of slots for P.C.
   PSTRESS=    0.0 pullay stress

  Mass of Ions in am
   POMASS =  22.99 24.30 54.94 16.00
  Ionic Valenz
   ZVAL   =   7.00  8.00 13.00  6.00
  Atomic Wigner-Seitz radii
   RWIGS  =  -1.00 -1.00 -1.00 -1.00
  virtual crystal weights 
   VCA    =   1.00  1.00  1.00  1.00
   NELECT =     672.0000    total number of electrons
   NUPDOWN=      48.0000    fix difference up-down

 DOS related values:
   EMIN   =  10.00;   EMAX   =-10.00  energy-range for DOS
   EFERMI =   0.00
   ISMEAR =     0;   SIGMA  =   0.05  broadening in eV -4-tet -1-fermi 0-gaus

 Electronic relaxation 2 (details)
   IALGO  =     48    algorithm
   LDIAG  =      T    sub-space diagonalisation (order eigenvalues)
   LSUBROT=      F    optimize rotation matrix (better conditioning)
   TURBO    =      0    0=normal 1=particle mesh
   IRESTART =      0    0=no restart 2=restart with 2 vectors
   NREBOOT  =      0    no. of reboots
   NMIN     =      0    reboot dimension
   EREF     =   0.00    reference energy to select bands
   IMIX   =      4    mixing-type and parameters
     AMIX     =   0.40;   BMIX     =  1.00
     AMIX_MAG =   1.60;   BMIX_MAG =  1.00
     AMIN     =   0.10
     WC   =   100.;   INIMIX=   1;  MIXPRE=   1;  MAXMIX= -45

 Intra band minimization:
   WEIMIN = 0.0000     energy-eigenvalue tresh-hold
   EBREAK =  0.56E-08  absolut break condition
   DEPER  =   0.30     relativ break condition  

   TIME   =   0.40     timestep for ELM

  volume/ion in A,a.u.               =      11.08        74.78
  Fermi-wavevector in a.u.,A,eV,Ry     =   1.445993  2.732531 28.448379  2.090897
  Thomas-Fermi vector in A             =   2.564112
 
 Write flags
   LWAVE        =      F    write WAVECAR
   LDOWNSAMPLE  =      F    k-point downsampling of WAVECAR
   LCHARG       =      F    write CHGCAR
   LVTOT        =      F    write LOCPOT, total local potential
   LVHAR        =      F    write LOCPOT, Hartree potential only
   LELF         =      F    write electronic localiz. function (ELF)
   LORBIT       =     11    0 simple, 1 ext, 2 COOP (PROOUT), +10 PAW based schemes


 Dipole corrections
   LMONO  =      F    monopole corrections only (constant potential shift)
   LDIPOL =      F    correct potential (dipole corrections)
   IDIPOL =      0    1-x, 2-y, 3-z, 4-all directions 
   EPSILON=  1.0000000 bulk dielectric constant

 Exchange correlation treatment:
   GGA     =    --    GGA type
   LEXCH   =     8    internal setting for exchange type
   VOSKOWN=      0    Vosko Wilk Nusair interpolation
   LHFCALC =     F    Hartree Fock is set to
   LHFONE  =     F    Hartree Fock one center treatment
   AEXX    =    0.0000 exact exchange contribution

 Linear response parameters
   LEPSILON=     F    determine dielectric tensor
   LRPA    =     F    only Hartree local field effects (RPA)
   LNABLA  =     F    use nabla operator in PAW spheres
   LVEL    =     F    velocity operator in full k-point grid
   LINTERFAST=   F  fast interpolation
   KINTER  =     0    interpolate to denser k-point grid
   CSHIFT  =0.1000    complex shift for real part using Kramers Kronig
   OMEGAMAX=  -1.0    maximum frequency
   DEG_THRESHOLD= 0.2000000E-02 threshold for treating states as degnerate
   RTIME   =   -0.100 relaxation time in fs
  (WPLASMAI=    0.000 imaginary part of plasma frequency in eV, 0.658/RTIME)
   DFIELD  = 0.0000000 0.0000000 0.0000000 field for delta impulse in time
 
 Orbital magnetization related:
   ORBITALMAG=     F  switch on orbital magnetization
   LCHIMAG   =     F  perturbation theory with respect to B field
   DQ        =  0.001000  dq finite difference perturbation B field
   LLRAUG    =     F  two centre corrections for induced B field



--------------------------------------------------------------------------------------------------------


 Static calculation
 charge density and potential will be updated during run
 spin polarized calculation
 RMM-DIIS sequential band-by-band
 perform sub-space diagonalisation
    before iterative eigenvector-optimisation
 modified Broyden-mixing scheme, WC =      100.0
 initial mixing is a Kerker type mixing with AMIX =  0.4000 and BMIX =      1.0000
 Hartree-type preconditioning will be used
 using additional bands          112
 real space projection scheme for non local part
 use partial core corrections
 calculate Harris-corrections to forces 
   (improved forces if not selfconsistent)
 use gradient corrections 
 use of overlap-Matrix (Vanderbilt PP)
 Gauss-broadening in eV      SIGMA  =   0.05


--------------------------------------------------------------------------------------------------------


  energy-cutoff  :      400.00
  volume of cell :      975.20
      direct lattice vectors                 reciprocal lattice vectors
    10.019000053  0.000000000  0.000000000     0.099810360  0.057625538 -0.000000000
    -5.009500027  8.676708567  0.000000000     0.000000000  0.115251076  0.000000000
     0.000000000  0.000000000 11.218000412     0.000000000  0.000000000  0.089142446

  length of vectors
    10.019000053 10.019000053 11.218000412     0.115251076  0.115251076  0.089142446


 
 k-points in units of 2pi/SCALE and weight: read from INCAR                         
   0.00000000  0.00000000  0.00000000       0.125
   0.04990518  0.02881277 -0.00000000       0.125
   0.00000000  0.05762554  0.00000000       0.125
   0.04990518  0.08643831 -0.00000000       0.125
   0.00000000  0.00000000  0.04457122       0.125
   0.04990518  0.02881277  0.04457122       0.125
   0.00000000  0.05762554  0.04457122       0.125
   0.04990518  0.08643831  0.04457122       0.125
 
 k-points in reciprocal lattice and weights: read from INCAR                         
   0.00000000  0.00000000  0.00000000       0.125
   0.50000000 -0.00000000 -0.00000000       0.125
   0.00000000  0.50000000  0.00000000       0.125
   0.50000000  0.50000000 -0.00000000       0.125
   0.00000000  0.00000000  0.50000000       0.125
   0.50000000 -0.00000000  0.50000000       0.125
   0.00000000  0.50000000  0.50000000       0.125
   0.50000000  0.50000000  0.50000000       0.125
 
 position of ions in fractional coordinates (direct lattice) 
   0.36865563  0.80628023  0.25072561
   0.87534747  0.97824257  0.76650915
   0.58420186  0.30224940  0.75206005
   0.00773518  0.43183327  0.74707788
   0.02212618  0.94688934  0.23990907
   0.58066574  0.50889310  0.25461668
   0.53635510  0.96208042  0.75346672
   0.36075646  0.47374169  0.74179798
   0.05116634  0.65462134  0.25816187
   0.21200918  0.35122667  0.24617756
   0.41618581  0.17178074  0.26134337
   0.72329969  0.66528388  0.74916827
   0.15212001  0.79071574  0.76351040
   0.24342271  0.13409561  0.74245317
   0.87131177  0.30648620  0.23657246
   0.70010732  0.95231964  0.24031823
   0.70661726  0.30213761  0.00658337
   0.36823979  0.12687184  0.51942858
   0.20773268  0.31899884  0.98806379
   0.88249048  0.12821682  0.49934478
   0.20934715  0.81379361  0.00431897
   0.88146881  0.63231581  0.50483239
   0.70075461  0.81054007  0.00418690
   0.37367208  0.62904153  0.50142983
   0.03954883  0.97926534  0.99286653
   0.37301529  0.14533391  0.99562116
   0.03897352  0.96198017  0.50098946
   0.71343487  0.29732588  0.50293633
   0.53126866  0.97819697  0.99677396
   0.86919817  0.14453868  0.00034762
   0.54873283  0.96617312  0.49998572
   0.21087267  0.28985991  0.50903457
   0.54407278  0.47551557  0.99385193
   0.86913266  0.63281369  0.99366418
   0.54603235  0.46778683  0.51225172
   0.21446456  0.80420011  0.49328756
   0.05037627  0.47582790  0.00188562
   0.37124855  0.64405874  0.98928392
   0.04873849  0.46678530  0.49751736
   0.69635096  0.78328780  0.50437777
   0.21932608  0.14017527  0.09649670
   0.38488118  0.98531482  0.09809235
   0.51994547  0.30835886  0.08913737
   0.19144650  0.94959626  0.59363342
   0.38443549  0.30693667  0.60570331
   0.54633305  0.11934940  0.59178015
   0.19884112  0.98168465  0.89942946
   0.38164810  0.30329819  0.89482079
   0.52916996  0.13280843  0.91041180
   0.18512136  0.12610658  0.40738633
   0.37385008  0.95446331  0.40627650
   0.55228926  0.31274302  0.41968085
   0.70641850  0.12775467  0.09425298
   0.88228731  0.99853610  0.09555803
   0.03809170  0.31772647  0.09594847
   0.70112115  0.94409878  0.59135138
   0.88530995  0.31441070  0.59126224
   0.06260592  0.13201665  0.60558208
   0.70317885  0.98146302  0.91039398
   0.87754951  0.31089900  0.91356745
   0.03187877  0.13488640  0.90239790
   0.70273122  0.13996091  0.40078890
   0.87282562  0.94723822  0.40892671
   0.06035373  0.30464778  0.41437599
   0.70659625  0.62979296  0.08509583
   0.88946521  0.48740833  0.09644500
   0.01617838  0.80730037  0.08257907
   0.70575824  0.45654294  0.59855498
   0.86000177  0.79486132  0.59244872
   0.05846282  0.62853557  0.58681135
   0.71048117  0.48555163  0.90169367
   0.87903911  0.81222735  0.90078442
   0.02714172  0.61943765  0.91709749
   0.69433356  0.62131509  0.41735691
   0.86605107  0.45592288  0.40998840
   0.06001044  0.81225962  0.40475841
   0.20358442  0.63680253  0.09484043
   0.38792407  0.49209328  0.09755571
   0.52006563  0.79833268  0.09441076
   0.20749189  0.46026555  0.58961310
   0.37611315  0.81064610  0.58517202
   0.54655396  0.63013756  0.59708859
   0.20996296  0.48321088  0.90301298
   0.37684337  0.81959650  0.90008911
   0.51377335  0.62835117  0.89912637
   0.20273836  0.62972266  0.39832232
   0.37956574  0.45001281  0.41534051
   0.55725390  0.80799418  0.39879300
 
 position of ions in cartesian coordinates  (Angst):
  -0.34550008  6.99585857  2.81264000
   3.86960013  8.48792570  8.59870000
   4.33900011  2.62253000  8.43661000
  -2.08577003  3.74689143  8.38072000
  -4.52176000  8.21588287  2.69130000
   3.26839005  4.41551713  2.85629000
   0.55419992  8.34769143  8.45239000
   1.24120997  4.11051857  8.32149000
  -2.76669003  5.67995857  2.89606000
   0.36465003  3.04749143  2.76162000
   3.30923003  1.49049143  2.93175000
   3.91400008  5.77247430  8.40417000
  -2.43700016  6.86081000  8.56506000
   1.76710013  1.16350857  8.32884000
   7.19433003  2.65929143  2.65387000
   2.24373005  8.26300000  2.69589000
   5.56604000  2.62156000  0.07385220
   3.05383000  1.10083000  5.82695000
   0.48324900  2.76786000 11.08410000
   8.19937000  1.11250000  5.60165000
  -1.97925000  7.06105000  0.04845020
   5.66385000  5.48642000  5.66321000
   2.96046000  7.03282000  0.04696870
   0.59263700  5.45801000  5.62504000
  -4.50939005  8.49680000 11.13797711
   3.00919000  1.26102000 11.16887861
  -4.42856403  8.34682157  5.62010000
   5.65845000  2.57981000  5.64194000
   0.42250300  8.48753000 11.18181071
   7.98443000  1.25412000  0.00389959
   0.65770997  8.38320257  5.60884000
   0.66068000  2.51503000  5.71035000
   3.06897000  4.12591000 11.14903141
   5.53776000  5.49074000 11.14692521
   3.12732000  4.05885000  5.74644000
  -1.87992000  6.97781000  5.53370000
  -1.87894000  4.12862000  0.02115290
   0.49312700  5.58831000 11.09778741
  -1.85005000  4.05016000  5.58115000
   3.05286000  6.79636000  5.65811000
   1.49522000  1.21626000  1.08250000
  -1.07981003  8.54928957  1.10040000
   3.66461000  2.67554000  0.99994300
  -2.83890000  8.23937000  6.65938000
   2.31406000  2.66320000  6.79478000
   4.87583000  1.03556000  6.63859000
  -2.92556003  8.51779157 10.08980000
   2.30436000  2.63163000 10.03810000
   4.63645000  1.15234000 10.21300000
   1.22300000  1.09419000  4.57006000
  -1.03578000  8.28160000  4.55761000
   3.96670000  2.71358000  4.70798000
   6.43762000  1.10849000  1.05733000
   3.83746997  8.66400677  1.07197000
  -1.21001005  2.75682000  1.07635000
   2.29507000  8.19167000  6.63378000
   7.29488000  2.72805000  6.63278000
  -0.03408870  1.14547000  6.79342000
   2.12850997  8.51586857 10.21280000
   7.23472000  2.69758000 10.24840000
  -0.35632005  1.17037000 10.12310000
   6.33953000  1.21440000  4.49605000
   3.99965000  8.21891000  4.58734000
  -0.92144900  2.64334000  4.64847000
   3.92444000  5.46453000  0.95460500
   6.46988000  4.22910000  1.08192000
  -3.88208005  7.00471000  0.92637200
   4.78394000  3.96129000  6.71459000
   4.63450000  6.89678000  6.64609000
  -2.56291000  5.45362000  6.58285000
   4.68594000  4.21299000 10.11520000
   4.73824000  7.04746000 10.10500000
  -2.83114005  5.37468000 10.28800000
   3.84405000  5.39097000  4.68191000
   6.39302000  3.95591000  4.59925000
  -3.46777000  7.04774000  4.54058000
  -1.15035000  5.52535000  1.06392000
   1.42147000  4.26975000  1.09438000
   1.21129000  6.92690000  1.05910000
  -0.22683900  3.99359000  6.61428000
  -0.29265400  7.03374000  6.56446000
   2.31925000  5.46752000  6.69814000
  -0.31702600  4.19268000 10.13000000
  -0.33017500  7.11140000 10.09720000
   1.99977000  5.45202000 10.08640000
  -1.12336000  5.46392000  4.46838000
   1.54853000  3.90463000  4.65929000
   1.53548000  7.01073000  4.47366000
 


--------------------------------------------------------------------------------------------------------


 k-point  1 :   0.0000 0.0000 0.0000  plane waves:   17725
 k-point  2 :   0.5000-0.0000-0.0000  plane waves:   17736
 k-point  3 :   0.0000 0.5000 0.0000  plane waves:   17736
 k-point  4 :   0.5000 0.5000-0.0000  plane waves:   17736
 k-point  5 :   0.0000 0.0000 0.5000  plane waves:   17676
 k-point  6 :   0.5000-0.0000 0.5000  plane waves:   17700
 k-point  7 :   0.0000 0.5000 0.5000  plane waves:   17700
 k-point  8 :   0.5000 0.5000 0.5000  plane waves:   17700

 maximum and minimum number of plane-waves per node :     17736    17676

 maximum number of plane-waves:     17736
 maximum index in each direction: 
   IXMAX=   16   IYMAX=   16   IZMAX=   18
   IXMIN=  -16   IYMIN=  -16   IZMIN=  -18


 serial   3D FFT for wavefunctions
 parallel 3D FFT for charge:
    minimum data exchange during FFTs selected (reduces bandwidth)


 total amount of memory used by VASP MPI-rank0    88173. kBytes
=======================================================================

   base      :      30000. kBytes
   nonlr-proj:      13664. kBytes
   fftplans  :        992. kBytes
   grid      :      21513. kBytes
   one-center:       2737. kBytes
   wavefun   :      19267. kBytes
 
     INWAV:  cpu time    0.0000: real time    0.0001
 Broyden mixing: mesh for mixing (old mesh)
   NGX = 33   NGY = 33   NGZ = 37
  (NGX  =100   NGY  =100   NGZ  =112)
  gives a total of  40293 points

 initial charge density was supplied:
 charge density of overlapping atoms calculated
 number of electron     672.0000000 magnetization      48.0000000
 keeping initial charge density in first step


--------------------------------------------------------------------------------------------------------


 Maximum index for non-local projection operator         1550
 Maximum index for augmentation-charges          266 (set IRDMAX)


--------------------------------------------------------------------------------------------------------


 First call to EWALD:  gamma=   0.179
 Maximum number of real-space cells 3x 3x 2
 Maximum number of reciprocal cells 3x 3x 3

    FEWALD:  cpu time    0.0024: real time    0.0030


--------------------------------------- Iteration      1(   1)  ---------------------------------------


    POTLOK:  cpu time    0.2040: real time    0.2051
    SETDIJ:  cpu time    3.0974: real time    3.0984
    EDDIAG:  cpu time    3.7748: real time    3.8033
  RMM-DIIS:  cpu time    6.6238: real time    6.6286
    ORTHCH:  cpu time    1.1469: real time    1.1500
       DOS:  cpu time    0.0024: real time    0.0025
    --------------------------------------------
      LOOP:  cpu time   14.8494: real time   14.8879

 eigenvalue-minimisations  :  7168
 total energy-change (2. order) : 0.1768180E+04  (-0.3594013E+05)
 number of electron     672.0000000 magnetization      48.0000000
 augmentation part      672.0000000 magnetization      48.0000000

 Free energy of the ion-electron system (eV)
  ---------------------------------------------------
  alpha Z        PSCENC =      2652.81237852
  Ewald energy   TEWEN  =    -41907.38452109
  -Hartree energ DENC   =    -25707.62819314
  -exchange      EXHF   =         0.00000000
  -V(xc)+E(xc)   XCENC  =      3605.69173511
  PAW double counting   =     55594.23204139   -59034.67079123
  entropy T*S    EENTRO =        -0.05164716
  eigenvalues    EBANDS =     -7297.01900829
  atomic energy  EATOM  =     73862.19814772
  Solvation  Ediel_sol  =         0.00000000
  ---------------------------------------------------
  free energy    TOTEN  =      1768.18014183 eV

  energy without entropy =     1768.23178899  energy(sigma->0) =     1768.20596541


--------------------------------------------------------------------------------------------------------




--------------------------------------- Iteration      1(   2)  ---------------------------------------


    EDDIAG:  cpu time    3.7637: real time    3.7671
  RMM-DIIS:  cpu time    6.6120: real time    6.6160
    ORTHCH:  cpu time    1.1499: real time    1.1522
       DOS:  cpu time    0.0014: real time    0.0014
    --------------------------------------------
      LOOP:  cpu time   11.5271: real time   11.5368

 eigenvalue-minimisations  :  7168
 total energy-change (2. order) :-0.2601075E+04  (-0.8646336E+04)
 number of electron     672.0000000 magnetization      48.0000000
 augmentation part      672.0000000 magnetization      48.0000000

 Free energy of the ion-electron system (eV)
  ---------------------------------------------------
  alpha Z        PSCENC =      2652.81237852
  Ewald energy   TEWEN  =    -41907.38452109
  -Hartree energ DENC   =    -25707.62819314
  -exchange      EXHF   =         0.00000000
  -V(xc)+E(xc)   XCENC  =      3605.69173511
  PAW double counting   =     55594.23204139   -59034.67079123
  entropy T*S    EENTRO =        -0.05048802
  eigenvalues    EBANDS =     -9898.09498064
  atomic energy  EATOM  =     73862.19814772
  Solvation  Ediel_sol  =         0.00000000
  ---------------------------------------------------
  free energy    TOTEN  =      -832.89467138 eV

  energy without entropy =     -832.84418336  energy(sigma->0) =     -832.86942737


--------------------------------------------------------------------------------------------------------




--------------------------------------- Iteration      1(   3)  ---------------------------------------


    EDDIAG:  cpu time    3.7253: real time    3.7291
  RMM-DIIS:  cpu time    6.5958: real time    6.6257
    ORTHCH:  cpu time    1.1563: real time    1.1587
       DOS:  cpu time    0.0015: real time    0.0015
    --------------------------------------------
      LOOP:  cpu time   11.4789: real time   11.5149

 eigenvalue-minimisations  :  7168
 total energy-change (2. order) : 0.2976577E+03  (-0.1557094E+04)
 number of electron     672.0000000 magnetization      48.0000000
 augmentation part      672.0000000 magnetization      48.0000000

 Free energy of the ion-electron system (eV)
  ---------------------------------------------------
  alpha Z        PSCENC =      2652.81237852
  Ewald energy   TEWEN  =    -41907.38452109
  -Hartree energ DENC   =    -25707.62819314
  -exchange      EXHF   =         0.00000000
  -V(xc)+E(xc)   XCENC  =      3605.69173511
  PAW double counting   =     55594.23204139   -59034.67079123
  entropy T*S    EENTRO =        -0.03629521
  eigenvalues    EBANDS =     -9600.45145844
  atomic energy  EATOM  =     73862.19814772
  Solvation  Ediel_sol  =         0.00000000
  ---------------------------------------------------
  free energy    TOTEN  =      -535.23695637 eV

  energy without entropy =     -535.20066117  energy(sigma->0) =     -535.21880877


--------------------------------------------------------------------------------------------------------




--------------------------------------- Iteration      1(   4)  ---------------------------------------


    EDDIAG:  cpu time    3.7162: real time    3.7201
  RMM-DIIS:  cpu time    6.6198: real time    6.6239
    ORTHCH:  cpu time    1.1496: real time    1.1523
       DOS:  cpu time    0.0012: real time    0.0012
    --------------------------------------------
      LOOP:  cpu time   11.4868: real time   11.4974

 eigenvalue-minimisations  :  7168
 total energy-change (2. order) :-0.5233787E+03  (-0.5057253E+03)
 number of electron     672.0000000 magnetization      48.0000000
 augmentation part      672.0000000 magnetization      48.0000000

 Free energy of the ion-electron system (eV)
  ---------------------------------------------------
  alpha Z        PSCENC =      2652.81237852
  Ewald energy   TEWEN  =    -41907.38452109
  -Hartree energ DENC   =    -25707.62819314
  -exchange      EXHF   =         0.00000000
  -V(xc)+E(xc)   XCENC  =      3605.69173511
  PAW double counting   =     55594.23204139   -59034.67079123
  entropy T*S    EENTRO =        -0.00000089
  eigenvalues    EBANDS =    -10123.86650200
  atomic energy  EATOM  =     73862.19814772
  Solvation  Ediel_sol  =         0.00000000
  ---------------------------------------------------
  free energy    TOTEN  =     -1058.61570561 eV

  energy without entropy =    -1058.61570472  energy(sigma->0) =    -1058.61570517


--------------------------------------------------------------------------------------------------------




--------------------------------------- Iteration      1(   5)  ---------------------------------------


    EDDIAG:  cpu time    3.7319: real time    3.7356
  RMM-DIIS:  cpu time    6.6085: real time    6.6123
    ORTHCH:  cpu time    1.1689: real time    1.1714
       DOS:  cpu time    0.0011: real time    0.0011
    --------------------------------------------
      LOOP:  cpu time   11.5103: real time   11.5205

 eigenvalue-minimisations  :  7168
 total energy-change (2. order) :-0.1466541E+03  (-0.2118578E+03)
 number of electron     672.0000000 magnetization      48.0000000
 augmentation part      672.0000000 magnetization      48.0000000

 Free energy of the ion-electron system (eV)
  ---------------------------------------------------
  alpha Z        PSCENC =      2652.81237852
  Ewald energy   TEWEN  =    -41907.38452109
  -Hartree energ DENC   =    -25707.62819314
  -exchange      EXHF   =         0.00000000
  -V(xc)+E(xc)   XCENC  =      3605.69173511
  PAW double counting   =     55594.23204139   -59034.67079123
  entropy T*S    EENTRO =        -0.00000000
  eigenvalues    EBANDS =    -10270.52055525
  atomic energy  EATOM  =     73862.19814772
  Solvation  Ediel_sol  =         0.00000000
  ---------------------------------------------------
  free energy    TOTEN  =     -1205.26975798 eV

  energy without entropy =    -1205.26975798  energy(sigma->0) =    -1205.26975798


--------------------------------------------------------------------------------------------------------




--------------------------------------- Iteration      1(   6)  ---------------------------------------


    EDDIAG:  cpu time    3.7476: real time    3.7774
  RMM-DIIS:  cpu time    6.6105: real time    6.6144
    ORTHCH:  cpu time    1.1502: real time    1.1530
       DOS:  cpu time    0.0014: real time    0.0014
    --------------------------------------------
      LOOP:  cpu time   11.5098: real time   11.5463

 eigenvalue-minimisations  :  7168
 total energy-change (2. order) :-0.2150496E+02  (-0.1151151E+03)
 number of electron     672.0000000 magnetization      48.0000000
 augmentation part      672.0000000 magnetization      48.0000000

 Free energy of the ion-electron system (eV)
  ---------------------------------------------------
  alpha Z        PSCENC =      2652.81237852
  Ewald energy   TEWEN  =    -41907.38452109
  -Hartree energ DENC   =    -25707.62819314
  -exchange      EXHF   =         0.00000000
  -V(xc)+E(xc)   XCENC  =      3605.69173511
  PAW double counting   =     55594.23204139   -59034.67079123
  entropy T*S    EENTRO =        -0.00000000
  eigenvalues    EBANDS =    -10292.02551729
  atomic energy  EATOM  =     73862.19814772
  Solvation  Ediel_sol  =         0.00000000
  ---------------------------------------------------
  free energy    TOTEN  =     -1226.77472001 eV

  energy without entropy =    -1226.77472001  energy(sigma->0) =    -1226.77472001


--------------------------------------------------------------------------------------------------------




--------------------------------------- Iteration      1(   7)  ---------------------------------------


    EDDIAG:  cpu time    3.7285: real time    3.7335
  RMM-DIIS:  cpu time    6.6071: real time    6.6193
    ORTHCH:  cpu time    1.1502: real time    1.1533
       DOS:  cpu time    0.0010: real time    0.0010
    --------------------------------------------
      LOOP:  cpu time   11.4868: real time   11.5071

 eigenvalue-minimisations  :  7168
 total energy-change (2. order) :-0.6455323E+01  (-0.7614023E+02)
 number of electron     672.0000000 magnetization      48.0000000
 augmentation part      672.0000000 magnetization      48.0000000

 Free energy of the ion-electron system (eV)
  ---------------------------------------------------
  alpha Z        PSCENC =      2652.81237852
  Ewald energy   TEWEN  =    -41907.38452109
  -Hartree energ DENC   =    -25707.62819314
  -exchange      EXHF   =         0.00000000
  -V(xc)+E(xc)   XCENC  =      3605.69173511
  PAW double counting   =     55594.23204139   -59034.67079123
  entropy T*S    EENTRO =        -0.00000000
  eigenvalues    EBANDS =    -10298.48084073
  atomic energy  EATOM  =     73862.19814772
  Solvation  Ediel_sol  =         0.00000000
  ---------------------------------------------------
  free energy    TOTEN  =     -1233.23004346 eV

  energy without entropy =    -1233.23004346  energy(sigma->0) =    -1233.23004346


--------------------------------------------------------------------------------------------------------




--------------------------------------- Iteration      1(   8)  ---------------------------------------


    EDDIAG:  cpu time    3.7292: real time    3.7325
  RMM-DIIS:  cpu time    6.5696: real time    6.6239
    ORTHCH:  cpu time    1.1643: real time    1.1668
       DOS:  cpu time    0.0011: real time    0.0011
    --------------------------------------------
      LOOP:  cpu time   11.4642: real time   11.5243

 eigenvalue-minimisations  :  7168
 total energy-change (2. order) : 0.4666553E+01  (-0.5295850E+02)
 number of electron     672.0000000 magnetization      48.0000000
 augmentation part      672.0000000 magnetization      48.0000000

 Free energy of the ion-electron system (eV)
  ---------------------------------------------------
  alpha Z        PSCENC =      2652.81237852
  Ewald energy   TEWEN  =    -41907.38452109
  -Hartree energ DENC   =    -25707.62819314
  -exchange      EXHF   =         0.00000000
  -V(xc)+E(xc)   XCENC  =      3605.69173511
  PAW double counting   =     55594.23204139   -59034.67079123
  entropy T*S    EENTRO =        -0.00000000
  eigenvalues    EBANDS =    -10293.81428772
  atomic energy  EATOM  =     73862.19814772
  Solvation  Ediel_sol  =         0.00000000
  ---------------------------------------------------
  free energy    TOTEN  =     -1228.56349045 eV

  energy without entropy =    -1228.56349045  energy(sigma->0) =    -1228.56349045


--------------------------------------------------------------------------------------------------------




--------------------------------------- Iteration      1(   9)  ---------------------------------------


    EDDIAG:  cpu time    3.7749: real time    3.7776
  RMM-DIIS:  cpu time   13.8353: real time   13.8474
    ORTHCH:  cpu time    1.1520: real time    1.1549
       DOS:  cpu time    0.0010: real time    0.0010
    --------------------------------------------
      LOOP:  cpu time   18.7631: real time   18.7809

 eigenvalue-minimisations  : 20237
 total energy-change (2. order) : 0.1827311E+02  (-0.2378546E+02)
 number of electron     672.0000000 magnetization      48.0000000
 augmentation part      672.0000000 magnetization      48.0000000

 Free energy of the ion-electron system (eV)
  ---------------------------------------------------
  alpha Z        PSCENC =      2652.81237852
  Ewald energy   TEWEN  =    -41907.38452109
  -Hartree energ DENC   =    -25707.62819314
  -exchange      EXHF   =         0.00000000
  -V(xc)+E(xc)   XCENC  =      3605.69173511
  PAW double counting   =     55594.23204139   -59034.67079123
  entropy T*S    EENTRO =        -0.00000000
  eigenvalues    EBANDS =    -10275.54118076
  atomic energy  EATOM  =     73862.19814772
  Solvation  Ediel_sol  =         0.00000000
  ---------------------------------------------------
  free energy    TOTEN  =     -1210.29038349 eV

  energy without entropy =    -1210.29038349  energy(sigma->0) =    -1210.29038349


--------------------------------------------------------------------------------------------------------




--------------------------------------- Iteration      1(  10)  ---------------------------------------


    EDDIAG:  cpu time    3.7133: real time    3.7166
  RMM-DIIS:  cpu time   15.6261: real time   15.6573
    ORTHCH:  cpu time    1.1559: real time    1.1584
       DOS:  cpu time    0.0011: real time    0.0011
    --------------------------------------------
      LOOP:  cpu time   20.4964: real time   20.5334

 eigenvalue-minimisations  : 20239
 total energy-change (2. order) :-0.3123201E+01  (-0.1036172E+01)
 number of electron     672.0000000 magnetization      48.0000000
 augmentation part      672.0000000 magnetization      48.0000000

 Free energy of the ion-electron system (eV)
  ---------------------------------------------------
  alpha Z        PSCENC =      2652.81237852
  Ewald energy   TEWEN  =    -41907.38452109
  -Hartree energ DENC   =    -25707.62819314
  -exchange      EXHF   =         0.00000000
  -V(xc)+E(xc)   XCENC  =      3605.69173511
  PAW double counting   =     55594.23204139   -59034.67079123
  entropy T*S    EENTRO =        -0.00000008
  eigenvalues    EBANDS =    -10278.66438203
  atomic energy  EATOM  =     73862.19814772
  Solvation  Ediel_sol  =         0.00000000
  ---------------------------------------------------
  free energy    TOTEN  =     -1213.41358483 eV

  energy without entropy =    -1213.41358475  energy(sigma->0) =    -1213.41358479


--------------------------------------------------------------------------------------------------------




--------------------------------------- Iteration      1(  11)  ---------------------------------------


    EDDIAG:  cpu time    3.8406: real time    3.8449
  RMM-DIIS:  cpu time   15.1726: real time   15.1946
    ORTHCH:  cpu time    1.1547: real time    1.1607
       DOS:  cpu time    0.0013: real time    0.0013
    --------------------------------------------
      LOOP:  cpu time   20.1692: real time   20.2015

 eigenvalue-minimisations  : 21672
 total energy-change (2. order) : 0.6291896E-01  (-0.4638677E+00)
 number of electron     672.0000000 magnetization      48.0000000
 augmentation part      672.0000000 magnetization      48.0000000

 Free energy of the ion-electron system (eV)
  ---------------------------------------------------
  alpha Z        PSCENC =      2652.81237852
  Ewald energy   TEWEN  =    -41907.38452109
  -Hartree energ DENC   =    -25707.62819314
  -exchange      EXHF   =         0.00000000
  -V(xc)+E(xc)   XCENC  =      3605.69173511
  PAW double counting   =     55594.23204139   -59034.67079123
  entropy T*S    EENTRO =        -0.00000006
  eigenvalues    EBANDS =    -10278.60146308
  atomic energy  EATOM  =     73862.19814772
  Solvation  Ediel_sol  =         0.00000000
  ---------------------------------------------------
  free energy    TOTEN  =     -1213.35066587 eV

  energy without entropy =    -1213.35066581  energy(sigma->0) =    -1213.35066584


--------------------------------------------------------------------------------------------------------




--------------------------------------- Iteration      1(  12)  ---------------------------------------


    EDDIAG:  cpu time    3.7434: real time    3.7457
  RMM-DIIS:  cpu time   16.0917: real time   16.1014
    ORTHCH:  cpu time    1.1482: real time    1.1504
       DOS:  cpu time    0.0013: real time    0.0013
    CHARGE:  cpu time    1.3442: real time    1.3451
    MIXING:  cpu time    0.0014: real time    0.0015
    --------------------------------------------
      LOOP:  cpu time   22.3302: real time   22.3454

 eigenvalue-minimisations  : 22765
 total energy-change (2. order) : 0.5003162E-01  (-0.6236216E-01)
 number of electron     672.0000155 magnetization      47.9999997
 augmentation part      239.0077082 magnetization      29.0231951

 Broyden mixing:
  rms(total) = 0.12517E+02    rms(broyden)= 0.12508E+02
  rms(prec ) = 0.14383E+02
  weight for this iteration     100.00

 Free energy of the ion-electron system (eV)
  ---------------------------------------------------
  alpha Z        PSCENC =      2652.81237852
  Ewald energy   TEWEN  =    -41907.38452109
  -Hartree energ DENC   =    -25707.62819314
  -exchange      EXHF   =         0.00000000
  -V(xc)+E(xc)   XCENC  =      3605.69173511
  PAW double counting   =     55594.23204139   -59034.67079123
  entropy T*S    EENTRO =        -0.00000006
  eigenvalues    EBANDS =    -10278.55143147
  atomic energy  EATOM  =     73862.19814772
  Solvation  Ediel_sol  =         0.00000000
  ---------------------------------------------------
  free energy    TOTEN  =     -1213.30063425 eV

  energy without entropy =    -1213.30063419  energy(sigma->0) =    -1213.30063422


--------------------------------------------------------------------------------------------------------




--------------------------------------- Iteration      1(  13)  ---------------------------------------


    POTLOK:  cpu time    0.1996: real time    0.2007
    SETDIJ:  cpu time    3.2547: real time    3.2555
    EDDIAG:  cpu time    3.7166: real time    3.8012
  RMM-DIIS:  cpu time   13.0458: real time   13.0522
    ORTHCH:  cpu time    1.1728: real time    1.1753
       DOS:  cpu time    0.0014: real time    0.0014
    CHARGE:  cpu time    1.3399: real time    1.3418
    MIXING:  cpu time    0.0012: real time    0.0013
    --------------------------------------------
      LOOP:  cpu time   22.7319: real time   22.8294

 eigenvalue-minimisations  : 17338
 total energy-change (2. order) : 0.2225885E+03  (-0.1394368E+03)
 number of electron     672.0000024 magnetization      48.0000001
 augmentation part      269.3234391 magnetization      26.3656211

 Broyden mixing:
  rms(total) = 0.14082E+02    rms(broyden)= 0.14079E+02
  rms(prec ) = 0.15872E+02
  weight for this iteration     100.00

 eigenvalues of (default mixing * dielectric matrix)
  average eigenvalue GAMMA=   0.3148
  0.3148

 Free energy of the ion-electron system (eV)
  ---------------------------------------------------
  alpha Z        PSCENC =      2652.81237852
  Ewald energy   TEWEN  =    -41907.38452109
  -Hartree energ DENC   =    -25029.78178807
  -exchange      EXHF   =         0.00000000
  -V(xc)+E(xc)   XCENC  =      3695.75471794
  PAW double counting   =     59851.14860841   -63276.07377634
  entropy T*S    EENTRO =        -0.06217905
  eigenvalues    EBANDS =    -10839.32369149
  atomic energy  EATOM  =     73862.19814772
  Solvation  Ediel_sol  =         0.00000000
  ---------------------------------------------------
  free energy    TOTEN  =      -990.71210345 eV

  energy without entropy =     -990.64992440  energy(sigma->0) =     -990.68101392


--------------------------------------------------------------------------------------------------------




--------------------------------------- Iteration      1(  14)  ---------------------------------------


    POTLOK:  cpu time    0.2054: real time    0.2067
    SETDIJ:  cpu time    3.2539: real time    3.2555
    EDDIAG:  cpu time    3.7318: real time    3.7348
  RMM-DIIS:  cpu time   13.5208: real time   13.5733
    ORTHCH:  cpu time    1.1627: real time    1.1656
       DOS:  cpu time    0.0011: real time    0.0011
    CHARGE:  cpu time    1.3408: real time    1.3424
    MIXING:  cpu time    0.0008: real time    0.0008
    --------------------------------------------
      LOOP:  cpu time   23.2174: real time   23.2803

 eigenvalue-minimisations  : 17781
 total energy-change (2. order) : 0.7668043E+02  (-0.1910935E+02)
 number of electron     672.0000107 magnetization      48.0000000
 augmentation part      246.5850978 magnetization      32.1738132

 Broyden mixing:
  rms(total) = 0.52263E+01    rms(broyden)= 0.52217E+01
  rms(prec ) = 0.56553E+01
  weight for this iteration     100.00

 eigenvalues of (default mixing * dielectric matrix)
  average eigenvalue GAMMA=   0.7266
  1.0961  0.3572

 Free energy of the ion-electron system (eV)
  ---------------------------------------------------
  alpha Z        PSCENC =      2652.81237852
  Ewald energy   TEWEN  =    -41907.38452109
  -Hartree energ DENC   =    -25643.66786372
  -exchange      EXHF   =         0.00000000
  -V(xc)+E(xc)   XCENC  =      3673.20270678
  PAW double counting   =     63255.18110723   -66737.05845527
  entropy T*S    EENTRO =        -0.00000000
  eigenvalues    EBANDS =    -10069.31516980
  atomic energy  EATOM  =     73862.19814772
  Solvation  Ediel_sol  =         0.00000000
  ---------------------------------------------------
  free energy    TOTEN  =      -914.03166963 eV

  energy without entropy =     -914.03166963  energy(sigma->0) =     -914.03166963


--------------------------------------------------------------------------------------------------------




--------------------------------------- Iteration      1(  15)  ---------------------------------------


    POTLOK:  cpu time    0.2009: real time    0.2021
    SETDIJ:  cpu time    3.2486: real time    3.2494
    EDDIAG:  cpu time    3.7343: real time    3.7448
  RMM-DIIS:  cpu time   13.6328: real time   13.6695
    ORTHCH:  cpu time    1.1609: real time    1.1634
       DOS:  cpu time    0.0011: real time    0.0011
    CHARGE:  cpu time    1.3411: real time    1.3418
    MIXING:  cpu time    0.0006: real time    0.0006
    --------------------------------------------
      LOOP:  cpu time   23.3204: real time   23.3728

 eigenvalue-minimisations  : 18420
 total energy-change (2. order) : 0.1375822E+02  (-0.2208753E+01)
 number of electron     672.0000091 magnetization      47.9999998
 augmentation part      249.6965353 magnetization      33.8114377

 Broyden mixing:
  rms(total) = 0.21623E+01    rms(broyden)= 0.21620E+01
  rms(prec ) = 0.22457E+01
  weight for this iteration     100.00

 eigenvalues of (default mixing * dielectric matrix)
  average eigenvalue GAMMA=   0.9385
  1.6835  0.3814  0.7507

 Free energy of the ion-electron system (eV)
  ---------------------------------------------------
  alpha Z        PSCENC =      2652.81237852
  Ewald energy   TEWEN  =    -41907.38452109
  -Hartree energ DENC   =    -25559.67913285
  -exchange      EXHF   =         0.00000000
  -V(xc)+E(xc)   XCENC  =      3705.91065631
  PAW double counting   =     67326.69388078   -70849.01985344
  entropy T*S    EENTRO =        -0.00000000
  eigenvalues    EBANDS =    -10131.80500450
  atomic energy  EATOM  =     73862.19814772
  Solvation  Ediel_sol  =         0.00000000
  ---------------------------------------------------
  free energy    TOTEN  =      -900.27344855 eV

  energy without entropy =     -900.27344855  energy(sigma->0) =     -900.27344855


--------------------------------------------------------------------------------------------------------




--------------------------------------- Iteration      1(  16)  ---------------------------------------


    POTLOK:  cpu time    0.2093: real time    0.2094
    SETDIJ:  cpu time    3.2845: real time    3.2853
    EDDIAG:  cpu time    3.7235: real time    3.7277
  RMM-DIIS:  cpu time   13.1979: real time   13.2070
    ORTHCH:  cpu time    1.1566: real time    1.1596
       DOS:  cpu time    0.0010: real time    0.0010
    CHARGE:  cpu time    1.3428: real time    1.3432
    MIXING:  cpu time    0.0008: real time    0.0008
    --------------------------------------------
      LOOP:  cpu time   22.9166: real time   22.9339

 eigenvalue-minimisations  : 17454
 total energy-change (2. order) :-0.1494753E+01  (-0.7142307E+00)
 number of electron     672.0000085 magnetization      47.9999996
 augmentation part      251.1465530 magnetization      33.9113171

 Broyden mixing:
  rms(total) = 0.14401E+01    rms(broyden)= 0.14396E+01
  rms(prec ) = 0.15306E+01
  weight for this iteration     100.00

 eigenvalues of (default mixing * dielectric matrix)
  average eigenvalue GAMMA=   0.9666
  2.0568  0.9007  0.3876  0.5214

 Free energy of the ion-electron system (eV)
  ---------------------------------------------------
  alpha Z        PSCENC =      2652.81237852
  Ewald energy   TEWEN  =    -41907.38452109
  -Hartree energ DENC   =    -25510.20070029
  -exchange      EXHF   =         0.00000000
  -V(xc)+E(xc)   XCENC  =      3706.96368853
  PAW double counting   =     70201.75779986   -73753.43626669
  entropy T*S    EENTRO =        -0.00000000
  eigenvalues    EBANDS =    -10154.47872831
  atomic energy  EATOM  =     73862.19814772
  Solvation  Ediel_sol  =         0.00000000
  ---------------------------------------------------
  free energy    TOTEN  =      -901.76820175 eV

  energy without entropy =     -901.76820175  energy(sigma->0) =     -901.76820175


--------------------------------------------------------------------------------------------------------




--------------------------------------- Iteration      1(  17)  ---------------------------------------


    POTLOK:  cpu time    0.2090: real time    0.2104
    SETDIJ:  cpu time    3.2864: real time    3.2898
    EDDIAG:  cpu time    3.8415: real time    3.8597
  RMM-DIIS:  cpu time   13.6471: real time   13.6566
    ORTHCH:  cpu time    1.1535: real time    1.1560
       DOS:  cpu time    0.0010: real time    0.0010
    CHARGE:  cpu time    1.3416: real time    1.3424
    MIXING:  cpu time    0.0016: real time    0.0016
    --------------------------------------------
      LOOP:  cpu time   23.4817: real time   23.5175

 eigenvalue-minimisations  : 18478
 total energy-change (2. order) : 0.1659508E+00  (-0.7686386E-01)
 number of electron     672.0000085 magnetization      47.9999995
 augmentation part      251.0863418 magnetization      33.9110388

 Broyden mixing:
  rms(total) = 0.77150E+00    rms(broyden)= 0.77138E+00
  rms(prec ) = 0.87017E+00
  weight for this iteration     100.00

 eigenvalues of (default mixing * dielectric matrix)
  average eigenvalue GAMMA=   0.9936
  2.2209  1.1186  0.3782  0.6956  0.5549

 Free energy of the ion-electron system (eV)
  ---------------------------------------------------
  alpha Z        PSCENC =      2652.81237852
  Ewald energy   TEWEN  =    -41907.38452109
  -Hartree energ DENC   =    -25501.79505953
  -exchange      EXHF   =         0.00000000
  -V(xc)+E(xc)   XCENC  =      3704.30892004
  PAW double counting   =     71076.55841691   -74636.82003013
  entropy T*S    EENTRO =        -0.00000000
  eigenvalues    EBANDS =    -10151.48050333
  atomic energy  EATOM  =     73862.19814772
  Solvation  Ediel_sol  =         0.00000000
  ---------------------------------------------------
  free energy    TOTEN  =      -901.60225090 eV

  energy without entropy =     -901.60225090  energy(sigma->0) =     -901.60225090


--------------------------------------------------------------------------------------------------------




--------------------------------------- Iteration      1(  18)  ---------------------------------------


    POTLOK:  cpu time    0.2001: real time    0.2021
    SETDIJ:  cpu time    3.2853: real time    3.2861
    EDDIAG:  cpu time    3.7386: real time    3.7418
  RMM-DIIS:  cpu time   13.2633: real time   13.3211
    ORTHCH:  cpu time    1.1675: real time    1.1698
       DOS:  cpu time    0.0012: real time    0.0012
    CHARGE:  cpu time    1.3448: real time    1.3456
    MIXING:  cpu time    0.0009: real time    0.0009
    --------------------------------------------
      LOOP:  cpu time   23.0017: real time   23.0685

 eigenvalue-minimisations  : 17723
 total energy-change (2. order) : 0.4021020E+00  (-0.7133567E-01)
 number of electron     672.0000089 magnetization      47.9999994
 augmentation part      250.5935022 magnetization      33.8786281

 Broyden mixing:
  rms(total) = 0.28573E+00    rms(broyden)= 0.28546E+00
  rms(prec ) = 0.30322E+00
  weight for this iteration     100.00

 eigenvalues of (default mixing * dielectric matrix)
  average eigenvalue GAMMA=   1.0175
  2.4626  1.3478  0.8542  0.3799  0.5848  0.4758

 Free energy of the ion-electron system (eV)
[...]
   4      -0.872    -0.959     1.831     0.068     0.083    -0.002
   5      -0.986    -0.919     1.905    -0.013     0.038    -0.078
   6      -1.029    -0.879     1.909     0.003    -0.086     0.122
   7      -1.049    -0.909     1.958    -0.001    -0.120     0.008
   8      -0.631    -0.855     1.485     0.016    -0.147     0.572
   9      -0.853    -0.704     1.557    -0.096     0.413     0.284
  10      -0.533    -0.786     1.319    -0.116     0.043    -0.115
  11      -0.673    -0.606     1.279    -0.066     0.058     0.048
  12      -0.812    -0.681     1.493     0.098     0.499    -0.330
  13      -0.610    -0.518     1.128    -0.099    -0.153    -0.150
  14      -0.816    -0.788     1.604     0.132     0.455    -0.248
  15      -0.834    -0.808     1.642     0.148    -0.518     0.202
  16      -0.726    -0.838     1.565    -0.028    -0.023    -0.578
  17       1.593     1.335    -2.929     0.002     0.026    -0.038
  18       1.385     1.474    -2.858     0.050    -0.036     0.169
  19       1.362     1.447    -2.809    -0.237    -0.074    -0.061
  20       1.339     1.508    -2.847     0.062     0.035    -0.018
  21       1.436     1.506    -2.943     0.100     0.012    -0.024
  22       1.641     1.322    -2.963    -0.042    -0.071    -0.032
  23       1.313     1.526    -2.839    -0.076     0.037    -0.008
  24       1.490     1.443    -2.933     0.014     0.167    -0.073
  25       0.654    -0.837     0.183     0.819     0.731     0.557
  26       1.545     0.676    -2.221     0.013     1.321     0.727
  27       0.499     0.776    -1.275    -0.639    -0.831    -0.563
  28      -0.612    -0.469     1.081    -0.658     0.553    -0.451
  29      -0.211     0.369    -0.158     0.154     0.133    -0.646
  30      -0.029    -0.667     0.697     0.078    -0.585     1.607
  31      -0.946     0.557     0.389     0.616     0.698    -0.010
  32       1.678    -1.213    -0.465    -0.337    -1.122     0.401
  33       0.988    -0.306    -0.682    -0.429    -0.067    -0.921
  34      -1.744     0.712     1.032     0.422    -0.986    -1.742
  35      -0.393    -0.629     1.022     0.557     1.142     0.752
  36      -0.741     0.437     0.304    -0.545     0.324     0.309
  37       0.035    -0.563     0.528     1.172    -0.294     0.471
  38       0.083     1.433    -1.516     0.973     0.908    -2.797
  39      -0.965    -1.302     2.268     0.745     0.498     0.662
  40       0.655    -0.599    -0.056     0.678    -0.067     0.527
  41      -1.739     4.004    -2.265    -5.739     3.565    -3.422
  42      -2.165     3.022    -0.857     4.485     4.808     3.465
  43       7.259    -6.470    -0.789    -1.948    -3.004    -0.149
  44      -2.735     3.544    -0.809     4.264    -1.144    -3.169
  45      -1.811     0.966     0.845    -3.638    -2.395     2.504
  46       2.787    -5.197     2.410     0.711     5.143    -1.410
  47      -4.507     3.018     1.490    -4.066     2.882    -2.983
  48       5.031    -4.307    -0.724     0.750    -4.184     1.987
  49      -2.812     0.474     2.339     5.307     0.874     5.036
  50       8.764    -6.287    -2.477    -1.585     4.282    -0.085
  51      -3.132     2.663     0.470    -6.171    -1.893     5.370
  52      -3.139     1.972     1.167     4.534    -2.022    -4.881
  53      -4.038     4.094    -0.056    -3.997     3.043    -2.260
  54      -2.287     3.452    -1.165     5.206     1.766     4.136
  55       5.613    -5.910     0.297    -1.872    -4.595     1.531
  56      -2.674     1.005     1.670     5.306    -4.101    -3.726
  57      -2.496     1.731     0.765    -5.732    -2.318     3.892
  58       7.676    -6.093    -1.583    -1.154     3.009     0.119
  59      -3.321     0.496     2.824    -3.351     0.933    -5.354
  60       2.847    -6.438     3.591    -0.780    -5.238     1.450
  61      -3.214     2.132     1.082     5.929     1.241     4.758
  62       7.149    -6.287    -0.862     1.206     4.690    -0.261
  63      -3.760     2.878     0.882    -5.115    -4.757     3.733
  64      -2.931     1.895     1.036     5.169    -3.772    -3.330
  65      -2.269     1.205     1.065    -6.625     2.110    -6.774
  66      -3.192     4.004    -0.812     4.176     1.049     5.331
  67       6.412    -6.357    -0.054     0.275    -3.474     1.205
  68      -3.601     2.148     1.453     4.623    -2.226    -3.261
  69      -3.895     2.018     1.877    -4.569    -2.036     2.976
  70       5.604    -5.630     0.027     1.069     4.334    -1.377
  71      -5.192     5.003     0.189    -5.286     2.189    -4.325
  72       3.951    -5.880     1.929    -0.894    -5.572    -1.660
  73      -6.032     3.468     2.564     4.083     1.468     3.497
  74       4.495    -5.753     1.258     0.226     5.824     1.625
  75      -2.519     1.159     1.360    -4.214    -1.853     5.605
  76      -4.684     3.560     1.124     4.628    -1.853    -3.925
  77       0.033    -0.553     0.520    -4.086     1.618    -4.453
  78      -2.047     4.132    -2.085     5.608     2.230     4.903
  79       4.961    -3.712    -1.249     1.282    -4.022    -1.103
  80      -2.706     0.455     2.251     4.419    -3.834    -3.459
  81      -3.495     2.175     1.320    -5.574    -2.489     4.803
  82       3.794    -5.643     1.849     0.379     5.028     1.523
  83      -2.615     0.218     2.397    -4.483     3.983    -3.090
  84       4.406    -6.475     2.069     1.031    -4.417    -2.856
  85      -5.894     5.873     0.021     5.044     2.436     2.087
  86       5.576    -5.926     0.350     0.864     4.258     0.298
  87      -1.820     1.269     0.550    -5.605    -2.209     2.863
  88       0.570     1.400    -1.970     6.354    -1.946    -2.887
 ---------------------------------------------------------------------


 Total hyperfine coupling parameters after diagonalization (MHz)
 (convention: |A_zz| > |A_xx| > |A_yy|)
 ----------------------------------------------------------------------
  ion      A_xx      A_yy      A_zz     asymmetry (A_yy - A_xx)/ A_zz 
 ----------------------------------------------------------------------
   1       1.895     1.590     4.405      -0.069
   2       2.210     1.810     4.434      -0.090
   3       2.100     1.676     4.197      -0.101
   4       0.526     0.366     3.196      -0.050
   5      -0.366    -0.296     2.531       0.028
   6       1.279     1.131     4.080      -0.036
   7       0.102    -0.043     2.974      -0.049
   8       1.960     1.599     4.219      -0.086
   9       2.143     1.805     4.458      -0.076
  10       1.238     0.894     3.055      -0.112
  11       1.331     1.181     3.178      -0.047
  12       2.098     1.721     4.364      -0.086
  13       1.687     1.446     3.296      -0.073
  14       2.484     2.125     4.864      -0.074
  15       1.991     1.603     4.433      -0.087
  16       1.954     1.702     4.373      -0.058
  17      14.517    10.251    14.774      -0.289
  18      13.932     9.703    14.069      -0.301
  19      12.144     8.167    12.623      -0.315
  20      13.531     9.365    13.740      -0.303
  21      14.474    10.166    14.686      -0.293
  22      14.941    10.659    15.272      -0.280
  23      13.697     9.569    13.958      -0.296
  24      13.827     9.444    13.883      -0.316
  25      94.879    93.985    96.818      -0.009
  26      95.494    91.947    96.729      -0.037
  27      98.134    95.772    98.896      -0.024
  28      96.185    95.225    97.892      -0.010
  29      95.174    94.629    96.111      -0.006
  30      94.505    92.736    96.421      -0.018
  31     100.590    98.697   101.039      -0.019
  32      95.781    95.207    98.826      -0.006
  33     103.027   101.221   103.845      -0.017
  34      96.287    95.000    99.914      -0.013
  35      94.209    93.969    97.071      -0.002
  36      95.223    93.800    95.618      -0.015
  37      92.695    90.418    92.991      -0.024
  38      93.170    89.047    95.859      -0.043
  39      97.851    96.535   100.945      -0.013
  40      94.220    92.920    95.035      -0.014
  41       5.213     2.683    18.215      -0.139
  42       5.795     1.476    16.811      -0.257
  43       5.940     0.816    16.090      -0.318
  44       4.978     2.203    14.261      -0.195
  45       5.429     2.466    12.696      -0.233
  46       5.810     1.786    15.442      -0.261
  47       5.815     0.041    14.048      -0.411
  48       6.518     2.081    15.156      -0.293
  49       9.237     2.661    18.231      -0.361
  50       5.847     3.201    20.049      -0.132
  51       5.753     0.948    18.179      -0.264
  52       2.001    -1.386    12.936      -0.262
  53       5.884     0.362    13.975      -0.395
  54       4.291     1.886    15.948      -0.151
  55       5.410     1.388    16.380      -0.246
  56       5.682     1.191    16.772      -0.268
  57       6.128     1.509    16.422      -0.281
  58       8.260     4.462    19.330      -0.197
  59       3.737    -0.188    13.591      -0.289
  60       6.855     2.207    17.488      -0.266
  61       7.165     1.215    17.439      -0.341
  62       6.322     2.682    18.561      -0.196
  63       4.162    -1.400    15.516      -0.358
  64       3.876    -0.847    14.133      -0.334
  65       6.405     0.682    19.966      -0.287
  66      -3.343    -0.707    11.241       0.235
  67       5.908     0.534    15.113      -0.356
  68       6.153     1.116    14.653      -0.344
  69       4.801    -0.984    12.430      -0.465
  70       5.662     0.897    15.243      -0.313
  71       9.026     3.823    20.987      -0.248
  72      -3.569     1.295    11.783       0.413
  73       7.746     0.400    15.699      -0.468
  74       7.412     3.879    19.165      -0.184
  75       2.871    -0.317    14.103      -0.226
  76       5.421     0.171    15.202      -0.345
  77       6.913     2.778    15.116      -0.274
  78      -2.123    -0.759    13.339       0.102
  79       3.044     1.929    13.261      -0.084
  80       3.245    -0.824    13.254      -0.307
  81       5.275     0.660    16.861      -0.274
  82       8.294     4.367    18.420      -0.213
  83       7.742     3.212    17.311      -0.262
  84       7.207     0.764    16.375      -0.393
  85       9.152     1.655    18.400      -0.407
  86       5.077     1.112    15.120      -0.262
  87       4.407    -0.335    13.191      -0.359
  88       6.079     3.563    17.549      -0.143
 ---------------------------------------------------------------------



--------------------------------------------------------------------------------------------------------


 stress matrix after NEB project (eV)
    -48.85993      1.72719     -3.43061
      1.74906    -41.87084     -2.91681
     -3.42308     -2.89739    -62.90876
  FORCES: max atom, RMS     2.685961    1.256179
  FORCE total and by dimension   11.784005    2.437422
  Stress total and by dimension   90.246346   62.908757
     LOOP+:  cpu time  612.1376: real time  613.3517
    4ORBIT:  cpu time    0.0000: real time    0.0000
 


 total charge     
 
# of ion       s       p       d       tot
------------------------------------------
    1        0.052   5.994   0.000   6.046
    2        0.053   5.996   0.000   6.049
    3        0.052   5.994   0.000   6.047
    4        0.052   5.996   0.000   6.048
    5        0.050   5.994   0.000   6.044
    6        0.049   5.993   0.000   6.042
    7        0.051   5.996   0.000   6.047
    8        0.053   5.997   0.000   6.050
    9        0.051   5.993   0.000   6.044
   10        0.048   5.990   0.000   6.038
   11        0.046   5.987   0.000   6.033
   12        0.054   5.997   0.000   6.050
   13        0.048   5.990   0.000   6.037
   14        0.061   6.005   0.000   6.067
   15        0.049   5.991   0.000   6.041
   16        0.051   5.993   0.000   6.044
   17        0.148   6.127   0.084   6.359
   18        0.152   6.130   0.084   6.366
   19        0.151   6.130   0.085   6.365
   20        0.141   6.116   0.074   6.331
   21        0.151   6.129   0.084   6.364
   22        0.150   6.131   0.087   6.368
   23        0.145   6.121   0.078   6.344
   24        0.150   6.131   0.087   6.369
   25        0.362   6.424   4.802  11.588
   26        0.373   6.450   4.833  11.656
   27        0.370   6.442   4.824  11.636
   28        0.369   6.440   4.807  11.617
   29        0.376   6.452   4.841  11.669
   30        0.373   6.451   4.825  11.650
   31        0.365   6.432   4.812  11.609
   32        0.374   6.451   4.832  11.657
   33        0.360   6.419   4.810  11.589
   34        0.378   6.460   4.827  11.665
   35        0.392   6.491   4.870  11.754
   36        0.383   6.469   4.849  11.701
   37        0.390   6.488   4.868  11.746
   38        0.368   6.439   4.820  11.627
   39        0.373   6.450   4.824  11.647
   40        0.392   6.491   4.868  11.750
   41        1.599   3.450   0.000   5.049
   42        1.600   3.485   0.000   5.085
   43        1.602   3.505   0.000   5.107
   44        1.597   3.534   0.000   5.131
   45        1.593   3.543   0.000   5.136
   46        1.596   3.526   0.000   5.122
   47        1.598   3.502   0.000   5.100
   48        1.596   3.494   0.000   5.090
   49        1.601   3.539   0.000   5.140
   50        1.602   3.480   0.000   5.082
   51        1.601   3.496   0.000   5.097
   52        1.599   3.501   0.000   5.100
   53        1.599   3.517   0.000   5.116
   54        1.598   3.496   0.000   5.094
   55        1.599   3.513   0.000   5.112
   56        1.599   3.502   0.000   5.101
   57        1.602   3.503   0.000   5.105
   58        1.600   3.483   0.000   5.083
   59        1.597   3.509   0.000   5.106
   60        1.601   3.513   0.000   5.114
   61        1.599   3.499   0.000   5.099
   62        1.598   3.466   0.000   5.064
   63        1.598   3.488   0.000   5.087
   64        1.599   3.510   0.000   5.110
   65        1.605   3.495   0.000   5.100
   66        1.598   3.479   0.000   5.077
   67        1.598   3.517   0.000   5.114
   68        1.598   3.509   0.000   5.106
   69        1.598   3.521   0.000   5.118
   70        1.598   3.516   0.000   5.114
   71        1.601   3.507   0.000   5.108
   72        1.596   3.487   0.000   5.083
   73        1.600   3.542   0.000   5.141
   74        1.606   3.526   0.000   5.132
   75        1.600   3.489   0.000   5.089
   76        1.598   3.514   0.000   5.113
   77        1.598   3.498   0.000   5.096
   78        1.601   3.434   0.000   5.035
   79        1.599   3.484   0.000   5.083
   80        1.599   3.521   0.000   5.120
   81        1.602   3.500   0.000   5.103
   82        1.601   3.546   0.000   5.147
   83        1.601   3.544   0.000   5.144
   84        1.599   3.494   0.000   5.093
   85        1.600   3.490   0.000   5.090
   86        1.597   3.492   0.000   5.089
   87        1.599   3.495   0.000   5.094
   88        1.598   3.478   0.000   5.076
--------------------------------------------------
tot         84.771 416.303  77.974 579.049
 


 magnetization (x)
 
# of ion       s       p       d       tot
------------------------------------------
    1        0.002   0.000   0.000   0.002
    2        0.002   0.000   0.000   0.002
    3        0.002   0.000   0.000   0.002
    4        0.001   0.001   0.000   0.002
    5        0.001   0.000   0.000   0.001
    6        0.001   0.001   0.000   0.002
    7        0.001   0.001   0.000   0.001
    8        0.002   0.000   0.000   0.002
    9        0.002   0.000   0.000   0.002
   10        0.001   0.001   0.000   0.002
   11        0.001   0.001   0.000   0.002
   12        0.002  -0.000   0.000   0.002
   13        0.002   0.001   0.000   0.002
   14        0.002   0.000   0.000   0.002
   15        0.002   0.000   0.000   0.002
   16        0.002   0.000   0.000   0.002
   17        0.007   0.002   0.001   0.011
   18        0.007   0.002   0.001   0.010
   19        0.006   0.001   0.001   0.009
   20        0.007   0.002   0.001   0.010
   21        0.007   0.002   0.001   0.011
   22        0.007   0.003   0.001   0.011
   23        0.007   0.002   0.001   0.011
   24        0.007   0.002   0.001   0.010
   25        0.014   0.028   2.784   2.826
   26        0.015   0.029   2.747   2.791
   27        0.016   0.030   2.756   2.802
   28        0.015   0.029   2.769   2.814
   29        0.014   0.029   2.750   2.794
   30        0.015   0.029   2.763   2.806
   31        0.016   0.030   2.779   2.824
   32        0.016   0.031   2.751   2.797
   33        0.017   0.030   2.789   2.837
   34        0.016   0.031   2.749   2.796
   35        0.015   0.030   2.726   2.771
   36        0.015   0.030   2.735   2.780
   37        0.014   0.031   2.721   2.766
   38        0.014   0.028   2.759   2.801
   39        0.016   0.030   2.764   2.810
   40        0.014   0.030   2.716   2.760
   41        0.002   0.031   0.000   0.033
   42        0.002   0.031   0.000   0.033
   43        0.002   0.034   0.000   0.036
   44        0.002   0.027   0.000   0.028
   45        0.002   0.031   0.000   0.033
   46        0.002   0.042   0.000   0.044
   47        0.002   0.027   0.000   0.029
   48        0.002   0.028   0.000   0.030
   49        0.002   0.063   0.000   0.065
   50        0.002   0.046   0.000   0.048
   51        0.002   0.039   0.000   0.041
   52        0.001   0.019   0.000   0.020
   53        0.002   0.023   0.000   0.025
   54        0.002   0.029   0.000   0.031
   55        0.002   0.040   0.000   0.042
   56        0.002   0.043   0.000   0.045
   57        0.002   0.037   0.000   0.039
   58        0.003   0.046   0.000   0.049
   59        0.002   0.020   0.000   0.022
   60        0.002   0.046   0.000   0.048
   61        0.002   0.042   0.000   0.044
   62        0.002   0.039   0.000   0.042
   63        0.002   0.027   0.000   0.028
   64        0.002   0.021   0.000   0.023
   65        0.002   0.040   0.000   0.042
   66        0.001  -0.011   0.000  -0.010
   67        0.002   0.034   0.000   0.036
   68        0.002   0.028   0.000   0.030
   69        0.001   0.027   0.000   0.028
   70        0.002   0.038   0.000   0.040
   71        0.003   0.059   0.000   0.062
   72        0.001   0.002   0.000   0.003
   73        0.002   0.058   0.000   0.060
   74        0.002   0.058   0.000   0.060
   75        0.002   0.010   0.000   0.012
   76        0.002   0.039   0.000   0.041
   77        0.002   0.039   0.000   0.041
   78        0.002  -0.017   0.000  -0.015
   79        0.002   0.011   0.000   0.013
   80        0.001   0.018   0.000   0.020
   81        0.002   0.034   0.000   0.036
   82        0.002   0.065   0.000   0.067
   83        0.002   0.055   0.000   0.057
   84        0.002   0.032   0.000   0.034
   85        0.003   0.048   0.000   0.051
   86        0.002   0.022   0.000   0.024
   87        0.002   0.023   0.000   0.024
   88        0.002   0.039   0.000   0.041
--------------------------------------------------
tot          0.418   2.083  44.066  46.567
 

 total amount of memory used by VASP MPI-rank0    88173. kBytes
=======================================================================

   base      :      30000. kBytes
   nonlr-proj:      13664. kBytes
   fftplans  :        992. kBytes
   grid      :      21513. kBytes
   one-center:       2737. kBytes
   wavefun   :      19267. kBytes
 
  
  
 General timing and accounting informations for this job:
 ========================================================
  
                  Total CPU time used (sec):      630.846
                            User time (sec):      625.128
                          System time (sec):        5.718
                         Elapsed time (sec):      634.792
  
                   Maximum memory used (kb):      180892.
                   Average memory used (kb):           0.
  
                          Minor page faults:       287631
                          Major page faults:            0
                 Voluntary context switches:         3811
