 vasp.5.4.4.18Apr17-6-g9f103f2a35 (build Dec 02 2020 12:53:39) complex          
  
 executed on             LinuxIFC date 2021.08.02  20:49:42
 running on   96 total cores
 distrk:  each k-point on   96 cores,    1 groups
 distr:  one band on NCORES_PER_BAND=   1 cores,   96 groups


--------------------------------------------------------------------------------------------------------


 INCAR:
 POTCAR:    PAW_PBE Na_pv 19Sep2006               
 POTCAR:    PAW_PBE Mg_pv 13Apr2007               
 POTCAR:    PAW_PBE Mn_pv 02Aug2007               
 POTCAR:    PAW_PBE O 08Apr2002                   

 ----------------------------------------------------------------------------- 
|                                                                             |
|           W    W    AA    RRRRR   N    N  II  N    N   GGGG   !!!           |
|           W    W   A  A   R    R  NN   N  II  NN   N  G    G  !!!           |
|           W    W  A    A  R    R  N N  N  II  N N  N  G       !!!           |
|           W WW W  AAAAAA  RRRRR   N  N N  II  N  N N  G  GGG   !            |
|           WW  WW  A    A  R   R   N   NN  II  N   NN  G    G                |
|           W    W  A    A  R    R  N    N  II  N    N   GGGG   !!!           |
|                                                                             |
|      For optimal performance we recommend to set                            |
|        NCORE= 4 - approx SQRT( number of cores)                             |
|      NCORE specifies how many cores store one orbital (NPAR=cpu/NCORE).     |
|      This setting can  greatly improve the performance of VASP for DFT.     |
|      The default,   NCORE=1            might be grossly inefficient         |
|      on modern multi-core architectures or massively parallel machines.     |
|      Do your own testing !!!!                                               |
|      Unfortunately you need to use the default for GW and RPA calculations. |
|      (for HF NCORE is supported but not extensively tested yet)             |
|                                                                             |
 ----------------------------------------------------------------------------- 

 POTCAR:    PAW_PBE Na_pv 19Sep2006               
   VRHFIN =Na: p6s1                                                             
   LEXCH  = PE                                                                  
   EATOM  =   766.0439 eV,   56.3026 Ry                                         
                                                                                
   TITEL  = PAW_PBE Na_pv 19Sep2006                                             
   LULTRA =        F    use ultrasoft PP ?                                      
   IUNSCR =        1    unscreen: 0-lin 1-nonlin 2-no                           
   RPACOR =    1.800    partial core radius                                     
   POMASS =   22.990; ZVAL   =    7.000    mass and valenz                      
   RCORE  =    2.200    outmost cutoff radius                                   
   RWIGS  =    2.200; RWIGS  =    1.164    wigner-seitz radius (au A)           
   ENMAX  =  259.561; ENMIN  =  194.671 eV                                      
   ICORE  =        2    local potential                                         
   LCOR   =        T    correct aug charges                                     
   LPAW   =        T    paw PP                                                  
   EAUG   =  368.056                                                            
   DEXC   =    0.000                                                            
   RMAX   =    2.245    core radius for proj-oper                               
   RAUG   =    1.300    factor for augmentation sphere                          
   RDEP   =    2.259    radius for radial grids                                 
   RDEPT  =    1.738    core radius for aug-charge                              
                                                                                
   Atomic configuration                                                         
    5 entries                                                                   
     n  l   j            E        occ.                                          
     1  0  0.50     -1033.6933   2.0000                                         
     2  0  0.50       -56.7526   2.0000                                         
     2  1  1.50       -28.6721   6.0000                                         
     3  0  0.50        -2.7440   1.0000                                         
     3  2  1.50        -1.3606   0.0000                                         
   Description                                                                  
     l       E           TYP  RCUT    TYP  RCUT                                 
     1    -28.6720912     23  2.000                                             
     1      6.8029130     23  2.000                                             
     0     -2.7439560     23  2.200                                             
     0     34.0145650     23  2.200                                             
     2     -1.3605826     23  2.200                                             
  local pseudopotential read in
  partial core-charges read in
  partial kinetic energy density read in
  atomic valenz-charges read in
  non local Contribution for L=           1  read in
    real space projection operators read in
  non local Contribution for L=           1  read in
    real space projection operators read in
  non local Contribution for L=           0  read in
    real space projection operators read in
  non local Contribution for L=           0  read in
    real space projection operators read in
    PAW grid and wavefunctions read in
 
   number of l-projection  operators is LMAX  =           4
   number of lm-projection operators is LMMAX =           8
 
 POTCAR:    PAW_PBE Mg_pv 13Apr2007               
   VRHFIN =Mg: p6s2                                                             
   LEXCH  = PE                                                                  
   EATOM  =  1056.7344 eV,   77.6678 Ry                                         
                                                                                
   TITEL  = PAW_PBE Mg_pv 13Apr2007                                             
   LULTRA =        F    use ultrasoft PP ?                                      
   IUNSCR =        1    unscreen: 0-lin 1-nonlin 2-no                           
   RPACOR =    1.500    partial core radius                                     
   POMASS =   24.305; ZVAL   =    8.000    mass and valenz                      
   RCORE  =    2.000    outmost cutoff radius                                   
   RWIGS  =    2.000; RWIGS  =    1.058    wigner-seitz radius (au A)           
   ENMAX  =  403.929; ENMIN  =  302.947 eV                                      
   RCLOC  =    1.506    cutoff for local pot                                    
   LCOR   =        T    correct aug charges                                     
   LPAW   =        T    paw PP                                                  
   EAUG   =  758.780                                                            
   DEXC   =    0.000                                                            
   RMAX   =    2.045    core radius for proj-oper                               
   RAUG   =    1.300    factor for augmentation sphere                          
   RDEP   =    2.025    radius for radial grids                                 
   RDEPT  =    1.557    core radius for aug-charge                              
                                                                                
   Atomic configuration                                                         
    5 entries                                                                   
     n  l   j            E        occ.                                          
     1  0  0.50     -1259.6230   2.0000                                         
     2  0  0.50       -79.8442   2.0000                                         
     2  1  1.50       -46.6121   6.0000                                         
     3  0  0.50        -4.7055   2.0000                                         
     3  2  1.50        -1.3606   0.0000                                         
   Description                                                                  
     l       E           TYP  RCUT    TYP  RCUT                                 
     1    -46.6121073     23  1.600                                             
     1      2.7211652     23  1.600                                             
     0     -4.7054661     23  2.000                                             
     0     61.2262170     23  2.000                                             
     2     -1.3605826     23  2.000                                             
  local pseudopotential read in
  partial core-charges read in
  partial kinetic energy density read in
  atomic valenz-charges read in
  non local Contribution for L=           1  read in
    real space projection operators read in
  non local Contribution for L=           1  read in
    real space projection operators read in
  non local Contribution for L=           0  read in
    real space projection operators read in
  non local Contribution for L=           0  read in
    real space projection operators read in
  non local Contribution for L=           2  read in
    real space projection operators read in
    PAW grid and wavefunctions read in
 
   number of l-projection  operators is LMAX  =           5
   number of lm-projection operators is LMMAX =          13
 
 POTCAR:    PAW_PBE Mn_pv 02Aug2007               
   VRHFIN =Mn: 3p4s3d                                                           
   LEXCH  = PE                                                                  
   EATOM  =  2025.2664 eV,  148.8529 Ry                                         
                                                                                
   TITEL  = PAW_PBE Mn_pv 02Aug2007                                             
   LULTRA =        F    use ultrasoft PP ?                                      
   IUNSCR =        1    unscreen: 0-lin 1-nonlin 2-no                           
   RPACOR =    2.080    partial core radius                                     
   POMASS =   54.938; ZVAL   =   13.000    mass and valenz                      
   RCORE  =    2.300    outmost cutoff radius                                   
   RWIGS  =    2.500; RWIGS  =    1.323    wigner-seitz radius (au A)           
   ENMAX  =  269.864; ENMIN  =  202.398 eV                                      
   ICORE  =        3    local potential                                         
   LCOR   =        T    correct aug charges                                     
   LPAW   =        T    paw PP                                                  
   EAUG   =  569.085                                                            
   DEXC   =    0.000                                                            
   RMAX   =    2.343    core radius for proj-oper                               
   RAUG   =    1.300    factor for augmentation sphere                          
   RDEP   =    2.338    radius for radial grids                                 
   RDEPT  =    1.798    core radius for aug-charge                              
                                                                                
   Atomic configuration                                                         
    8 entries                                                                   
     n  l   j            E        occ.                                          
     1  0  0.50     -6424.8287   2.0000                                         
     2  0  0.50      -739.1154   2.0000                                         
     2  1  1.50      -625.3949   6.0000                                         
     3  0  0.50       -81.6100   2.0000                                         
     3  1  1.50       -50.4667   6.0000                                         
     3  2  2.50        -3.3745   6.0000                                         
     4  0  0.50        -4.1331   1.0000                                         
     4  3  2.50        -1.3606   0.0000                                         
   Description                                                                  
     l       E           TYP  RCUT    TYP  RCUT                                 
     1    -50.4666628     23  2.000                                             
     1     -1.3605826     23  2.000                                             
     2     -3.3744729     23  2.300                                             
     2     -4.7350555     23  2.300                                             
     0     -4.1331431     23  2.300                                             
     0      7.6656591     23  2.300                                             
     3      9.5240782     23  2.300                                             
  local pseudopotential read in
  partial core-charges read in
  partial kinetic energy density read in
  atomic valenz-charges read in
  non local Contribution for L=           1  read in
    real space projection operators read in
  non local Contribution for L=           1  read in
    real space projection operators read in
  non local Contribution for L=           2  read in
    real space projection operators read in
  non local Contribution for L=           2  read in
    real space projection operators read in
  non local Contribution for L=           0  read in
    real space projection operators read in
  non local Contribution for L=           0  read in
    real space projection operators read in
    PAW grid and wavefunctions read in
 
   number of l-projection  operators is LMAX  =           6
   number of lm-projection operators is LMMAX =          18
 
 POTCAR:    PAW_PBE O 08Apr2002                   
   VRHFIN =O: s2p4                                                              
   LEXCH  = PE                                                                  
   EATOM  =   432.3788 eV,   31.7789 Ry                                         
                                                                                
   TITEL  = PAW_PBE O 08Apr2002                                                 
   LULTRA =        F    use ultrasoft PP ?                                      
   IUNSCR =        1    unscreen: 0-lin 1-nonlin 2-no                           
   RPACOR =    1.200    partial core radius                                     
   POMASS =   16.000; ZVAL   =    6.000    mass and valenz                      
   RCORE  =    1.520    outmost cutoff radius                                   
   RWIGS  =    1.550; RWIGS  =    0.820    wigner-seitz radius (au A)           
   ENMAX  =  400.000; ENMIN  =  300.000 eV                                      
   ICORE  =        2    local potential                                         
   LCOR   =        T    correct aug charges                                     
   LPAW   =        T    paw PP                                                  
   EAUG   =  605.392                                                            
   DEXC   =    0.000                                                            
   RMAX   =    1.553    core radius for proj-oper                               
   RAUG   =    1.300    factor for augmentation sphere                          
   RDEP   =    1.550    radius for radial grids                                 
   RDEPT  =    1.329    core radius for aug-charge                              
                                                                                
   Atomic configuration                                                         
    4 entries                                                                   
     n  l   j            E        occ.                                          
     1  0  0.50      -514.6923   2.0000                                         
     2  0  0.50       -23.9615   2.0000                                         
     2  1  0.50        -9.0305   4.0000                                         
     3  2  1.50        -9.5241   0.0000                                         
   Description                                                                  
     l       E           TYP  RCUT    TYP  RCUT                                 
     0    -23.9615318     23  1.200                                             
     0     -9.5240782     23  1.200                                             
     1     -9.0304911     23  1.520                                             
     1      8.1634956     23  1.520                                             
     2     -9.5240782      7  1.500                                             
  local pseudopotential read in
  partial core-charges read in
  partial kinetic energy density read in
  kinetic energy density of atom read in
  atomic valenz-charges read in
  non local Contribution for L=           0  read in
    real space projection operators read in
  non local Contribution for L=           0  read in
    real space projection operators read in
  non local Contribution for L=           1  read in
    real space projection operators read in
  non local Contribution for L=           1  read in
    real space projection operators read in
    PAW grid and wavefunctions read in
 
   number of l-projection  operators is LMAX  =           4
   number of lm-projection operators is LMMAX =           8
 
 Optimization of the real space projectors (new method)

 maximal supplied QI-value         = 17.01
 optimisation between [QCUT,QGAM] = [ 10.20, 20.41] = [ 29.16,116.64] Ry 
 Optimized for a Real-space Cutoff    1.30 Angstroem

   l    n(q)    QCUT    max X(q) W(low)/X(q) W(high)/X(q)  e(spline) 
   1      7    10.205     4.940    0.23E-03    0.84E-03    0.11E-06
   1      7    10.205     6.253    0.40E-03    0.13E-02    0.18E-06
   0      8    10.205    37.438    0.23E-03    0.37E-03    0.42E-07
   0      8    10.205     9.606    0.16E-03    0.26E-03    0.31E-07
 Optimization of the real space projectors (new method)

 maximal supplied QI-value         = 18.90
 optimisation between [QCUT,QGAM] = [ 10.20, 20.41] = [ 29.16,116.64] Ry 
 Optimized for a Real-space Cutoff    1.26 Angstroem

   l    n(q)    QCUT    max X(q) W(low)/X(q) W(high)/X(q)  e(spline) 
   1      7    10.205     2.974    0.63E-04    0.14E-03    0.13E-06
   1      7    10.205     4.279    0.11E-03    0.45E-03    0.24E-06
   0      8    10.205    16.381    0.44E-03    0.15E-03    0.55E-07
   0      8    10.205     5.611    0.31E-03    0.11E-03    0.40E-07
   2      7    10.205     4.652    0.50E-03    0.47E-03    0.57E-07
 Optimization of the real space projectors (new method)

 maximal supplied QI-value         = 16.25
 optimisation between [QCUT,QGAM] = [ 10.24, 20.48] = [ 29.35,117.42] Ry 
 Optimized for a Real-space Cutoff    1.34 Angstroem

   l    n(q)    QCUT    max X(q) W(low)/X(q) W(high)/X(q)  e(spline) 
   1      8    10.239     3.658    0.23E-03    0.30E-03    0.98E-07
   1      8    10.239     5.612    0.32E-03    0.65E-03    0.21E-06
   2      7    10.239    55.373    0.42E-03    0.45E-03    0.65E-07
   2      7    10.239    50.863    0.43E-03    0.48E-03    0.67E-07
   0      8    10.239    79.536    0.11E-03    0.21E-03    0.56E-07
   0      8    10.239    38.668    0.96E-04    0.19E-03    0.52E-07
 Optimization of the real space projectors (new method)

 maximal supplied QI-value         = 24.76
 optimisation between [QCUT,QGAM] = [ 10.15, 20.30] = [ 28.85,115.39] Ry 
 Optimized for a Real-space Cutoff    1.38 Angstroem

   l    n(q)    QCUT    max X(q) W(low)/X(q) W(high)/X(q)  e(spline) 
   0      8    10.150    20.381    0.22E-03    0.32E-03    0.29E-06
   0      8    10.150    15.268    0.23E-03    0.35E-03    0.30E-06
   1      8    10.150     5.964    0.46E-03    0.53E-03    0.21E-06
   1      8    10.150     5.382    0.38E-03    0.45E-03    0.19E-06
  PAW_PBE Na_pv 19Sep2006               :
 energy of atom  1       EATOM= -766.0439
 kinetic energy error for atom=    0.0103 (will be added to EATOM!!)
  PAW_PBE Mg_pv 13Apr2007               :
 energy of atom  2       EATOM=-1056.7344
 kinetic energy error for atom=    0.0820 (will be added to EATOM!!)
  PAW_PBE Mn_pv 02Aug2007               :
 energy of atom  3       EATOM=-2025.2664
 kinetic energy error for atom=    0.0284 (will be added to EATOM!!)
  PAW_PBE O 08Apr2002                   :
 energy of atom  4       EATOM= -432.3788
 kinetic energy error for atom=    0.1156 (will be added to EATOM!!)
 
 
 POSCAR: Na Mg Mn  O                             
  positions in cartesian coordinates
  No initial velocities read in

 METAGGA = SCAN     LMAXTAU =  6    LMIXTAU =  F

 exchange correlation table for  LEXCH =        8
   RHO(1)=    0.500       N(1)  =     2000
   RHO(2)=  100.500       N(2)  =     4000

 VTST: version 3.2, (02/03/18)

 CHAIN: initializing optimizer
 
 OPT: Using VASP Dynamics algorithm
 CHAIN: Read ICHAIN            0
 
 POSCAR: Na Mg Mn  O                             
  positions in cartesian coordinates
  No initial velocities read in
 


--------------------------------------------------------------------------------------------------------


 ion  position               nearest neighbor table
   1  0.927  0.238  0.254-  54 2.22  63 2.28  62 2.34
   2  0.550  0.205  0.749-  49 2.28  46 2.35
   3  0.712  0.690  0.750-  71 2.20  68 2.32  35 2.91  33 2.93
   4  0.186  0.549  0.754-  80 2.29  60 2.31  57 2.32  14 2.74
   5  0.928  0.759  0.253-  66 2.20  74 2.23
   6  0.204  0.668  0.257-  64 2.25  55 2.28  86 2.38  39 2.86  37 2.91
   7  0.974  0.180  0.747-  59 2.22  56 2.22
   8  0.353  0.371  0.756-  58 2.25  47 2.30  61 2.35  48 2.37
   9  0.181  0.163  0.247-  67 2.31  76 2.32  63 2.33  27 2.85  25 2.93
  10  0.466  0.014  0.252-  51 2.32  86 2.37  77 2.38  36 2.98
  11  0.478  0.511  0.245-  87 2.25  50 2.30  78 2.32  41 2.37
  12  0.184  0.011  0.754-  73 2.32  72 2.32  69 2.38
  13  0.503  0.848  0.752-  80 2.27  83 2.33  38 2.79
  14  0.001  0.678  0.749-  68 2.24   4 2.74
  15  0.692  0.358  0.256-
  16  0.682  0.858  0.252-  87 2.34  88 2.35
  17  0.849  0.524  0.997-  49 1.98  60 1.99  71 2.00  53 2.06  66 2.07  43 2.16  37 2.79  34 2.82

  18  0.532  0.363  0.511-  46 1.97  45 1.99  50 2.04  44 2.05  51 2.12  52 2.24  35 2.83  32 2.83

  19  0.345  0.529  0.998-  78 2.03  55 2.06  83 2.06  41 2.11  48 2.13  61 2.16  38 2.79  37 2.84

  20  0.019  0.346  0.504-  56 1.95  62 1.97  57 2.00  64 2.12  58 2.14  63 2.17  31 2.84
  21  0.344  0.014  0.999-  84 1.97  77 1.99  67 2.04  73 2.05  42 2.14  47 2.18  38 2.83
  22  0.022  0.843  0.508-  68 1.95  74 2.02  75 2.04  70 2.07  69 2.11  28 2.76  35 2.84
  23  0.845  0.025  0.005-  65 1.96  59 2.03  54 2.04  79 2.05  72 2.15  85 2.18  30 2.80  29 2.82

  24  0.527  0.846  0.495-  86 1.99  88 2.01  81 2.02  87 2.07  80 2.08  82 2.14  35 2.84  36 2.85

  25  0.175  0.183  0.987-  67 1.89  72 1.93  54 1.95  47 1.97  41 1.98  61 2.02  30 2.84  34 2.90
                             9 2.93  26 2.95
  26  0.514  0.356  0.002-  41 1.91  49 1.93  42 1.93  47 1.97  43 1.98  48 1.99  33 2.88  29 2.92
                            25 2.95
  27  0.199  0.181  0.500-  69 1.85  44 1.86  76 1.90  63 1.95  50 1.99  58 2.00   9 2.85  36 2.90
                            32 2.92  40 2.96
  28  0.867  0.525  0.503-  68 1.84  75 1.87  57 1.92  46 1.94  52 1.95  62 2.00  22 2.76  39 2.87
                            35 2.90  31 2.93
  29  0.681  0.185  0.998-  42 1.88  79 1.90  84 1.92  53 1.92  59 1.94  49 1.94  23 2.82  30 2.87
                            38 2.91  26 2.92
  30  0.012  0.347  0.999-  54 1.88  53 1.91  59 1.91  61 1.93  55 1.94  60 2.02  23 2.80  25 2.84
                            29 2.87  37 2.90
  31  0.692  0.188  0.496-  51 1.84  56 1.90  46 1.91  81 1.92  88 1.94  62 1.97  20 2.84  36 2.85
                            28 2.93  40 2.94
  32  0.360  0.517  0.498-  64 1.86  58 1.89  50 1.90  45 1.93  87 2.03  80 2.06  18 2.83  39 2.88
                            35 2.91  27 2.92
  33  0.675  0.688  0.009-  78 1.84  85 1.89  65 1.91  48 1.93  43 1.94  71 1.94  34 2.86  38 2.88
                            26 2.88   3 2.93
  34  0.004  0.849  0.995-  71 1.87  65 1.90  67 1.93  66 1.99  73 2.01  72 2.06  17 2.82  33 2.86
                            37 2.90  25 2.90
  35  0.695  0.687  0.491-  87 1.83  45 1.86  52 1.87  74 1.94  82 1.97  68 2.06  18 2.83  24 2.84
                            40 2.84  22 2.84  28 2.90  32 2.91   3 2.91
  36  0.363  0.011  0.502-  70 1.88  81 1.88  86 1.91  51 1.92  76 1.94  44 2.00  39 2.83  24 2.85
                            31 2.85  27 2.90  10 2.98
  37  0.170  0.681  0.001-  60 1.88  83 1.91  66 1.92  55 1.92  77 1.94  73 1.97  17 2.79  19 2.84
                            34 2.90  30 2.90  38 2.91   6 2.91
  38  0.505  0.850  1.000-  83 1.80  77 1.91  84 1.93  85 1.97  78 2.00  79 2.02  13 2.79  19 2.79
                            21 2.83  33 2.88  37 2.91  29 2.91
  39  0.197  0.685  0.512-  57 1.89  86 1.90  70 1.92  75 1.93  80 1.94  64 1.97  36 2.83   6 2.86
                            28 2.87  32 2.88
  40  0.858  0.015  0.501-  56 1.87  82 1.87  74 1.93  63 1.97  88 2.02  69 2.04  35 2.84  31 2.94
                            27 2.96
  41  0.342  0.342  0.086-  26 1.91  25 1.98  19 2.11  11 2.37
  42  0.532  0.201  0.091-  29 1.88  26 1.93  21 2.14
  43  0.669  0.522  0.103-  33 1.94  26 1.98  17 2.16
  44  0.351  0.177  0.592-  27 1.86  36 2.00  18 2.05
  45  0.538  0.544  0.588-  35 1.86  32 1.93  18 1.99
  46  0.703  0.353  0.588-  31 1.91  28 1.94  18 1.97   2 2.35
  47  0.352  0.203  0.896-  25 1.97  26 1.97  21 2.18   8 2.30
  48  0.530  0.529  0.904-  33 1.93  26 1.99  19 2.13   8 2.37
  49  0.676  0.351  0.911-  26 1.93  29 1.94  17 1.98   2 2.28
  50  0.362  0.357  0.408-  32 1.90  27 1.99  18 2.04  11 2.30
  51  0.527  0.178  0.415-  31 1.84  36 1.92  18 2.12  10 2.32
  52  0.722  0.546  0.400-  35 1.87  28 1.95  18 2.24
  53  0.848  0.344  0.088-  30 1.91  29 1.92  17 2.06
  54  0.029  0.200  0.091-  30 1.88  25 1.95  23 2.04   1 2.22
  55  0.164  0.517  0.094-  37 1.92  30 1.94  19 2.06   6 2.28
  56  0.846  0.172  0.583-  40 1.87  31 1.90  20 1.95   7 2.22
  57  0.029  0.523  0.593-  39 1.89  28 1.92  20 2.00   4 2.32
  58  0.212  0.356  0.595-  32 1.89  27 2.00  20 2.14   8 2.25
  59  0.848  0.194  0.904-  30 1.91  29 1.94  23 2.03   7 2.22
  60  0.020  0.524  0.906-  37 1.88  17 1.99  30 2.02   4 2.31
  61  0.163  0.349  0.892-  30 1.93  25 2.02  19 2.16   8 2.35
  62  0.862  0.356  0.406-  20 1.97  31 1.97  28 2.00   1 2.34
  63  0.031  0.166  0.404-  27 1.95  40 1.97  20 2.17   1 2.28   9 2.33
  64  0.208  0.529  0.413-  32 1.86  39 1.97  20 2.12   6 2.25
  65  0.847  0.854  0.088-  34 1.90  33 1.91  23 1.96
  66  0.021  0.697  0.099-  37 1.92  34 1.99  17 2.07   5 2.20
  67  0.166  0.022  0.080-  25 1.89  34 1.93  21 2.04   9 2.31
  68  0.855  0.672  0.595-  28 1.84  22 1.95  35 2.06  14 2.24   3 2.32
  69  0.041  0.039  0.596-  27 1.85  40 2.04  22 2.11  12 2.38
  70  0.209  0.857  0.597-  36 1.88  39 1.92  22 2.07
  71  0.837  0.692  0.912-  34 1.87  33 1.94  17 2.00   3 2.20
  72  0.016  0.023  0.890-  25 1.93  34 2.06  23 2.15  12 2.32
  73  0.171  0.842  0.900-  37 1.97  34 2.01  21 2.05  12 2.32
  74  0.863  0.857  0.406-  40 1.93  35 1.94  22 2.02   5 2.23
  75  0.033  0.675  0.415-  28 1.87  39 1.93  22 2.04
  76  0.217  0.035  0.404-  27 1.90  36 1.94   9 2.32
  77  0.340  0.842  0.091-  38 1.91  37 1.94  21 1.99  10 2.38
  78  0.521  0.691  0.097-  33 1.84  38 2.00  19 2.03  11 2.32
  79  0.669  0.025  0.097-  29 1.90  38 2.02  23 2.05
  80  0.359  0.682  0.606-  39 1.94  32 2.06  24 2.08  13 2.27   4 2.29
  81  0.531  0.023  0.586-  36 1.88  31 1.92  24 2.02
  82  0.712  0.853  0.596-  40 1.87  35 1.97  24 2.14
  83  0.346  0.711  0.911-  38 1.80  37 1.91  19 2.06  13 2.33
  84  0.517  0.020  0.911-  29 1.92  38 1.93  21 1.97
  85  0.662  0.831  0.907-  33 1.89  38 1.97  23 2.18
  86  0.349  0.841  0.413-  39 1.90  36 1.91  24 1.99  10 2.37   6 2.38
  87  0.538  0.676  0.399-  35 1.83  32 2.03  24 2.07  11 2.25  16 2.34
  88  0.693  0.025  0.403-  31 1.94  24 2.01  40 2.02  16 2.35
 
  LATTYP: Found a hexagonal cell.
 ALAT       =    10.0190000534
 C/A-ratio  =     1.1196726572
  
  Lattice vectors:
  
 A1 = (  10.0190000534,   0.0000000000,   0.0000000000)
 A2 = (  -5.0095000267,   8.6767085668,   0.0000000000)
 A3 = (   0.0000000000,   0.0000000000,  11.2180004120)


Analysis of symmetry for initial positions (statically):
=====================================================================
 Subroutine PRICEL returns:
 Original cell was already a primitive cell.
 

 Routine SETGRP: Setting up the symmetry group for a 
 hexagonal supercell.


 Subroutine GETGRP returns: Found  1 space group operations
 (whereof  1 operations were pure point group operations)
 out of a pool of 24 trial point group operations.


The static configuration has the point symmetry C_1 .


Analysis of symmetry for dynamics (positions and initial velocities):
=====================================================================
 Subroutine PRICEL returns:
 Original cell was already a primitive cell.
 

 Routine SETGRP: Setting up the symmetry group for a 
 hexagonal supercell.


 Subroutine GETGRP returns: Found  1 space group operations
 (whereof  1 operations were pure point group operations)
 out of a pool of 24 trial point group operations.


The dynamic configuration has the point symmetry C_1 .


Analysis of structural, dynamic, and magnetic symmetry:
=====================================================================
 Subroutine PRICEL returns:
 Original cell was already a primitive cell.
 

 Routine SETGRP: Setting up the symmetry group for a 
 hexagonal supercell.


 Subroutine GETGRP returns: Found  1 space group operations
 (whereof  1 operations were pure point group operations)
 out of a pool of 24 trial point group operations.


The magnetic configuration has the point symmetry C_1 .


 Subroutine INISYM returns: Found  1 space group operations
 (whereof  1 operations are pure point group operations),
 and found     1 'primitive' translations

 
 

Automatic generation of k-mesh.
 generate k-points for:    2    2    2
Space group operators:
 irot       det(A)        alpha          n_x          n_y          n_z        tau_x        tau_y        tau_z
    1     1.000000     0.000000     1.000000     0.000000     0.000000     0.000000     0.000000     0.000000
 
 Subroutine IBZKPT returns following result:
 ===========================================
 
 Found      8 irreducible k-points:
 
 Following reciprocal coordinates:
            Coordinates               Weight
  0.000000  0.000000  0.000000      1.000000
  0.500000 -0.000000 -0.000000      1.000000
  0.000000  0.500000  0.000000      1.000000
  0.500000  0.500000 -0.000000      1.000000
  0.000000  0.000000  0.500000      1.000000
  0.500000 -0.000000  0.500000      1.000000
  0.000000  0.500000  0.500000      1.000000
  0.500000  0.500000  0.500000      1.000000
 
 Following cartesian coordinates:
            Coordinates               Weight
  0.000000  0.000000  0.000000      1.000000
  0.049905  0.028813 -0.000000      1.000000
  0.000000  0.057626  0.000000      1.000000
  0.049905  0.086438 -0.000000      1.000000
  0.000000  0.000000  0.044571      1.000000
  0.049905  0.028813  0.044571      1.000000
  0.000000  0.057626  0.044571      1.000000
  0.049905  0.086438  0.044571      1.000000
 


--------------------------------------------------------------------------------------------------------




 Dimension of arrays:
   k-points           NKPTS =      8   k-points in BZ     NKDIM =      8   number of bands    NBANDS=    480
   number of dos      NEDOS =    301   number of ions     NIONS =     88
   non local maximal  LDIM  =      6   non local SUM 2l+1 LMDIM =     18
   total plane-waves  NPLWV = 140000
   max r-space proj   IRMAX =   1632   max aug-charges    IRDMAX=   4555
   dimension x,y,z NGX =    50 NGY =   50 NGZ =   56
   dimension x,y,z NGXF=   100 NGYF=  100 NGZF=  112
   support grid    NGXF=   100 NGYF=  100 NGZF=  112
   ions per type =              16   8  16  48
   NGX,Y,Z   is equivalent  to a cutoff of   8.30,  8.30,  8.30 a.u.
   NGXF,Y,Z  is equivalent  to a cutoff of  16.59, 16.59, 16.60 a.u.

 SYSTEM =  unknown system                          
 POSCAR =  Na Mg Mn  O                             

 Startparameter for this run:
   NWRITE =      2    write-flag & timer
   PREC   = normal    normal or accurate (medium, high low for compatibility)
   ISTART =      0    job   : 0-new  1-cont  2-samecut
   ICHARG =      1    charge: 1-file 2-atom 10-const
   ISPIN  =      2    spin polarized calculation?
   LNONCOLLINEAR =      F non collinear calculations
   LSORBIT =      F    spin-orbit coupling
   INIWAV =      1    electr: 0-lowe 1-rand  2-diag
   LASPH  =      T    aspherical Exc in radial PAW
   METAGGA=      F    non-selfconsistent MetaGGA calc.

 Electronic Relaxation 1
   ENCUT  =  400.0 eV  29.40 Ry    5.42 a.u.  16.34 16.34 18.29*2*pi/ulx,y,z
   ENINI  =  400.0     initial cutoff
   ENAUG  =  758.8 eV  augmentation charge cutoff
   NELM   =    200;   NELMIN=  6; NELMDL=-12     # of ELM steps 
   EDIFF  = 0.1E-04   stopping-criterion for ELM
   LREAL  =      T    real-space projection
   NLSPLINE    = F    spline interpolate recip. space projectors
   LCOMPAT=      F    compatible to vasp.4.4
   GGA_COMPAT  = T    GGA compatible to vasp.4.4-vasp.4.6
   LMAXPAW     = -100 max onsite density
   LMAXMIX     =    4 max onsite mixed and CHGCAR
   VOSKOWN=      0    Vosko Wilk Nusair interpolation
   ROPT   =   -0.00050  -0.00050  -0.00050  -0.00050
 Ionic relaxation
   EDIFFG = 0.1E-03   stopping-criterion for IOM
   NSW    =      1    number of steps for IOM
   NBLOCK =      1;   KBLOCK =      1    inner block; outer block 
   IBRION =     -1    ionic relax: 0-MD 1-quasi-New 2-CG
   NFREE  =      0    steps in history (QN), initial steepest desc. (CG)
   ISIF   =      2    stress and relaxation
   IWAVPR =     10    prediction:  0-non 1-charg 2-wave 3-comb
   ISYM   =      2    0-nonsym 1-usesym 2-fastsym
   LCORR  =      T    Harris-Foulkes like correction to forces

   POTIM  = 0.5000    time-step for ionic-motion
   TEIN   =    0.0    initial temperature
   TEBEG  =    0.0;   TEEND  =   0.0 temperature during run
   SMASS  =  -3.00    Nose mass-parameter (am)
   estimated Nose-frequenzy (Omega)   =  0.10E-29 period in steps =****** mass=  -0.229E-26a.u.
   SCALEE = 1.0000    scale energy and forces
   NPACO  =    256;   APACO  = 16.0  distance and # of slots for P.C.
   PSTRESS=    0.0 pullay stress

  Mass of Ions in am
   POMASS =  22.99 24.30 54.94 16.00
  Ionic Valenz
   ZVAL   =   7.00  8.00 13.00  6.00
  Atomic Wigner-Seitz radii
   RWIGS  =  -1.00 -1.00 -1.00 -1.00
  virtual crystal weights 
   VCA    =   1.00  1.00  1.00  1.00
   NELECT =     672.0000    total number of electrons
   NUPDOWN=      48.0000    fix difference up-down

 DOS related values:
   EMIN   =  10.00;   EMAX   =-10.00  energy-range for DOS
   EFERMI =   0.00
   ISMEAR =     0;   SIGMA  =   0.05  broadening in eV -4-tet -1-fermi 0-gaus

 Electronic relaxation 2 (details)
   IALGO  =     48    algorithm
   LDIAG  =      T    sub-space diagonalisation (order eigenvalues)
   LSUBROT=      F    optimize rotation matrix (better conditioning)
   TURBO    =      0    0=normal 1=particle mesh
   IRESTART =      0    0=no restart 2=restart with 2 vectors
   NREBOOT  =      0    no. of reboots
   NMIN     =      0    reboot dimension
   EREF     =   0.00    reference energy to select bands
   IMIX   =      4    mixing-type and parameters
     AMIX     =   0.40;   BMIX     =  1.00
     AMIX_MAG =   1.60;   BMIX_MAG =  1.00
     AMIN     =   0.10
     WC   =   100.;   INIMIX=   1;  MIXPRE=   1;  MAXMIX= -45

 Intra band minimization:
   WEIMIN = 0.0000     energy-eigenvalue tresh-hold
   EBREAK =  0.52E-08  absolut break condition
   DEPER  =   0.30     relativ break condition  

   TIME   =   0.40     timestep for ELM

  volume/ion in A,a.u.               =      11.08        74.78
  Fermi-wavevector in a.u.,A,eV,Ry     =   1.445993  2.732531 28.448379  2.090897
  Thomas-Fermi vector in A             =   2.564112
 
 Write flags
   LWAVE        =      F    write WAVECAR
   LDOWNSAMPLE  =      F    k-point downsampling of WAVECAR
   LCHARG       =      F    write CHGCAR
   LVTOT        =      F    write LOCPOT, total local potential
   LVHAR        =      F    write LOCPOT, Hartree potential only
   LELF         =      F    write electronic localiz. function (ELF)
   LORBIT       =     11    0 simple, 1 ext, 2 COOP (PROOUT), +10 PAW based schemes


 Dipole corrections
   LMONO  =      F    monopole corrections only (constant potential shift)
   LDIPOL =      F    correct potential (dipole corrections)
   IDIPOL =      0    1-x, 2-y, 3-z, 4-all directions 
   EPSILON=  1.0000000 bulk dielectric constant

 Exchange correlation treatment:
   GGA     =    --    GGA type
   LEXCH   =     8    internal setting for exchange type
   VOSKOWN=      0    Vosko Wilk Nusair interpolation
   LHFCALC =     F    Hartree Fock is set to
   LHFONE  =     F    Hartree Fock one center treatment
   AEXX    =    0.0000 exact exchange contribution

 Linear response parameters
   LEPSILON=     F    determine dielectric tensor
   LRPA    =     F    only Hartree local field effects (RPA)
   LNABLA  =     F    use nabla operator in PAW spheres
   LVEL    =     F    velocity operator in full k-point grid
   LINTERFAST=   F  fast interpolation
   KINTER  =     0    interpolate to denser k-point grid
   CSHIFT  =0.1000    complex shift for real part using Kramers Kronig
   OMEGAMAX=  -1.0    maximum frequency
   DEG_THRESHOLD= 0.2000000E-02 threshold for treating states as degnerate
   RTIME   =   -0.100 relaxation time in fs
  (WPLASMAI=    0.000 imaginary part of plasma frequency in eV, 0.658/RTIME)
   DFIELD  = 0.0000000 0.0000000 0.0000000 field for delta impulse in time
 
 Orbital magnetization related:
   ORBITALMAG=     F  switch on orbital magnetization
   LCHIMAG   =     F  perturbation theory with respect to B field
   DQ        =  0.001000  dq finite difference perturbation B field
   LLRAUG    =     F  two centre corrections for induced B field



--------------------------------------------------------------------------------------------------------


 Static calculation
 charge density and potential will be updated during run
 spin polarized calculation
 RMM-DIIS sequential band-by-band
 perform sub-space diagonalisation
    before iterative eigenvector-optimisation
 modified Broyden-mixing scheme, WC =      100.0
 initial mixing is a Kerker type mixing with AMIX =  0.4000 and BMIX =      1.0000
 Hartree-type preconditioning will be used
 using additional bands          144
 real space projection scheme for non local part
 use partial core corrections
 calculate Harris-corrections to forces 
   (improved forces if not selfconsistent)
 use gradient corrections 
 use of overlap-Matrix (Vanderbilt PP)
 Gauss-broadening in eV      SIGMA  =   0.05


--------------------------------------------------------------------------------------------------------


  energy-cutoff  :      400.00
  volume of cell :      975.20
      direct lattice vectors                 reciprocal lattice vectors
    10.019000053  0.000000000  0.000000000     0.099810360  0.057625538 -0.000000000
    -5.009500027  8.676708567  0.000000000     0.000000000  0.115251076  0.000000000
     0.000000000  0.000000000 11.218000412     0.000000000  0.000000000  0.089142446

  length of vectors
    10.019000053 10.019000053 11.218000412     0.115251076  0.115251076  0.089142446


 
 k-points in units of 2pi/SCALE and weight: read from INCAR                         
   0.00000000  0.00000000  0.00000000       0.125
   0.04990518  0.02881277 -0.00000000       0.125
   0.00000000  0.05762554  0.00000000       0.125
   0.04990518  0.08643831 -0.00000000       0.125
   0.00000000  0.00000000  0.04457122       0.125
   0.04990518  0.02881277  0.04457122       0.125
   0.00000000  0.05762554  0.04457122       0.125
   0.04990518  0.08643831  0.04457122       0.125
 
 k-points in reciprocal lattice and weights: read from INCAR                         
   0.00000000  0.00000000  0.00000000       0.125
   0.50000000 -0.00000000 -0.00000000       0.125
   0.00000000  0.50000000  0.00000000       0.125
   0.50000000  0.50000000 -0.00000000       0.125
   0.00000000  0.00000000  0.50000000       0.125
   0.50000000 -0.00000000  0.50000000       0.125
   0.00000000  0.50000000  0.50000000       0.125
   0.50000000  0.50000000  0.50000000       0.125
 
 position of ions in fractional coordinates (direct lattice) 
   0.92692601  0.23818182  0.25403458
   0.54957824  0.20529477  0.74932427
   0.71234452  0.68958571  0.75014884
   0.18646688  0.54901200  0.75422087
   0.92794089  0.75870640  0.25288375
   0.20356628  0.66815659  0.25742110
   0.97409621  0.18033138  0.74677658
   0.35251115  0.37117663  0.75639059
   0.18121579  0.16348958  0.24718666
   0.46565784  0.01439782  0.25218755
   0.47830080  0.51133560  0.24479585
   0.18397860  0.01072593  0.75361737
   0.50313171  0.84830357  0.75173112
   0.00073712  0.67782912  0.74887054
   0.69160607  0.35841125  0.25586824
   0.68206989  0.85796951  0.25216526
   0.84938728  0.52370320  0.99711732
   0.53214552  0.36281385  0.51089765
   0.34508168  0.52858177  0.99790512
   0.01943592  0.34607017  0.50423960
   0.34356171  0.01414608  0.99938379
   0.02172807  0.84332439  0.50832856
   0.84535001  0.02495894  0.00505916
   0.52717594  0.84631516  0.49524423
   0.17525521  0.18324822  0.98666019
   0.51425911  0.35584231  0.00162597
   0.19907927  0.18090731  0.50040291
   0.86715694  0.52548267  0.50321802
   0.68062802  0.18546104  0.99776427
   0.01193620  0.34729990  0.99893917
   0.69198667  0.18798373  0.49613477
   0.36048560  0.51680311  0.49838026
   0.67511623  0.68793483  0.00948208
   0.00399070  0.84873198  0.99497258
   0.69513017  0.68742772  0.49075234
   0.36336773  0.01113111  0.50203065
   0.17034777  0.68124450  0.00109698
   0.50515792  0.84985452  0.99999131
   0.19722930  0.68525409  0.51203421
   0.85755730  0.01462553  0.50085218
   0.34184912  0.34155233  0.08618630
   0.53238476  0.20074317  0.09093421
   0.66918516  0.52246655  0.10332144
   0.35104876  0.17665586  0.59202440
   0.53776957  0.54443225  0.58756015
   0.70289311  0.35289073  0.58844533
   0.35219879  0.20257105  0.89632730
   0.53046204  0.52919837  0.90412726
   0.67602489  0.35133714  0.91149043
   0.36168498  0.35714580  0.40769387
   0.52716961  0.17762397  0.41501246
   0.72174600  0.54573574  0.40020680
   0.84751594  0.34375132  0.08786361
   0.02869903  0.19959988  0.09067302
   0.16417715  0.51719151  0.09432251
   0.84646748  0.17151566  0.58259581
   0.02900537  0.52294139  0.59345068
   0.21182722  0.35622955  0.59490192
   0.84776950  0.19392607  0.90426098
   0.01983766  0.52372164  0.90620428
   0.16340267  0.34871172  0.89227132
   0.86193963  0.35583655  0.40583079
   0.03080230  0.16627174  0.40408717
   0.20777231  0.52883417  0.41292386
   0.84738845  0.85355523  0.08771982
   0.02121469  0.69720332  0.09869673
   0.16562647  0.02159130  0.08043947
   0.85538692  0.67168212  0.59501424
   0.04122097  0.03874297  0.59614635
   0.20909542  0.85670965  0.59703332
   0.83714502  0.69236969  0.91190048
   0.01585008  0.02346183  0.88977979
   0.17118564  0.84240123  0.90049916
   0.86251685  0.85652986  0.40580940
   0.03327670  0.67450231  0.41511141
   0.21669632  0.03474606  0.40444819
   0.34032340  0.84241045  0.09081922
   0.52071337  0.69075502  0.09686753
   0.66890967  0.02545682  0.09669192
   0.35851020  0.68243850  0.60554107
   0.53128367  0.02280490  0.58606880
   0.71239989  0.85312996  0.59554196
   0.34563275  0.71075569  0.91139237
   0.51677555  0.01978532  0.91113386
   0.66190180  0.83143509  0.90748793
   0.34859737  0.84128676  0.41307451
   0.53828911  0.67576777  0.39876091
   0.69281846  0.02461088  0.40346317
 
 position of ions in cartesian coordinates  (Angst):
   8.09369989  2.06663427  2.84976000
   4.47780027  1.78128287  8.40592000
   3.68250011  5.98333427  8.41517000
  -0.88206400  4.76361713  8.46085000
   5.49630008  6.58307430  2.83685000
  -1.30759989  5.79740000  2.88775000
   8.85609995  1.56468287  8.37734000
   1.67239992  3.22059143  8.48519000
   0.99659995  1.41855140  2.77294000
   4.59330008  0.12492570  2.82904000
   2.23056000  4.43671000  2.74612000
   1.78955005  0.09306573  8.45408000
   0.79129984  7.36048287  8.43292000
  -3.38819976  5.88132570  8.40083000
   5.13374005  3.10983000  2.87033000
   2.53566000  7.44435140  2.82879000
   5.88652000  4.54402000 11.18566251
   3.51405000  3.14803000  5.73125000
   0.80944300  4.58635000 11.19450000
  -1.53891005  3.00275000  5.65656000
   3.37128003  0.12274143 11.21108773
  -4.00694005  7.31728000  5.70243000
   8.34453003  0.21656143  0.05675370
   1.04216000  7.34323000  5.55565000
   0.83789997  1.58999143 11.06835441
   3.36977000  3.08754000  0.01824010
   1.08832000  1.56968000  5.61352000
   6.05564000  4.55946000  5.64510000
   5.89014503  1.60919143 11.19292001
  -1.62021005  3.01342000 11.20610000
   5.99131000  1.63108000  5.56564000
   1.02278000  4.48415000  5.59083000
   3.31778000  5.96901000  0.10637000
  -4.21174005  7.36420000 11.16160281
   3.52084000  5.96461000  5.50526000
   3.58482003  0.09658143  5.63178000
  -1.70598000  5.91096000  0.01230590
   0.80383100  7.37394000 11.21790289
  -1.45674000  5.94575000  5.74400000
   8.51860003  0.12690143  5.61856000
   1.71398000  2.96355000  0.96683800
   4.32834000  1.74179000  1.02010000
   4.08727000  4.53329000  1.15906000
   2.63220003  1.53279143  6.64133000
   2.66058000  4.72388000  6.59125000
   5.27448000  3.06193000  6.60118000
   2.51390000  1.75765000 10.05500000
   2.66368000  4.59170000 10.14250000
   5.01307000  3.04845000 10.22510000
   1.83460000  3.09885000  4.57351000
   4.39190503  1.54119143  4.65561000
   4.49731000  4.73519000  4.48952000
   6.76924000  2.98263000  0.98565400
  -0.71236005  1.73187000  1.01717000
  -0.94598005  4.48752000  1.05811000
   7.62155003  1.48819143  6.53556000
  -2.32907005  4.53741000  6.65733000
   0.33776500  3.09090000  6.67361000
   7.52233000  1.68264000 10.14400000
  -2.42483005  4.54418000 10.16580000
  -0.10974005  3.02567000 10.00950000
   6.85321000  3.08749000  4.55261000
  -0.52433003  1.44269143  4.53305000
  -0.56752400  4.58854000  4.63218000
   4.21410000  7.40605000  0.98404100
  -3.28009005  6.04943000  1.10718000
   1.55124997  0.18734143  0.90237000
   5.20533000  5.82799000  6.67487000
   0.21890997  0.33616143  6.68757000
  -2.19676000  7.43342000  6.69752000
   4.91893000  6.00749000 10.22970000
   0.04126997  0.20357143  9.98155000
  -2.50490005  7.30927000 10.10180000
   4.35077000  7.43186000  4.55237000
  -3.04552005  5.85246000  4.65672000
   1.99702003  0.30148143  4.53710000
  -0.81035500  7.30935000  1.01881000
   1.75669000  5.99348000  1.08666000
   6.57428003  0.22088143  1.08469000
   0.17323800  5.92132000  6.79296000
   5.20869003  0.19787143  6.57452000
   2.86378000  7.40236000  6.68079000
  -0.09763610  6.16702000 10.22400000
   5.07845973  0.17167143 10.22110000
   2.46652000  7.21412000 10.18020000
  -0.72182900  7.29960000  4.63387000
   2.00786000  5.86344000  4.47330000
   6.81806003  0.21354143  4.52605000
 


--------------------------------------------------------------------------------------------------------


 k-point  1 :   0.0000 0.0000 0.0000  plane waves:   17725
 k-point  2 :   0.5000-0.0000-0.0000  plane waves:   17736
 k-point  3 :   0.0000 0.5000 0.0000  plane waves:   17736
 k-point  4 :   0.5000 0.5000-0.0000  plane waves:   17736
 k-point  5 :   0.0000 0.0000 0.5000  plane waves:   17676
 k-point  6 :   0.5000-0.0000 0.5000  plane waves:   17700
 k-point  7 :   0.0000 0.5000 0.5000  plane waves:   17700
 k-point  8 :   0.5000 0.5000 0.5000  plane waves:   17700

 maximum and minimum number of plane-waves per node :     17736    17676

 maximum number of plane-waves:     17736
 maximum index in each direction: 
   IXMAX=   16   IYMAX=   16   IZMAX=   18
   IXMIN=  -16   IYMIN=  -16   IZMIN=  -18


 serial   3D FFT for wavefunctions
 parallel 3D FFT for charge:
    minimum data exchange during FFTs selected (reduces bandwidth)


 total amount of memory used by VASP MPI-rank0    94435. kBytes
=======================================================================

   base      :      30000. kBytes
   nonlr-proj:      13676. kBytes
   fftplans  :       1275. kBytes
   grid      :      22786. kBytes
   one-center:       2737. kBytes
   wavefun   :      23961. kBytes
 
     INWAV:  cpu time    0.0000: real time    0.0001
 Broyden mixing: mesh for mixing (old mesh)
   NGX = 33   NGY = 33   NGZ = 37
  (NGX  =100   NGY  =100   NGZ  =112)
  gives a total of  40293 points

 initial charge density was supplied:
 charge density of overlapping atoms calculated
 number of electron     672.0000000 magnetization      48.0000000
 keeping initial charge density in first step


--------------------------------------------------------------------------------------------------------


 Maximum index for non-local projection operator         1550
 Maximum index for augmentation-charges          531 (set IRDMAX)


--------------------------------------------------------------------------------------------------------


 First call to EWALD:  gamma=   0.179
 Maximum number of real-space cells 3x 3x 2
 Maximum number of reciprocal cells 3x 3x 3

    FEWALD:  cpu time    0.0026: real time    0.0026


--------------------------------------- Iteration      1(   1)  ---------------------------------------


    POTLOK:  cpu time    0.1925: real time    0.1942
    SETDIJ:  cpu time    4.6216: real time    4.6226
    EDDIAG:  cpu time    4.4715: real time    4.8847
  RMM-DIIS:  cpu time    9.0012: real time    9.0099
    ORTHCH:  cpu time    1.1583: real time    1.2395
       DOS:  cpu time    0.0022: real time    0.0024
    --------------------------------------------
      LOOP:  cpu time   19.4473: real time   19.9533

 eigenvalue-minimisations  :  7680
 total energy-change (2. order) : 0.1596081E+04  (-0.3497089E+05)
 number of electron     672.0000000 magnetization      48.0000000
 augmentation part      672.0000000 magnetization      48.0000000

 Free energy of the ion-electron system (eV)
  ---------------------------------------------------
  alpha Z        PSCENC =      2652.81237852
  Ewald energy   TEWEN  =    -41970.84694295
  -Hartree energ DENC   =    -25650.29095929
  -exchange      EXHF   =         0.00000000
  -V(xc)+E(xc)   XCENC  =      3605.49305551
  PAW double counting   =     55594.23204139   -59034.67079123
  entropy T*S    EENTRO =        -0.04301300
  eigenvalues    EBANDS =     -7462.80270159
  atomic energy  EATOM  =     73862.19814772
  Solvation  Ediel_sol  =         0.00000000
  ---------------------------------------------------
  free energy    TOTEN  =      1596.08121508 eV

  energy without entropy =     1596.12422808  energy(sigma->0) =     1596.10272158


--------------------------------------------------------------------------------------------------------




--------------------------------------- Iteration      1(   2)  ---------------------------------------


    EDDIAG:  cpu time    4.3908: real time    4.7667
  RMM-DIIS:  cpu time    9.0130: real time    9.0191
    ORTHCH:  cpu time    1.1554: real time    1.2416
       DOS:  cpu time    0.0021: real time    0.0021
    --------------------------------------------
      LOOP:  cpu time   14.5613: real time   15.0295

 eigenvalue-minimisations  :  7680
 total energy-change (2. order) :-0.2330444E+04  (-0.8035890E+04)
 number of electron     672.0000000 magnetization      48.0000000
 augmentation part      672.0000000 magnetization      48.0000000

 Free energy of the ion-electron system (eV)
  ---------------------------------------------------
  alpha Z        PSCENC =      2652.81237852
  Ewald energy   TEWEN  =    -41970.84694295
  -Hartree energ DENC   =    -25650.29095929
  -exchange      EXHF   =         0.00000000
  -V(xc)+E(xc)   XCENC  =      3605.49305551
  PAW double counting   =     55594.23204139   -59034.67079123
  entropy T*S    EENTRO =        -0.04263990
  eigenvalues    EBANDS =     -9793.24678324
  atomic energy  EATOM  =     73862.19814772
  Solvation  Ediel_sol  =         0.00000000
  ---------------------------------------------------
  free energy    TOTEN  =      -734.36249346 eV

  energy without entropy =     -734.31985356  energy(sigma->0) =     -734.34117351


--------------------------------------------------------------------------------------------------------




--------------------------------------- Iteration      1(   3)  ---------------------------------------


    EDDIAG:  cpu time    4.4582: real time    4.8604
  RMM-DIIS:  cpu time    9.0259: real time    9.0321
    ORTHCH:  cpu time    1.1560: real time    1.2406
       DOS:  cpu time    0.0025: real time    0.0025
    --------------------------------------------
      LOOP:  cpu time   14.6426: real time   15.1357

 eigenvalue-minimisations  :  7680
 total energy-change (2. order) : 0.8532228E+02  (-0.1422865E+04)
 number of electron     672.0000000 magnetization      48.0000000
 augmentation part      672.0000000 magnetization      48.0000000

 Free energy of the ion-electron system (eV)
  ---------------------------------------------------
  alpha Z        PSCENC =      2652.81237852
  Ewald energy   TEWEN  =    -41970.84694295
  -Hartree energ DENC   =    -25650.29095929
  -exchange      EXHF   =         0.00000000
  -V(xc)+E(xc)   XCENC  =      3605.49305551
  PAW double counting   =     55594.23204139   -59034.67079123
  entropy T*S    EENTRO =        -0.04821164
  eigenvalues    EBANDS =     -9707.91892844
  atomic energy  EATOM  =     73862.19814772
  Solvation  Ediel_sol  =         0.00000000
  ---------------------------------------------------
  free energy    TOTEN  =      -649.04021041 eV

  energy without entropy =     -648.99199877  energy(sigma->0) =     -649.01610459


--------------------------------------------------------------------------------------------------------




--------------------------------------- Iteration      1(   4)  ---------------------------------------


    EDDIAG:  cpu time    4.4027: real time    4.7831
  RMM-DIIS:  cpu time    8.9977: real time    9.0043
    ORTHCH:  cpu time    1.1569: real time    1.2405
       DOS:  cpu time    0.0013: real time    0.0013
    --------------------------------------------
      LOOP:  cpu time   14.5586: real time   15.0292

 eigenvalue-minimisations  :  7680
 total energy-change (2. order) :-0.4635846E+03  (-0.4290465E+03)
 number of electron     672.0000000 magnetization      48.0000000
 augmentation part      672.0000000 magnetization      48.0000000

 Free energy of the ion-electron system (eV)
  ---------------------------------------------------
  alpha Z        PSCENC =      2652.81237852
  Ewald energy   TEWEN  =    -41970.84694295
  -Hartree energ DENC   =    -25650.29095929
  -exchange      EXHF   =         0.00000000
  -V(xc)+E(xc)   XCENC  =      3605.49305551
  PAW double counting   =     55594.23204139   -59034.67079123
  entropy T*S    EENTRO =        -0.00000000
  eigenvalues    EBANDS =    -10171.55173738
  atomic energy  EATOM  =     73862.19814772
  Solvation  Ediel_sol  =         0.00000000
  ---------------------------------------------------
  free energy    TOTEN  =     -1112.62480771 eV

  energy without entropy =    -1112.62480771  energy(sigma->0) =    -1112.62480771


--------------------------------------------------------------------------------------------------------




--------------------------------------- Iteration      1(   5)  ---------------------------------------


    EDDIAG:  cpu time    4.4417: real time    4.8474
  RMM-DIIS:  cpu time    9.0025: real time    9.0088
    ORTHCH:  cpu time    1.1645: real time    1.2450
       DOS:  cpu time    0.0015: real time    0.0015
    --------------------------------------------
      LOOP:  cpu time   14.6102: real time   15.1027

 eigenvalue-minimisations  :  7680
 total energy-change (2. order) :-0.1034950E+03  (-0.1595742E+03)
 number of electron     672.0000000 magnetization      48.0000000
 augmentation part      672.0000000 magnetization      48.0000000

 Free energy of the ion-electron system (eV)
  ---------------------------------------------------
  alpha Z        PSCENC =      2652.81237852
  Ewald energy   TEWEN  =    -41970.84694295
  -Hartree energ DENC   =    -25650.29095929
  -exchange      EXHF   =         0.00000000
  -V(xc)+E(xc)   XCENC  =      3605.49305551
  PAW double counting   =     55594.23204139   -59034.67079123
  entropy T*S    EENTRO =        -0.00000000
  eigenvalues    EBANDS =    -10275.04672851
  atomic energy  EATOM  =     73862.19814772
  Solvation  Ediel_sol  =         0.00000000
  ---------------------------------------------------
  free energy    TOTEN  =     -1216.11979883 eV

  energy without entropy =    -1216.11979883  energy(sigma->0) =    -1216.11979883


--------------------------------------------------------------------------------------------------------




--------------------------------------- Iteration      1(   6)  ---------------------------------------


    EDDIAG:  cpu time    4.3961: real time    4.7823
  RMM-DIIS:  cpu time    8.9904: real time    9.0116
    ORTHCH:  cpu time    1.1576: real time    1.2414
       DOS:  cpu time    0.0013: real time    0.0013
    --------------------------------------------
      LOOP:  cpu time   14.5453: real time   15.0366

 eigenvalue-minimisations  :  7680
 total energy-change (2. order) :-0.8921258E+01  (-0.7922972E+02)
 number of electron     672.0000000 magnetization      48.0000000
 augmentation part      672.0000000 magnetization      48.0000000

 Free energy of the ion-electron system (eV)
  ---------------------------------------------------
  alpha Z        PSCENC =      2652.81237852
  Ewald energy   TEWEN  =    -41970.84694295
  -Hartree energ DENC   =    -25650.29095929
  -exchange      EXHF   =         0.00000000
  -V(xc)+E(xc)   XCENC  =      3605.49305551
  PAW double counting   =     55594.23204139   -59034.67079123
  entropy T*S    EENTRO =        -0.00000000
  eigenvalues    EBANDS =    -10283.96798698
  atomic energy  EATOM  =     73862.19814772
  Solvation  Ediel_sol  =         0.00000000
  ---------------------------------------------------
  free energy    TOTEN  =     -1225.04105730 eV

  energy without entropy =    -1225.04105730  energy(sigma->0) =    -1225.04105730


--------------------------------------------------------------------------------------------------------




--------------------------------------- Iteration      1(   7)  ---------------------------------------


    EDDIAG:  cpu time    4.4002: real time    4.8345
  RMM-DIIS:  cpu time    9.0156: real time    9.0220
    ORTHCH:  cpu time    1.1592: real time    1.2447
       DOS:  cpu time    0.0015: real time    0.0015
    --------------------------------------------
      LOOP:  cpu time   14.5765: real time   15.1026

 eigenvalue-minimisations  :  7680
 total energy-change (2. order) :-0.1952972E+01  (-0.4863242E+02)
 number of electron     672.0000000 magnetization      48.0000000
 augmentation part      672.0000000 magnetization      48.0000000

 Free energy of the ion-electron system (eV)
  ---------------------------------------------------
  alpha Z        PSCENC =      2652.81237852
  Ewald energy   TEWEN  =    -41970.84694295
  -Hartree energ DENC   =    -25650.29095929
  -exchange      EXHF   =         0.00000000
  -V(xc)+E(xc)   XCENC  =      3605.49305551
  PAW double counting   =     55594.23204139   -59034.67079123
  entropy T*S    EENTRO =        -0.00000000
  eigenvalues    EBANDS =    -10285.92095882
  atomic energy  EATOM  =     73862.19814772
  Solvation  Ediel_sol  =         0.00000000
  ---------------------------------------------------
  free energy    TOTEN  =     -1226.99402914 eV

  energy without entropy =    -1226.99402914  energy(sigma->0) =    -1226.99402914


--------------------------------------------------------------------------------------------------------




--------------------------------------- Iteration      1(   8)  ---------------------------------------


    EDDIAG:  cpu time    4.3839: real time    4.7943
  RMM-DIIS:  cpu time    8.9945: real time    9.0024
    ORTHCH:  cpu time    1.1554: real time    1.2389
       DOS:  cpu time    0.0017: real time    0.0017
    --------------------------------------------
      LOOP:  cpu time   14.5355: real time   15.0373

 eigenvalue-minimisations  :  7680
 total energy-change (2. order) : 0.5054932E+01  (-0.3030442E+02)
 number of electron     672.0000000 magnetization      48.0000000
 augmentation part      672.0000000 magnetization      48.0000000

 Free energy of the ion-electron system (eV)
  ---------------------------------------------------
  alpha Z        PSCENC =      2652.81237852
  Ewald energy   TEWEN  =    -41970.84694295
  -Hartree energ DENC   =    -25650.29095929
  -exchange      EXHF   =         0.00000000
  -V(xc)+E(xc)   XCENC  =      3605.49305551
  PAW double counting   =     55594.23204139   -59034.67079123
  entropy T*S    EENTRO =        -0.00000000
  eigenvalues    EBANDS =    -10280.86602682
  atomic energy  EATOM  =     73862.19814772
  Solvation  Ediel_sol  =         0.00000000
  ---------------------------------------------------
  free energy    TOTEN  =     -1221.93909715 eV

  energy without entropy =    -1221.93909715  energy(sigma->0) =    -1221.93909715


--------------------------------------------------------------------------------------------------------




--------------------------------------- Iteration      1(   9)  ---------------------------------------


    EDDIAG:  cpu time    4.4430: real time    4.8518
  RMM-DIIS:  cpu time   19.1341: real time   19.1772
    ORTHCH:  cpu time    1.1544: real time    1.2409
       DOS:  cpu time    0.0016: real time    0.0016
    --------------------------------------------
      LOOP:  cpu time   24.7331: real time   25.2716

 eigenvalue-minimisations  : 21813
 total energy-change (2. order) : 0.9459592E+01  (-0.1339131E+02)
 number of electron     672.0000000 magnetization      48.0000000
 augmentation part      672.0000000 magnetization      48.0000000

 Free energy of the ion-electron system (eV)
  ---------------------------------------------------
  alpha Z        PSCENC =      2652.81237852
  Ewald energy   TEWEN  =    -41970.84694295
  -Hartree energ DENC   =    -25650.29095929
  -exchange      EXHF   =         0.00000000
  -V(xc)+E(xc)   XCENC  =      3605.49305551
  PAW double counting   =     55594.23204139   -59034.67079123
  entropy T*S    EENTRO =        -0.00000000
  eigenvalues    EBANDS =    -10271.40643477
  atomic energy  EATOM  =     73862.19814772
  Solvation  Ediel_sol  =         0.00000000
  ---------------------------------------------------
  free energy    TOTEN  =     -1212.47950510 eV

  energy without entropy =    -1212.47950510  energy(sigma->0) =    -1212.47950510


--------------------------------------------------------------------------------------------------------




--------------------------------------- Iteration      1(  10)  ---------------------------------------


    EDDIAG:  cpu time    4.3492: real time    4.7762
  RMM-DIIS:  cpu time   17.4654: real time   17.5316
    ORTHCH:  cpu time    1.1558: real time    1.2402
       DOS:  cpu time    0.0017: real time    0.0017
    --------------------------------------------
      LOOP:  cpu time   22.9721: real time   23.5497

 eigenvalue-minimisations  : 19646
 total energy-change (2. order) :-0.1931752E+01  (-0.5365024E+00)
 number of electron     672.0000000 magnetization      48.0000000
 augmentation part      672.0000000 magnetization      48.0000000

 Free energy of the ion-electron system (eV)
  ---------------------------------------------------
  alpha Z        PSCENC =      2652.81237852
  Ewald energy   TEWEN  =    -41970.84694295
  -Hartree energ DENC   =    -25650.29095929
  -exchange      EXHF   =         0.00000000
  -V(xc)+E(xc)   XCENC  =      3605.49305551
  PAW double counting   =     55594.23204139   -59034.67079123
  entropy T*S    EENTRO =        -0.00000001
  eigenvalues    EBANDS =    -10273.33818718
  atomic energy  EATOM  =     73862.19814772
  Solvation  Ediel_sol  =         0.00000000
  ---------------------------------------------------
  free energy    TOTEN  =     -1214.41125752 eV

  energy without entropy =    -1214.41125751  energy(sigma->0) =    -1214.41125751


--------------------------------------------------------------------------------------------------------




--------------------------------------- Iteration      1(  11)  ---------------------------------------


    EDDIAG:  cpu time    4.3710: real time    4.7834
  RMM-DIIS:  cpu time   19.6738: real time   19.7028
    ORTHCH:  cpu time    1.1755: real time    1.2582
       DOS:  cpu time    0.0018: real time    0.0018
    --------------------------------------------
      LOOP:  cpu time   25.2221: real time   25.7462

 eigenvalue-minimisations  : 22588
 total energy-change (2. order) : 0.7368412E-01  (-0.4369711E-01)
 number of electron     672.0000000 magnetization      48.0000000
 augmentation part      672.0000000 magnetization      48.0000000

 Free energy of the ion-electron system (eV)
  ---------------------------------------------------
  alpha Z        PSCENC =      2652.81237852
  Ewald energy   TEWEN  =    -41970.84694295
  -Hartree energ DENC   =    -25650.29095929
  -exchange      EXHF   =         0.00000000
  -V(xc)+E(xc)   XCENC  =      3605.49305551
  PAW double counting   =     55594.23204139   -59034.67079123
  entropy T*S    EENTRO =        -0.00000002
  eigenvalues    EBANDS =    -10273.26450306
  atomic energy  EATOM  =     73862.19814772
  Solvation  Ediel_sol  =         0.00000000
  ---------------------------------------------------
  free energy    TOTEN  =     -1214.33757340 eV

  energy without entropy =    -1214.33757339  energy(sigma->0) =    -1214.33757340


--------------------------------------------------------------------------------------------------------




--------------------------------------- Iteration      1(  12)  ---------------------------------------


    EDDIAG:  cpu time    4.3862: real time    4.7889
  RMM-DIIS:  cpu time   21.4960: real time   21.5595
    ORTHCH:  cpu time    1.1587: real time    1.2450
       DOS:  cpu time    0.0014: real time    0.0014
    CHARGE:  cpu time    1.8015: real time    1.8024
    MIXING:  cpu time    0.0010: real time    0.0011
    --------------------------------------------
      LOOP:  cpu time   28.8449: real time   29.3983

 eigenvalue-minimisations  : 24444
 total energy-change (2. order) :-0.1060512E-02  (-0.4426671E-02)
 number of electron     671.9999499 magnetization      47.9999968
 augmentation part      238.9724272 magnetization      29.0219561

 Broyden mixing:
  rms(total) = 0.12455E+02    rms(broyden)= 0.12445E+02
  rms(prec ) = 0.14330E+02
  weight for this iteration     100.00

 Free energy of the ion-electron system (eV)
  ---------------------------------------------------
  alpha Z        PSCENC =      2652.81237852
  Ewald energy   TEWEN  =    -41970.84694295
  -Hartree energ DENC   =    -25650.29095929
  -exchange      EXHF   =         0.00000000
  -V(xc)+E(xc)   XCENC  =      3605.49305551
  PAW double counting   =     55594.23204139   -59034.67079123
  entropy T*S    EENTRO =        -0.00000001
  eigenvalues    EBANDS =    -10273.26556358
  atomic energy  EATOM  =     73862.19814772
  Solvation  Ediel_sol  =         0.00000000
  ---------------------------------------------------
  free energy    TOTEN  =     -1214.33863392 eV

  energy without entropy =    -1214.33863390  energy(sigma->0) =    -1214.33863391


--------------------------------------------------------------------------------------------------------




--------------------------------------- Iteration      1(  13)  ---------------------------------------


    POTLOK:  cpu time    0.1708: real time    0.1717
    SETDIJ:  cpu time    4.9641: real time    4.9660
    EDDIAG:  cpu time    4.3916: real time    4.7928
  RMM-DIIS:  cpu time   17.3342: real time   17.3688
    ORTHCH:  cpu time    1.1569: real time    1.2387
       DOS:  cpu time    0.0015: real time    0.0015
    CHARGE:  cpu time    1.8011: real time    1.8050
    MIXING:  cpu time    0.0009: real time    0.0010
    --------------------------------------------
      LOOP:  cpu time   29.8210: real time   30.3455

 eigenvalue-minimisations  : 18738
 total energy-change (2. order) : 0.2268580E+03  (-0.1225286E+03)
 number of electron     671.9999502 magnetization      47.9999960
 augmentation part      269.3707457 magnetization      26.1900366

 Broyden mixing:
  rms(total) = 0.14092E+02    rms(broyden)= 0.14089E+02
  rms(prec ) = 0.15906E+02
  weight for this iteration     100.00

 eigenvalues of (default mixing * dielectric matrix)
  average eigenvalue GAMMA=   0.3146
  0.3146

 Free energy of the ion-electron system (eV)
  ---------------------------------------------------
  alpha Z        PSCENC =      2652.81237852
  Ewald energy   TEWEN  =    -41970.84694295
  -Hartree energ DENC   =    -24970.43234704
  -exchange      EXHF   =         0.00000000
  -V(xc)+E(xc)   XCENC  =      3695.45026013
  PAW double counting   =     59806.87470213   -63231.51324005
  entropy T*S    EENTRO =        -0.06899374
  eigenvalues    EBANDS =    -10831.95464075
  atomic energy  EATOM  =     73862.19814772
  Solvation  Ediel_sol  =         0.00000000
  ---------------------------------------------------
  free energy    TOTEN  =      -987.48067602 eV

  energy without entropy =     -987.41168228  energy(sigma->0) =     -987.44617915


--------------------------------------------------------------------------------------------------------




--------------------------------------- Iteration      1(  14)  ---------------------------------------


    POTLOK:  cpu time    0.1760: real time    0.1763
    SETDIJ:  cpu time    4.9299: real time    4.9345
    EDDIAG:  cpu time    4.4353: real time    4.8427
  RMM-DIIS:  cpu time   17.5952: real time   17.6719
    ORTHCH:  cpu time    1.1526: real time    1.2391
       DOS:  cpu time    0.0015: real time    0.0015
    CHARGE:  cpu time    1.8035: real time    1.8072
    MIXING:  cpu time    0.0009: real time    0.0009
    --------------------------------------------
      LOOP:  cpu time   30.0949: real time   30.6742

 eigenvalue-minimisations  : 19347
 total energy-change (2. order) : 0.7165282E+02  (-0.1795668E+02)
 number of electron     671.9999502 magnetization      47.9999937
 augmentation part      246.4889624 magnetization      32.1447027

 Broyden mixing:
  rms(total) = 0.52324E+01    rms(broyden)= 0.52279E+01
  rms(prec ) = 0.56802E+01
  weight for this iteration     100.00

 eigenvalues of (default mixing * dielectric matrix)
  average eigenvalue GAMMA=   0.7244
  1.0935  0.3554

 Free energy of the ion-electron system (eV)
  ---------------------------------------------------
  alpha Z        PSCENC =      2652.81237852
  Ewald energy   TEWEN  =    -41970.84694295
  -Hartree energ DENC   =    -25583.49762576
  -exchange      EXHF   =         0.00000000
  -V(xc)+E(xc)   XCENC  =      3672.13701061
  PAW double counting   =     63160.51084862   -66642.12108082
  entropy T*S    EENTRO =        -0.00000000
  eigenvalues    EBANDS =    -10067.02059286
  atomic energy  EATOM  =     73862.19814772
  Solvation  Ediel_sol  =         0.00000000
  ---------------------------------------------------
  free energy    TOTEN  =      -915.82785692 eV

  energy without entropy =     -915.82785692  energy(sigma->0) =     -915.82785692


--------------------------------------------------------------------------------------------------------




--------------------------------------- Iteration      1(  15)  ---------------------------------------


    POTLOK:  cpu time    0.1718: real time    0.1719
    SETDIJ:  cpu time    4.9599: real time    4.9618
    EDDIAG:  cpu time    4.3930: real time    4.7978
  RMM-DIIS:  cpu time   17.7917: real time   17.8319
    ORTHCH:  cpu time    1.1574: real time    1.2387
       DOS:  cpu time    0.0012: real time    0.0012
    CHARGE:  cpu time    1.7995: real time    1.8003
    MIXING:  cpu time    0.0009: real time    0.0009
    --------------------------------------------
      LOOP:  cpu time   30.2753: real time   30.8045

 eigenvalue-minimisations  : 20206
 total energy-change (2. order) : 0.1457973E+02  (-0.2155034E+01)
 number of electron     671.9999500 magnetization      47.9999922
 augmentation part      249.6864470 magnetization      33.8341841

 Broyden mixing:
  rms(total) = 0.22025E+01    rms(broyden)= 0.22021E+01
  rms(prec ) = 0.22845E+01
  weight for this iteration     100.00

 eigenvalues of (default mixing * dielectric matrix)
  average eigenvalue GAMMA=   0.9243
  1.6507  0.3790  0.7431

 Free energy of the ion-electron system (eV)
  ---------------------------------------------------
  alpha Z        PSCENC =      2652.81237852
  Ewald energy   TEWEN  =    -41970.84694295
  -Hartree energ DENC   =    -25498.32388081
  -exchange      EXHF   =         0.00000000
  -V(xc)+E(xc)   XCENC  =      3705.60111870
  PAW double counting   =     67170.25095290   -70691.74349732
  entropy T*S    EENTRO =        -0.00000000
  eigenvalues    EBANDS =    -10131.19640144
  atomic energy  EATOM  =     73862.19814772
  Solvation  Ediel_sol  =         0.00000000
  ---------------------------------------------------
  free energy    TOTEN  =      -901.24812468 eV

  energy without entropy =     -901.24812468  energy(sigma->0) =     -901.24812468


--------------------------------------------------------------------------------------------------------




--------------------------------------- Iteration      1(  16)  ---------------------------------------


    POTLOK:  cpu time    0.1708: real time    0.1719
    SETDIJ:  cpu time    5.0341: real time    5.0367
    EDDIAG:  cpu time    4.4056: real time    4.8071
  RMM-DIIS:  cpu time   17.4052: real time   17.4318
    ORTHCH:  cpu time    1.1560: real time    1.2393
       DOS:  cpu time    0.0013: real time    0.0013
    CHARGE:  cpu time    1.8031: real time    1.8039
    MIXING:  cpu time    0.0010: real time    0.0010
    --------------------------------------------
      LOOP:  cpu time   29.9771: real time   30.4930

 eigenvalue-minimisations  : 19147
 total energy-change (2. order) :-0.1507827E+01  (-0.6489912E+00)
 number of electron     671.9999507 magnetization      47.9999917
 augmentation part      251.1206409 magnetization      33.9364204

 Broyden mixing:
  rms(total) = 0.15037E+01    rms(broyden)= 0.15032E+01
  rms(prec ) = 0.15906E+01
  weight for this iteration     100.00

 eigenvalues of (default mixing * dielectric matrix)
  average eigenvalue GAMMA=   0.9648
  2.0645  0.8977  0.3851  0.5120

 Free energy of the ion-electron system (eV)
  ---------------------------------------------------
  alpha Z        PSCENC =      2652.81237852
  Ewald energy   TEWEN  =    -41970.84694295
  -Hartree energ DENC   =    -25448.40770815
  -exchange      EXHF   =         0.00000000
  -V(xc)+E(xc)   XCENC  =      3706.48244455
  PAW double counting   =     69989.54468715   -73539.74500432
  entropy T*S    EENTRO =        -0.00000000
  eigenvalues    EBANDS =    -10154.79395414
  atomic energy  EATOM  =     73862.19814772
  Solvation  Ediel_sol  =         0.00000000
  ---------------------------------------------------
  free energy    TOTEN  =      -902.75595162 eV

  energy without entropy =     -902.75595162  energy(sigma->0) =     -902.75595162


--------------------------------------------------------------------------------------------------------




--------------------------------------- Iteration      1(  17)  ---------------------------------------


    POTLOK:  cpu time    0.1738: real time    0.1751
    SETDIJ:  cpu time    5.0088: real time    5.0191
    EDDIAG:  cpu time    4.3762: real time    4.7834
  RMM-DIIS:  cpu time   18.1108: real time   18.1638
    ORTHCH:  cpu time    1.1589: real time    1.2459
       DOS:  cpu time    0.0016: real time    0.0016
    CHARGE:  cpu time    1.7845: real time    1.7888
    MIXING:  cpu time    0.0021: real time    0.0021
    --------------------------------------------
      LOOP:  cpu time   30.6167: real time   31.1799

 eigenvalue-minimisations  : 20307
 total energy-change (2. order) : 0.1052703E+00  (-0.7938819E-01)
 number of electron     671.9999502 magnetization      47.9999914
 augmentation part      251.1210063 magnetization      33.9400677

 Broyden mixing:
  rms(total) = 0.80319E+00    rms(broyden)= 0.80302E+00
  rms(prec ) = 0.90861E+00
  weight for this iteration     100.00

 eigenvalues of (default mixing * dielectric matrix)
  average eigenvalue GAMMA=   0.9858
  2.2152  1.1080  0.3751  0.6842  0.5464

 Free energy of the ion-electron system (eV)
  ---------------------------------------------------
  alpha Z        PSCENC =      2652.81237852
  Ewald energy   TEWEN  =    -41970.84694295
  -Hartree energ DENC   =    -25438.14020940
  -exchange      EXHF   =         0.00000000
  -V(xc)+E(xc)   XCENC  =      3704.03085922
  PAW double counting   =     70936.75474529   -74496.20284085
  entropy T*S    EENTRO =        -0.00000000
  eigenvalues    EBANDS =    -10153.25681892
  atomic energy  EATOM  =     73862.19814772
  Solvation  Ediel_sol  =         0.00000000
  ---------------------------------------------------
  free energy    TOTEN  =      -902.65068137 eV

  energy without entropy =     -902.65068137  energy(sigma->0) =     -902.65068137


--------------------------------------------------------------------------------------------------------




--------------------------------------- Iteration      1(  18)  ---------------------------------------


    POTLOK:  cpu time    0.1716: real time    0.1723
    SETDIJ:  cpu time    5.0235: real time    5.0286
    EDDIAG:  cpu time    4.3719: real time    4.7851
  RMM-DIIS:  cpu time   17.7868: real time   17.8501
    ORTHCH:  cpu time    1.1580: real time    1.2405
       DOS:  cpu time    0.0011: real time    0.0011
    CHARGE:  cpu time    1.7878: real time    1.7897
    MIXING:  cpu time    0.0013: real time    0.0013
    --------------------------------------------
      LOOP:  cpu time   30.3020: real time   30.8688

 eigenvalue-minimisations  : 19259
 total energy-change (2. order) : 0.4345930E+00  (-0.6780758E-01)
 number of electron     671.9999504 magnetization      47.9999913
 augmentation part      250.6097958 magnetization      33.9061528

 Broyden mixing:
  rms(total) = 0.30092E+00    rms(broyden)= 0.30068E+00
  rms(prec ) = 0.31810E+00
  weight for this iteration     100.00

 eigenvalues of (default mixing * dielectric matrix)
  average eigenvalue GAMMA=   1.0146
  2.4495  1.3567  0.8517  0.5901  0.3768  0.4625

 Free energy of the ion-electron system (eV)
  ---------------------------------------------------
  alpha Z        PSCENC =      2652.81237852
[...]
   4      -0.853    -0.768     1.621    -0.084    -0.349    -0.294
   5      -0.559    -0.846     1.405     0.053    -0.024    -0.409
   6      -0.874    -0.951     1.825     0.034     0.070     0.020
   7      -0.522    -0.880     1.402    -0.020     0.089     0.535
   8      -0.897    -0.706     1.603     0.045     0.345    -0.315
   9      -0.950    -0.855     1.806     0.113     0.067     0.023
  10      -0.831    -0.693     1.524     0.148    -0.393     0.222
  11      -0.859    -0.718     1.577     0.164    -0.433     0.174
  12      -0.816    -0.690     1.506    -0.135    -0.565    -0.174
  13      -0.678    -0.705     1.383     0.022     0.045    -0.017
  14      -0.657    -0.913     1.569    -0.015    -0.025     0.501
  15      -0.834    -0.667     1.501    -0.123     0.397     0.227
  16      -0.810    -0.697     1.507    -0.102     0.432     0.227
  17       1.403     1.554    -2.957     0.016    -0.026    -0.003
  18       1.567     1.387    -2.955    -0.251     0.064     0.016
  19       1.445     1.377    -2.822     0.004     0.104     0.067
  20       1.368     1.606    -2.974     0.250    -0.008     0.021
  21       1.679     1.220    -2.899    -0.049     0.008    -0.033
  22       1.431     1.453    -2.884    -0.043     0.205     0.031
  23       1.259     1.641    -2.900    -0.156    -0.060    -0.192
  24       1.590     1.299    -2.889    -0.050    -0.124     0.067
  25       0.554     0.367    -0.921    -0.078     0.560     0.399
  26      -1.246     1.090     0.156     0.686    -0.403    -0.366
  27      -1.323     2.462    -1.139    -0.888     1.343    -0.051
  28      -0.498     0.263     0.235     0.494     1.335     0.271
  29      -0.635    -1.019     1.655    -0.171     0.705     0.035
  30      -0.081     0.713    -0.632     0.738    -0.482    -0.347
  31      -2.290    -1.485     3.775    -0.353    -0.418    -0.452
  32      -1.504     1.630    -0.127     0.220    -0.338     0.634
  33      -0.483     0.773    -0.290     0.013     0.404    -0.378
  34      -0.901     0.119     0.782    -1.524    -0.869    -0.676
  35      -0.827     2.210    -1.383    -1.018     1.138    -0.896
  36      -0.478    -1.184     1.662     0.353    -0.563     0.802
  37       0.661    -0.170    -0.490    -1.128     0.630    -0.397
  38      -1.137    -0.023     1.160    -0.542    -1.136    -0.127
  39      -0.066    -0.946     1.012    -0.846    -0.188     0.550
  40      -0.095    -0.861     0.956     0.439     1.318     0.595
  41      -3.508     2.276     1.232    -4.590     2.550    -4.835
  42      -3.248     2.668     0.580     5.619     2.511     4.308
  43       4.784    -6.538     1.754     0.137    -4.048    -1.379
  44      -3.534     2.408     1.126     3.616    -2.633    -3.271
  45      -1.078     2.924    -1.846    -5.509    -0.529     3.539
  46       4.290    -6.792     2.501     0.544     5.249    -1.849
  47      -3.316     3.173     0.144    -5.164     2.002    -3.223
  48       6.481    -4.209    -2.271     1.296    -3.257    -0.409
  49      -3.249     1.383     1.866     5.203     4.110     4.354
  50       3.177    -5.561     2.385     3.538     5.261    -1.930
  51      -3.225     0.298     2.927    -4.745    -4.232     3.728
  52      -4.155     4.593    -0.439     5.930    -2.190    -2.988
  53      -5.124     2.524     2.600    -3.541     2.013    -5.603
  54      -1.491     2.507    -1.015     6.327     1.482     3.070
  55       5.174    -6.396     1.222     2.155    -5.569     0.677
  56      -2.013    -1.146     3.159     5.834    -2.198    -4.444
  57      -3.696    -0.066     3.763    -4.375    -2.259     4.150
  58       5.295    -5.395     0.100    -1.030     3.731     3.373
  59      -3.758     3.034     0.724    -5.818     1.621    -5.448
  60       5.427    -5.513     0.086    -0.902    -4.784    -2.423
  61      -1.464     2.000    -0.536     3.168     2.674     2.765
  62       2.458    -4.618     2.160    -1.470     4.937     0.145
  63      -3.709     3.766    -0.057    -4.454    -1.579     3.127
  64      -3.544     3.540     0.004     6.546    -2.234    -3.364
  65      -4.065     1.112     2.953    -3.731     4.263    -3.479
  66      -1.785     2.423    -0.637     6.634     1.202     3.224
  67       5.712    -6.494     0.782     0.528    -5.466     2.235
  68      -0.815     0.743     0.072     4.788     0.152    -4.198
  69      -3.537     4.508    -0.971    -5.282    -0.872     4.686
  70       3.785    -5.624     1.839     0.023     5.065     0.578
  71      -2.210     1.386     0.824    -5.315     1.018    -5.468
  72       5.775    -6.203     0.429    -1.644    -6.229    -0.587
  73      -3.290     2.157     1.133     2.448     2.745     3.823
  74       3.684    -5.519     1.835    -1.269     5.374    -1.455
  75      -3.304     3.356    -0.052    -4.833    -2.193     4.758
  76      -1.965     4.218    -2.253     7.264    -1.061    -4.371
  77      -2.961     2.137     0.824    -4.554     3.978    -3.660
  78      -4.783     4.188     0.595     3.423     2.485     4.022
  79       4.951    -4.699    -0.251     0.213    -3.886     0.792
  80      -3.347     2.340     1.006     3.045    -3.412    -3.689
  81      -3.129     0.282     2.846    -5.006    -3.337     4.667
  82       8.714    -7.531    -1.183    -1.881     3.802     0.987
  83      -2.496     2.581    -0.085    -6.765     1.111    -4.467
  84       4.401    -6.489     2.088     0.017    -5.154     1.092
  85      -3.505     4.096    -0.591     5.236     1.310     4.326
  86       5.150    -4.700    -0.450     0.888     4.233    -0.298
  87      -5.000     4.377     0.623    -4.274    -4.408     3.015
  88      -2.802     2.070     0.732     3.896    -3.696    -3.501
 ---------------------------------------------------------------------


 Total hyperfine coupling parameters after diagonalization (MHz)
 (convention: |A_zz| > |A_xx| > |A_yy|)
 ----------------------------------------------------------------------
  ion      A_xx      A_yy      A_zz     asymmetry (A_yy - A_xx)/ A_zz 
 ----------------------------------------------------------------------
   1       1.271     0.956     3.205      -0.098
   2       1.750     1.539     4.127      -0.051
   3       0.827     0.747     3.478      -0.023
   4       2.080     1.815     4.499      -0.059
   5       1.628     1.257     3.658      -0.101
   6       0.225     0.124     2.915      -0.035
   7       1.986     1.505     4.032      -0.119
   8       1.938     1.676     4.340      -0.060
   9       0.378     0.133     2.967      -0.083
  10       1.721     1.313     3.924      -0.104
  11       2.605     2.171     4.878      -0.089
  12       2.226     1.806     4.483      -0.094
  13       0.384     0.331     2.434      -0.022
  14       2.347     1.994     4.671      -0.076
  15       2.311     1.930     4.499      -0.085
  16       1.668     1.338     3.908      -0.084
  17      13.892     9.533    14.046      -0.310
  18      14.788    10.621    15.321      -0.272
  19      13.460     9.257    13.530      -0.311
  20      14.644    10.460    15.197      -0.275
  21      14.477    10.362    14.945      -0.275
  22      14.553    10.254    14.636      -0.294
  23      13.148     9.032    13.644      -0.302
  24      13.515     9.330    13.825      -0.303
  25      96.554    94.881    96.846      -0.017
  26      97.397    95.867    98.799      -0.015
  27      94.476    91.864    97.212      -0.027
  28      94.221    92.605    95.625      -0.017
  29      95.733    95.339    98.317      -0.004
  30      94.191    93.668    95.894      -0.005
  31      95.617    94.511   100.821      -0.011
  32      95.523    94.113    97.576      -0.014
  33      93.437    92.657    94.402      -0.008
  34     100.244    96.718   100.336      -0.035
  35      92.775    91.085    96.230      -0.018
  36      99.917    98.652   102.225      -0.012
  37      94.587    94.363    97.025      -0.002
  38      99.942    98.020   101.428      -0.019
  39      98.753    97.016    99.830      -0.017
  40      95.797    95.714    98.812      -0.001
  41       4.402     1.086    15.900      -0.209
  42       3.414    -0.859    14.792      -0.289
  43       6.485     0.557    14.994      -0.395
  44       3.722    -0.170    12.269      -0.317
  45       8.060     4.398    18.023      -0.203
  46       6.869     0.833    16.991      -0.355
  47       4.828     0.355    14.416      -0.310
  48       3.069     2.054    14.134      -0.072
  49       4.364     0.109    16.347      -0.260
  50       6.939    -1.301    15.103      -0.546
  51       5.696     0.920    16.516      -0.289
  52       7.084     1.665    17.883      -0.303
  53       3.252    -0.537    15.223      -0.249
  54       5.322     1.238    15.800      -0.258
  55       6.329     1.108    17.563      -0.297
  56       7.100     0.348    16.556      -0.408
  57       6.127     0.890    15.574      -0.336
  58       6.485    -1.307    13.510      -0.577
  59       6.982     1.993    19.170      -0.260
  60       5.674    -0.137    15.145      -0.384
  61       5.688     3.997    13.898      -0.122
  62       3.069     0.019    12.533      -0.243
  63       4.205     0.099    13.360      -0.307
  64       7.408     1.714    18.375      -0.310
  65       6.616     1.480    16.398      -0.313
  66       5.807     0.689    15.980      -0.320
  67       5.644    -0.100    16.694      -0.344
  68       6.207     0.030    12.861      -0.480
  69       2.914    -1.011    14.771      -0.266
  70       8.368     4.968    18.639      -0.182
  71       6.528     1.160    16.774      -0.320
  72       4.925     1.120    17.945      -0.212
  73       3.957     1.416    12.920      -0.197
  74       5.539     2.398    16.678      -0.188
  75       4.568     1.780    16.585      -0.168
  76       6.239     1.986    19.782      -0.215
  77       4.228     0.285    14.875      -0.265
  78       6.427     2.259    16.605      -0.251
  79       5.069     2.207    14.181      -0.202
  80       4.885     1.477    14.200      -0.240
  81       5.998     1.690    17.518      -0.246
  82       9.031     3.014    21.216      -0.284
  83       6.802     0.869    17.757      -0.334
  84       5.373     0.571    15.807      -0.304
  85       5.123     1.340    16.533      -0.229
  86       5.186     2.758    15.160      -0.160
  87       6.606    -0.609    15.966      -0.452
  88       2.452    -0.981    12.288      -0.279
 ---------------------------------------------------------------------



--------------------------------------------------------------------------------------------------------


 stress matrix after NEB project (eV)
    -47.31869     -0.27437      0.64780
     -0.27216    -48.26851      0.84785
      0.63029      0.85543    -66.51264
  FORCES: max atom, RMS     2.231109    1.078123
  FORCE total and by dimension   10.113692    1.773759
  Stress total and by dimension   94.843321   66.512638
     LOOP+:  cpu time  756.3514: real time  771.1562
    4ORBIT:  cpu time    0.0000: real time    0.0000
 


 total charge     
 
# of ion       s       p       d       tot
------------------------------------------
    1        0.050   5.993   0.000   6.043
    2        0.045   5.986   0.000   6.031
    3        0.052   5.997   0.000   6.049
    4        0.055   5.997   0.000   6.052
    5        0.050   5.994   0.000   6.044
    6        0.049   5.994   0.000   6.043
    7        0.051   5.995   0.000   6.046
    8        0.054   5.996   0.000   6.050
    9        0.049   5.993   0.000   6.042
   10        0.046   5.988   0.000   6.034
   11        0.053   5.996   0.000   6.049
   12        0.054   5.996   0.000   6.049
   13        0.048   5.992   0.000   6.040
   14        0.052   5.993   0.000   6.046
   15        0.045   5.987   0.000   6.032
   16        0.049   5.991   0.000   6.040
   17        0.152   6.134   0.089   6.374
   18        0.151   6.129   0.084   6.364
   19        0.144   6.119   0.077   6.340
   20        0.151   6.131   0.087   6.369
   21        0.149   6.128   0.084   6.361
   22        0.150   6.129   0.084   6.362
   23        0.149   6.129   0.084   6.363
   24        0.152   6.133   0.088   6.373
   25        0.360   6.421   4.800  11.581
   26        0.359   6.421   4.787  11.567
   27        0.380   6.459   4.840  11.678
   28        0.379   6.463   4.835  11.678
   29        0.378   6.462   4.826  11.667
   30        0.373   6.449   4.825  11.646
   31        0.381   6.468   4.834  11.684
   32        0.369   6.434   4.822  11.624
   33        0.386   6.478   4.855  11.719
   34        0.359   6.421   4.799  11.579
   35        0.387   6.471   4.868  11.726
   36        0.375   6.457   4.831  11.663
   37        0.378   6.460   4.838  11.676
   38        0.374   6.448   4.837  11.659
   39        0.377   6.461   4.838  11.676
   40        0.363   6.431   4.805  11.599
   41        1.598   3.490   0.000   5.088
   42        1.598   3.500   0.000   5.098
   43        1.597   3.475   0.000   5.071
   44        1.596   3.516   0.000   5.112
   45        1.600   3.526   0.000   5.126
   46        1.600   3.509   0.000   5.109
   47        1.594   3.486   0.000   5.080
   48        1.599   3.477   0.000   5.076
   49        1.602   3.496   0.000   5.099
   50        1.599   3.493   0.000   5.092
   51        1.601   3.522   0.000   5.122
   52        1.600   3.484   0.000   5.084
   53        1.600   3.500   0.000   5.101
   54        1.600   3.515   0.000   5.116
   55        1.601   3.485   0.000   5.086
   56        1.602   3.539   0.000   5.141
   57        1.599   3.528   0.000   5.127
   58        1.597   3.493   0.000   5.090
   59        1.602   3.494   0.000   5.096
   60        1.599   3.512   0.000   5.111
   61        1.594   3.493   0.000   5.087
   62        1.596   3.503   0.000   5.099
   63        1.595   3.495   0.000   5.090
   64        1.603   3.486   0.000   5.089
   65        1.599   3.530   0.000   5.129
   66        1.600   3.481   0.000   5.081
   67        1.602   3.497   0.000   5.099
   68        1.598   3.540   0.000   5.138
   69        1.600   3.485   0.000   5.084
   70        1.598   3.512   0.000   5.111
   71        1.601   3.533   0.000   5.134
   72        1.600   3.452   0.000   5.052
   73        1.597   3.485   0.000   5.082
   74        1.599   3.517   0.000   5.115
   75        1.602   3.512   0.000   5.114
   76        1.602   3.466   0.000   5.068
   77        1.598   3.520   0.000   5.118
   78        1.599   3.520   0.000   5.119
   79        1.596   3.491   0.000   5.087
   80        1.597   3.489   0.000   5.086
   81        1.601   3.514   0.000   5.115
   82        1.602   3.478   0.000   5.080
   83        1.602   3.542   0.000   5.144
   84        1.599   3.514   0.000   5.114
   85        1.601   3.476   0.000   5.077
   86        1.599   3.528   0.000   5.128
   87        1.599   3.516   0.000   5.115
   88        1.596   3.489   0.000   5.085
--------------------------------------------------
tot         84.740 416.223  77.918 578.882
 


 magnetization (x)
 
# of ion       s       p       d       tot
------------------------------------------
    1        0.001   0.000   0.000   0.001
    2        0.002   0.000   0.000   0.002
    3        0.001   0.001   0.000   0.002
    4        0.002   0.000   0.000   0.002
    5        0.002   0.000   0.000   0.002
    6        0.001   0.000   0.000   0.001
    7        0.002   0.000   0.000   0.002
    8        0.002   0.000   0.000   0.002
    9        0.001   0.000   0.000   0.001
   10        0.002   0.000   0.000   0.002
   11        0.002   0.000   0.000   0.003
   12        0.002   0.000   0.000   0.002
   13        0.001   0.000   0.000   0.001
   14        0.002   0.000   0.000   0.002
   15        0.002   0.000   0.000   0.003
   16        0.002  -0.000   0.000   0.002
   17        0.007   0.002   0.001   0.010
   18        0.007   0.003   0.001   0.011
   19        0.007   0.002   0.001   0.010
   20        0.008   0.003   0.001   0.012
   21        0.007   0.003   0.001   0.011
   22        0.007   0.002   0.001   0.011
   23        0.007   0.002   0.001   0.009
   24        0.007   0.002   0.001   0.010
   25        0.015   0.028   2.786   2.829
   26        0.015   0.029   2.800   2.845
   27        0.014   0.029   2.737   2.781
   28        0.015   0.030   2.742   2.787
   29        0.015   0.031   2.760   2.806
   30        0.015   0.029   2.748   2.792
   31        0.015   0.030   2.758   2.804
   32        0.015   0.029   2.759   2.803
   33        0.015   0.031   2.725   2.770
   34        0.016   0.029   2.800   2.845
   35        0.014   0.029   2.710   2.754
   36        0.017   0.031   2.749   2.797
   37        0.015   0.030   2.741   2.786
   38        0.016   0.030   2.753   2.799
   39        0.016   0.031   2.756   2.803
   40        0.015   0.029   2.777   2.821
   41        0.002   0.029   0.000   0.031
   42        0.002   0.025   0.000   0.027
   43        0.002   0.031   0.000   0.033
   44        0.001   0.026   0.000   0.027
   45        0.003   0.046   0.000   0.049
   46        0.002   0.042   0.000   0.044
   47        0.002   0.020   0.000   0.022
   48        0.002   0.013   0.000   0.015
   49        0.002   0.023   0.000   0.025
   50        0.002   0.026   0.000   0.028
   51        0.002   0.045   0.000   0.047
   52        0.002   0.045   0.000   0.047
   53        0.002   0.026   0.000   0.028
   54        0.002   0.032   0.000   0.034
   55        0.002   0.038   0.000   0.041
   56        0.002   0.050   0.000   0.052
   57        0.002   0.041   0.000   0.043
   58        0.002   0.021   0.000   0.023
   59        0.002   0.045   0.000   0.047
   60        0.002   0.031   0.000   0.033
   61        0.002   0.034   0.000   0.036
   62        0.002   0.013   0.000   0.015
   63        0.002   0.028   0.000   0.030
   64        0.002   0.042   0.000   0.044
   65        0.002   0.042   0.000   0.044
   66        0.002   0.023   0.000   0.025
   67        0.002   0.030   0.000   0.032
   68        0.002   0.033   0.000   0.035
   69        0.002   0.013   0.000   0.015
   70        0.003   0.055   0.000   0.058
   71        0.002   0.046   0.000   0.048
   72        0.002   0.020   0.000   0.022
   73        0.002   0.013   0.000   0.014
   74        0.002   0.040   0.000   0.042
   75        0.002   0.033   0.000   0.035
   76        0.002   0.037   0.000   0.040
   77        0.002   0.026   0.000   0.028
   78        0.002   0.041   0.000   0.043
   79        0.002   0.028   0.000   0.030
   80        0.002   0.024   0.000   0.026
   81        0.002   0.039   0.000   0.041
   82        0.003   0.054   0.000   0.057
   83        0.002   0.051   0.000   0.053
   84        0.002   0.029   0.000   0.031
   85        0.002   0.035   0.000   0.037
   86        0.002   0.033   0.000   0.035
   87        0.002   0.038   0.000   0.040
   88        0.001   0.002   0.000   0.004
--------------------------------------------------
tot          0.422   2.055  44.112  46.589
 

 total amount of memory used by VASP MPI-rank0    94435. kBytes
=======================================================================

   base      :      30000. kBytes
   nonlr-proj:      13676. kBytes
   fftplans  :       1275. kBytes
   grid      :      22786. kBytes
   one-center:       2737. kBytes
   wavefun   :      23961. kBytes
 
  
  
 General timing and accounting informations for this job:
 ========================================================
  
                  Total CPU time used (sec):      777.186
                            User time (sec):      769.496
                          System time (sec):        7.690
                         Elapsed time (sec):      794.555
  
                   Maximum memory used (kb):      194240.
                   Average memory used (kb):           0.
  
                          Minor page faults:       281839
                          Major page faults:            0
                 Voluntary context switches:       254402
