 vasp.5.4.4.18Apr17-6-g9f103f2a35 (build Dec 02 2020 12:53:39) complex          
  
 executed on             LinuxIFC date 2021.08.02  22:24:07
 running on   96 total cores
 distrk:  each k-point on   96 cores,    1 groups
 distr:  one band on NCORES_PER_BAND=   1 cores,   96 groups


--------------------------------------------------------------------------------------------------------


 INCAR:
 POTCAR:    PAW_PBE Na_pv 19Sep2006               
 POTCAR:    PAW_PBE Mg_pv 13Apr2007               
 POTCAR:    PAW_PBE Mn_pv 02Aug2007               
 POTCAR:    PAW_PBE O 08Apr2002                   

 ----------------------------------------------------------------------------- 
|                                                                             |
|           W    W    AA    RRRRR   N    N  II  N    N   GGGG   !!!           |
|           W    W   A  A   R    R  NN   N  II  NN   N  G    G  !!!           |
|           W    W  A    A  R    R  N N  N  II  N N  N  G       !!!           |
|           W WW W  AAAAAA  RRRRR   N  N N  II  N  N N  G  GGG   !            |
|           WW  WW  A    A  R   R   N   NN  II  N   NN  G    G                |
|           W    W  A    A  R    R  N    N  II  N    N   GGGG   !!!           |
|                                                                             |
|      For optimal performance we recommend to set                            |
|        NCORE= 4 - approx SQRT( number of cores)                             |
|      NCORE specifies how many cores store one orbital (NPAR=cpu/NCORE).     |
|      This setting can  greatly improve the performance of VASP for DFT.     |
|      The default,   NCORE=1            might be grossly inefficient         |
|      on modern multi-core architectures or massively parallel machines.     |
|      Do your own testing !!!!                                               |
|      Unfortunately you need to use the default for GW and RPA calculations. |
|      (for HF NCORE is supported but not extensively tested yet)             |
|                                                                             |
 ----------------------------------------------------------------------------- 

 POTCAR:    PAW_PBE Na_pv 19Sep2006               
   VRHFIN =Na: p6s1                                                             
   LEXCH  = PE                                                                  
   EATOM  =   766.0439 eV,   56.3026 Ry                                         
                                                                                
   TITEL  = PAW_PBE Na_pv 19Sep2006                                             
   LULTRA =        F    use ultrasoft PP ?                                      
   IUNSCR =        1    unscreen: 0-lin 1-nonlin 2-no                           
   RPACOR =    1.800    partial core radius                                     
   POMASS =   22.990; ZVAL   =    7.000    mass and valenz                      
   RCORE  =    2.200    outmost cutoff radius                                   
   RWIGS  =    2.200; RWIGS  =    1.164    wigner-seitz radius (au A)           
   ENMAX  =  259.561; ENMIN  =  194.671 eV                                      
   ICORE  =        2    local potential                                         
   LCOR   =        T    correct aug charges                                     
   LPAW   =        T    paw PP                                                  
   EAUG   =  368.056                                                            
   DEXC   =    0.000                                                            
   RMAX   =    2.245    core radius for proj-oper                               
   RAUG   =    1.300    factor for augmentation sphere                          
   RDEP   =    2.259    radius for radial grids                                 
   RDEPT  =    1.738    core radius for aug-charge                              
                                                                                
   Atomic configuration                                                         
    5 entries                                                                   
     n  l   j            E        occ.                                          
     1  0  0.50     -1033.6933   2.0000                                         
     2  0  0.50       -56.7526   2.0000                                         
     2  1  1.50       -28.6721   6.0000                                         
     3  0  0.50        -2.7440   1.0000                                         
     3  2  1.50        -1.3606   0.0000                                         
   Description                                                                  
     l       E           TYP  RCUT    TYP  RCUT                                 
     1    -28.6720912     23  2.000                                             
     1      6.8029130     23  2.000                                             
     0     -2.7439560     23  2.200                                             
     0     34.0145650     23  2.200                                             
     2     -1.3605826     23  2.200                                             
  local pseudopotential read in
  partial core-charges read in
  partial kinetic energy density read in
  atomic valenz-charges read in
  non local Contribution for L=           1  read in
    real space projection operators read in
  non local Contribution for L=           1  read in
    real space projection operators read in
  non local Contribution for L=           0  read in
    real space projection operators read in
  non local Contribution for L=           0  read in
    real space projection operators read in
    PAW grid and wavefunctions read in
 
   number of l-projection  operators is LMAX  =           4
   number of lm-projection operators is LMMAX =           8
 
 POTCAR:    PAW_PBE Mg_pv 13Apr2007               
   VRHFIN =Mg: p6s2                                                             
   LEXCH  = PE                                                                  
   EATOM  =  1056.7344 eV,   77.6678 Ry                                         
                                                                                
   TITEL  = PAW_PBE Mg_pv 13Apr2007                                             
   LULTRA =        F    use ultrasoft PP ?                                      
   IUNSCR =        1    unscreen: 0-lin 1-nonlin 2-no                           
   RPACOR =    1.500    partial core radius                                     
   POMASS =   24.305; ZVAL   =    8.000    mass and valenz                      
   RCORE  =    2.000    outmost cutoff radius                                   
   RWIGS  =    2.000; RWIGS  =    1.058    wigner-seitz radius (au A)           
   ENMAX  =  403.929; ENMIN  =  302.947 eV                                      
   RCLOC  =    1.506    cutoff for local pot                                    
   LCOR   =        T    correct aug charges                                     
   LPAW   =        T    paw PP                                                  
   EAUG   =  758.780                                                            
   DEXC   =    0.000                                                            
   RMAX   =    2.045    core radius for proj-oper                               
   RAUG   =    1.300    factor for augmentation sphere                          
   RDEP   =    2.025    radius for radial grids                                 
   RDEPT  =    1.557    core radius for aug-charge                              
                                                                                
   Atomic configuration                                                         
    5 entries                                                                   
     n  l   j            E        occ.                                          
     1  0  0.50     -1259.6230   2.0000                                         
     2  0  0.50       -79.8442   2.0000                                         
     2  1  1.50       -46.6121   6.0000                                         
     3  0  0.50        -4.7055   2.0000                                         
     3  2  1.50        -1.3606   0.0000                                         
   Description                                                                  
     l       E           TYP  RCUT    TYP  RCUT                                 
     1    -46.6121073     23  1.600                                             
     1      2.7211652     23  1.600                                             
     0     -4.7054661     23  2.000                                             
     0     61.2262170     23  2.000                                             
     2     -1.3605826     23  2.000                                             
  local pseudopotential read in
  partial core-charges read in
  partial kinetic energy density read in
  atomic valenz-charges read in
  non local Contribution for L=           1  read in
    real space projection operators read in
  non local Contribution for L=           1  read in
    real space projection operators read in
  non local Contribution for L=           0  read in
    real space projection operators read in
  non local Contribution for L=           0  read in
    real space projection operators read in
  non local Contribution for L=           2  read in
    real space projection operators read in
    PAW grid and wavefunctions read in
 
   number of l-projection  operators is LMAX  =           5
   number of lm-projection operators is LMMAX =          13
 
 POTCAR:    PAW_PBE Mn_pv 02Aug2007               
   VRHFIN =Mn: 3p4s3d                                                           
   LEXCH  = PE                                                                  
   EATOM  =  2025.2664 eV,  148.8529 Ry                                         
                                                                                
   TITEL  = PAW_PBE Mn_pv 02Aug2007                                             
   LULTRA =        F    use ultrasoft PP ?                                      
   IUNSCR =        1    unscreen: 0-lin 1-nonlin 2-no                           
   RPACOR =    2.080    partial core radius                                     
   POMASS =   54.938; ZVAL   =   13.000    mass and valenz                      
   RCORE  =    2.300    outmost cutoff radius                                   
   RWIGS  =    2.500; RWIGS  =    1.323    wigner-seitz radius (au A)           
   ENMAX  =  269.864; ENMIN  =  202.398 eV                                      
   ICORE  =        3    local potential                                         
   LCOR   =        T    correct aug charges                                     
   LPAW   =        T    paw PP                                                  
   EAUG   =  569.085                                                            
   DEXC   =    0.000                                                            
   RMAX   =    2.343    core radius for proj-oper                               
   RAUG   =    1.300    factor for augmentation sphere                          
   RDEP   =    2.338    radius for radial grids                                 
   RDEPT  =    1.798    core radius for aug-charge                              
                                                                                
   Atomic configuration                                                         
    8 entries                                                                   
     n  l   j            E        occ.                                          
     1  0  0.50     -6424.8287   2.0000                                         
     2  0  0.50      -739.1154   2.0000                                         
     2  1  1.50      -625.3949   6.0000                                         
     3  0  0.50       -81.6100   2.0000                                         
     3  1  1.50       -50.4667   6.0000                                         
     3  2  2.50        -3.3745   6.0000                                         
     4  0  0.50        -4.1331   1.0000                                         
     4  3  2.50        -1.3606   0.0000                                         
   Description                                                                  
     l       E           TYP  RCUT    TYP  RCUT                                 
     1    -50.4666628     23  2.000                                             
     1     -1.3605826     23  2.000                                             
     2     -3.3744729     23  2.300                                             
     2     -4.7350555     23  2.300                                             
     0     -4.1331431     23  2.300                                             
     0      7.6656591     23  2.300                                             
     3      9.5240782     23  2.300                                             
  local pseudopotential read in
  partial core-charges read in
  partial kinetic energy density read in
  atomic valenz-charges read in
  non local Contribution for L=           1  read in
    real space projection operators read in
  non local Contribution for L=           1  read in
    real space projection operators read in
  non local Contribution for L=           2  read in
    real space projection operators read in
  non local Contribution for L=           2  read in
    real space projection operators read in
  non local Contribution for L=           0  read in
    real space projection operators read in
  non local Contribution for L=           0  read in
    real space projection operators read in
    PAW grid and wavefunctions read in
 
   number of l-projection  operators is LMAX  =           6
   number of lm-projection operators is LMMAX =          18
 
 POTCAR:    PAW_PBE O 08Apr2002                   
   VRHFIN =O: s2p4                                                              
   LEXCH  = PE                                                                  
   EATOM  =   432.3788 eV,   31.7789 Ry                                         
                                                                                
   TITEL  = PAW_PBE O 08Apr2002                                                 
   LULTRA =        F    use ultrasoft PP ?                                      
   IUNSCR =        1    unscreen: 0-lin 1-nonlin 2-no                           
   RPACOR =    1.200    partial core radius                                     
   POMASS =   16.000; ZVAL   =    6.000    mass and valenz                      
   RCORE  =    1.520    outmost cutoff radius                                   
   RWIGS  =    1.550; RWIGS  =    0.820    wigner-seitz radius (au A)           
   ENMAX  =  400.000; ENMIN  =  300.000 eV                                      
   ICORE  =        2    local potential                                         
   LCOR   =        T    correct aug charges                                     
   LPAW   =        T    paw PP                                                  
   EAUG   =  605.392                                                            
   DEXC   =    0.000                                                            
   RMAX   =    1.553    core radius for proj-oper                               
   RAUG   =    1.300    factor for augmentation sphere                          
   RDEP   =    1.550    radius for radial grids                                 
   RDEPT  =    1.329    core radius for aug-charge                              
                                                                                
   Atomic configuration                                                         
    4 entries                                                                   
     n  l   j            E        occ.                                          
     1  0  0.50      -514.6923   2.0000                                         
     2  0  0.50       -23.9615   2.0000                                         
     2  1  0.50        -9.0305   4.0000                                         
     3  2  1.50        -9.5241   0.0000                                         
   Description                                                                  
     l       E           TYP  RCUT    TYP  RCUT                                 
     0    -23.9615318     23  1.200                                             
     0     -9.5240782     23  1.200                                             
     1     -9.0304911     23  1.520                                             
     1      8.1634956     23  1.520                                             
     2     -9.5240782      7  1.500                                             
  local pseudopotential read in
  partial core-charges read in
  partial kinetic energy density read in
  kinetic energy density of atom read in
  atomic valenz-charges read in
  non local Contribution for L=           0  read in
    real space projection operators read in
  non local Contribution for L=           0  read in
    real space projection operators read in
  non local Contribution for L=           1  read in
    real space projection operators read in
  non local Contribution for L=           1  read in
    real space projection operators read in
    PAW grid and wavefunctions read in
 
   number of l-projection  operators is LMAX  =           4
   number of lm-projection operators is LMMAX =           8
 
 Optimization of the real space projectors (new method)

 maximal supplied QI-value         = 17.01
 optimisation between [QCUT,QGAM] = [ 10.20, 20.41] = [ 29.16,116.64] Ry 
 Optimized for a Real-space Cutoff    1.30 Angstroem

   l    n(q)    QCUT    max X(q) W(low)/X(q) W(high)/X(q)  e(spline) 
   1      7    10.205     4.940    0.23E-03    0.84E-03    0.11E-06
   1      7    10.205     6.253    0.40E-03    0.13E-02    0.18E-06
   0      8    10.205    37.438    0.23E-03    0.37E-03    0.42E-07
   0      8    10.205     9.606    0.16E-03    0.26E-03    0.31E-07
 Optimization of the real space projectors (new method)

 maximal supplied QI-value         = 18.90
 optimisation between [QCUT,QGAM] = [ 10.20, 20.41] = [ 29.16,116.64] Ry 
 Optimized for a Real-space Cutoff    1.26 Angstroem

   l    n(q)    QCUT    max X(q) W(low)/X(q) W(high)/X(q)  e(spline) 
   1      7    10.205     2.974    0.63E-04    0.14E-03    0.13E-06
   1      7    10.205     4.279    0.11E-03    0.45E-03    0.24E-06
   0      8    10.205    16.381    0.44E-03    0.15E-03    0.55E-07
   0      8    10.205     5.611    0.31E-03    0.11E-03    0.40E-07
   2      7    10.205     4.652    0.50E-03    0.47E-03    0.57E-07
 Optimization of the real space projectors (new method)

 maximal supplied QI-value         = 16.25
 optimisation between [QCUT,QGAM] = [ 10.24, 20.48] = [ 29.35,117.42] Ry 
 Optimized for a Real-space Cutoff    1.34 Angstroem

   l    n(q)    QCUT    max X(q) W(low)/X(q) W(high)/X(q)  e(spline) 
   1      8    10.239     3.658    0.23E-03    0.30E-03    0.98E-07
   1      8    10.239     5.612    0.32E-03    0.65E-03    0.21E-06
   2      7    10.239    55.373    0.42E-03    0.45E-03    0.65E-07
   2      7    10.239    50.863    0.43E-03    0.48E-03    0.67E-07
   0      8    10.239    79.536    0.11E-03    0.21E-03    0.56E-07
   0      8    10.239    38.668    0.96E-04    0.19E-03    0.52E-07
 Optimization of the real space projectors (new method)

 maximal supplied QI-value         = 24.76
 optimisation between [QCUT,QGAM] = [ 10.15, 20.30] = [ 28.85,115.39] Ry 
 Optimized for a Real-space Cutoff    1.38 Angstroem

   l    n(q)    QCUT    max X(q) W(low)/X(q) W(high)/X(q)  e(spline) 
   0      8    10.150    20.381    0.22E-03    0.32E-03    0.29E-06
   0      8    10.150    15.268    0.23E-03    0.35E-03    0.30E-06
   1      8    10.150     5.964    0.46E-03    0.53E-03    0.21E-06
   1      8    10.150     5.382    0.38E-03    0.45E-03    0.19E-06
  PAW_PBE Na_pv 19Sep2006               :
 energy of atom  1       EATOM= -766.0439
 kinetic energy error for atom=    0.0103 (will be added to EATOM!!)
  PAW_PBE Mg_pv 13Apr2007               :
 energy of atom  2       EATOM=-1056.7344
 kinetic energy error for atom=    0.0820 (will be added to EATOM!!)
  PAW_PBE Mn_pv 02Aug2007               :
 energy of atom  3       EATOM=-2025.2664
 kinetic energy error for atom=    0.0284 (will be added to EATOM!!)
  PAW_PBE O 08Apr2002                   :
 energy of atom  4       EATOM= -432.3788
 kinetic energy error for atom=    0.1156 (will be added to EATOM!!)
 
 
 POSCAR: Na Mg Mn  O                             
  positions in cartesian coordinates
  No initial velocities read in

 METAGGA = SCAN     LMAXTAU =  6    LMIXTAU =  F

 exchange correlation table for  LEXCH =        8
   RHO(1)=    0.500       N(1)  =     2000
   RHO(2)=  100.500       N(2)  =     4000

 VTST: version 3.2, (02/03/18)

 CHAIN: initializing optimizer
 
 OPT: Using VASP Dynamics algorithm
 CHAIN: Read ICHAIN            0
 
 POSCAR: Na Mg Mn  O                             
  positions in cartesian coordinates
  No initial velocities read in
 


--------------------------------------------------------------------------------------------------------


 ion  position               nearest neighbor table
   1  0.662  0.615  0.245-  65 2.30  43 2.34  33 2.80
   2  0.460  0.108  0.742-  44 2.16  81 2.19
   3  0.407  0.567  0.749-  80 2.13  83 2.23  45 2.35  32 2.87
   4  0.852  0.794  0.752-  72 2.12  71 2.31
   5  0.642  0.093  0.250-  79 2.20  88 2.32  51 2.36  29 2.83  31 2.86
   6  0.963  0.955  0.239-  63 2.30  54 2.36
   7  0.654  0.439  0.754-  49 2.25  48 2.35
   8  0.672  0.964  0.751-  59 2.33
   9  0.931  0.453  0.248-  62 2.19  66 2.32  75 2.33  53 2.35
  10  0.151  0.284  0.256-  63 2.32
  11  0.388  0.653  0.258-  78 2.20  87 2.28
  12  0.136  0.647  0.752-  73 2.19  70 2.21  37 2.82  39 2.88
  13  0.930  0.307  0.742-  57 2.30  60 2.30  56 2.33
  14  0.149  0.150  0.740-  58 2.22  69 2.29  61 2.37  27 2.68  25 2.86
  15  0.375  0.171  0.259-  51 2.29  50 2.35
  16  0.150  0.776  0.253-  75 2.31  66 2.35
  17  0.802  0.453  0.001-  43 1.96  60 1.97  71 2.00  66 2.10  49 2.11  53 2.14  26 2.83
  18  0.491  0.291  0.498-  50 1.98  44 2.00  51 2.03  45 2.09  52 2.13  46 2.18  27 2.77
  19  0.304  0.454  0.989-  61 1.98  83 2.00  78 2.14  55 2.14  48 2.15  41 2.16
  20  0.008  0.295  0.488-  62 1.97  58 2.03  56 2.06  63 2.10  64 2.10  57 2.14  32 2.83  31 2.86

  21  0.305  0.948  0.995-  77 2.01  67 2.05  84 2.05  73 2.06  47 2.10  42 2.11  38 2.83
  22  0.007  0.800  0.512-  70 1.98  69 2.01  68 2.05  74 2.07  75 2.14  76 2.17
  23  0.810  0.958  0.012-  54 1.99  59 2.03  65 2.03  79 2.06  72 2.20  85 2.22  30 2.85
  24  0.505  0.809  0.503-  86 2.02  81 2.04  88 2.05  87 2.07  80 2.11  82 2.14  36 2.77  31 2.83

  25  0.142  0.119  0.993-  47 1.90  61 1.93  41 1.95  54 1.96  67 2.00  72 2.05  14 2.86  34 2.87
                            26 2.89  30 2.92
  26  0.476  0.284  0.994-  42 1.88  48 1.90  43 1.92  47 1.93  41 2.00  49 2.03  17 2.83  29 2.87
                            33 2.89  25 2.89
  27  0.172  0.130  0.503-  69 1.87  63 1.89  44 1.91  50 1.94  76 2.02  58 2.03  14 2.68  18 2.77
                            40 2.87  36 2.90  32 2.95
  28  0.837  0.462  0.503-  68 1.85  46 1.87  52 1.88  57 1.89  62 1.93  75 1.96  31 2.84  35 2.88
                            39 2.91
  29  0.644  0.121  0.999-  59 1.84  42 1.87  84 1.92  49 1.92  53 1.94  79 1.94   5 2.83  30 2.87
                            26 2.87  38 2.90
  30  0.974  0.287  0.005-  53 1.83  54 1.88  61 1.89  60 1.92  59 1.98  55 2.01  23 2.85  37 2.86
                            29 2.87  25 2.92
  31  0.679  0.135  0.502-  46 1.83  56 1.95  62 1.98  88 2.01  51 2.01  81 2.04  24 2.83  28 2.84
                            20 2.86   5 2.86  40 2.90  36 2.98
  32  0.333  0.469  0.506-  58 1.84  80 1.87  64 1.89  87 1.91  50 1.95  45 2.00  39 2.82  20 2.83
                             3 2.87  35 2.92  27 2.95
  33  0.633  0.617  0.997-  78 1.84  43 1.86  65 1.94  48 1.94  71 1.96  85 1.98   1 2.80  26 2.89
                            38 2.89  34 2.94
  34  0.972  0.788  0.997-  73 1.89  72 1.89  71 1.91  65 1.92  67 1.98  66 1.99  25 2.87  37 2.88
                            33 2.94
  35  0.668  0.625  0.512-  52 1.86  87 1.91  45 1.92  82 1.94  68 1.95  74 1.99  28 2.88  32 2.92
                            40 2.94
  36  0.336  0.960  0.502-  70 1.91  76 1.92  44 1.93  86 1.94  51 1.96  81 1.98  24 2.77  39 2.83
                            27 2.90  31 2.98
  37  0.132  0.617  0.002-  66 1.88  77 1.88  73 1.90  55 1.90  60 1.93  83 2.04  12 2.82  30 2.86
                            34 2.88  38 2.95
  38  0.471  0.788  0.994-  85 1.87  77 1.88  83 1.89  79 1.93  84 1.97  78 2.04  21 2.83  33 2.89
                            29 2.90  37 2.95
  39  0.173  0.634  0.498-  75 1.85  57 1.88  80 1.89  70 1.91  86 1.93  64 1.96  32 2.82  36 2.83
                            12 2.88  28 2.91
  40  0.842  0.964  0.499-  88 1.88  74 1.90  63 1.90  69 1.92  56 1.92  82 1.99  27 2.87  31 2.90
                            35 2.94
  41  0.305  0.274  0.094-  25 1.95  26 2.00  19 2.16
  42  0.490  0.134  0.084-  29 1.87  26 1.88  21 2.11
  43  0.630  0.456  0.082-  33 1.86  26 1.92  17 1.96   1 2.34
  44  0.328  0.119  0.594-  27 1.91  36 1.93  18 2.00   2 2.16
  45  0.500  0.468  0.602-  35 1.92  32 2.00  18 2.09   3 2.35
  46  0.685  0.293  0.588-  31 1.83  28 1.87  18 2.18
  47  0.306  0.130  0.902-  25 1.90  26 1.93  21 2.10
  48  0.488  0.447  0.898-  26 1.90  33 1.94  19 2.15   7 2.35
  49  0.638  0.271  0.895-  29 1.92  26 2.03  17 2.11   7 2.25
  50  0.325  0.302  0.411-  27 1.94  32 1.95  18 1.98  15 2.35
  51  0.502  0.122  0.407-  36 1.96  31 2.01  18 2.03  15 2.29   5 2.36
  52  0.686  0.481  0.419-  35 1.86  28 1.88  18 2.13
  53  0.814  0.273  0.093-  30 1.83  29 1.94  17 2.14   9 2.35
  54  0.989  0.134  0.092-  30 1.88  25 1.96  23 1.99   6 2.36
  55  0.136  0.464  0.101-  37 1.90  30 2.01  19 2.14
  56  0.840  0.124  0.592-  40 1.92  31 1.95  20 2.06  13 2.33
  57  0.008  0.479  0.587-  39 1.88  28 1.89  20 2.14  13 2.30
  58  0.180  0.310  0.593-  32 1.84  20 2.03  27 2.03  14 2.22
  59  0.800  0.122  0.913-  29 1.84  30 1.98  23 2.03   8 2.33
  60  0.970  0.448  0.914-  30 1.92  37 1.93  17 1.97  13 2.30
  61  0.126  0.279  0.910-  30 1.89  25 1.93  19 1.98  14 2.37
  62  0.839  0.305  0.405-  28 1.93  20 1.97  31 1.98   9 2.19
  63  0.010  0.109  0.405-  27 1.89  40 1.90  20 2.10   6 2.30  10 2.32
  64  0.192  0.482  0.401-  32 1.89  39 1.96  20 2.10
  65  0.804  0.772  0.090-  34 1.92  33 1.94  23 2.03   1 2.30
  66  0.984  0.631  0.096-  37 1.88  34 1.99  17 2.10   9 2.32  16 2.35
  67  0.137  0.952  0.096-  34 1.98  25 2.00  21 2.05
  68  0.831  0.612  0.596-  28 1.85  35 1.95  22 2.05
  69  0.008  0.979  0.593-  27 1.87  40 1.92  22 2.01  14 2.29
  70  0.179  0.795  0.594-  36 1.91  39 1.91  22 1.98  12 2.21
  71  0.807  0.627  0.909-  34 1.91  33 1.96  17 2.00   4 2.31
  72  0.977  0.941  0.895-  34 1.89  25 2.05   4 2.12  23 2.20
  73  0.121  0.769  0.908-  34 1.89  37 1.90  21 2.06  12 2.19
  74  0.829  0.794  0.414-  40 1.90  35 1.99  22 2.07
  75  0.010  0.620  0.410-  39 1.85  28 1.96  22 2.14  16 2.31   9 2.33
  76  0.188  0.973  0.401-  36 1.92  27 2.02  22 2.17
  77  0.305  0.772  0.083-  37 1.88  38 1.88  21 2.01
  78  0.489  0.626  0.092-  33 1.84  38 2.04  19 2.14  11 2.20
  79  0.621  0.950  0.095-  38 1.93  29 1.94  23 2.06   5 2.20
  80  0.322  0.622  0.593-  32 1.87  39 1.89  24 2.11   3 2.13
  81  0.504  0.977  0.606-  36 1.98  31 2.04  24 2.04   2 2.19
  82  0.683  0.799  0.601-  35 1.94  40 1.99  24 2.14
  83  0.310  0.632  0.903-  38 1.89  19 2.00  37 2.04   3 2.23
  84  0.488  0.962  0.902-  29 1.92  38 1.97  21 2.05
  85  0.622  0.778  0.902-  38 1.87  33 1.98  23 2.22
  86  0.331  0.798  0.405-  39 1.93  36 1.94  24 2.02
  87  0.507  0.625  0.421-  32 1.91  35 1.91  24 2.07  11 2.28
  88  0.688  0.971  0.407-  40 1.88  31 2.01  24 2.05   5 2.32
 
  LATTYP: Found a hexagonal cell.
 ALAT       =    10.0190000534
 C/A-ratio  =     1.1196726572
  
  Lattice vectors:
  
 A1 = (  10.0190000534,   0.0000000000,   0.0000000000)
 A2 = (  -5.0095000267,   8.6767085668,   0.0000000000)
 A3 = (   0.0000000000,   0.0000000000,  11.2180004120)


Analysis of symmetry for initial positions (statically):
=====================================================================
 Subroutine PRICEL returns:
 Original cell was already a primitive cell.
 

 Routine SETGRP: Setting up the symmetry group for a 
 hexagonal supercell.


 Subroutine GETGRP returns: Found  1 space group operations
 (whereof  1 operations were pure point group operations)
 out of a pool of 24 trial point group operations.


The static configuration has the point symmetry C_1 .


Analysis of symmetry for dynamics (positions and initial velocities):
=====================================================================
 Subroutine PRICEL returns:
 Original cell was already a primitive cell.
 

 Routine SETGRP: Setting up the symmetry group for a 
 hexagonal supercell.


 Subroutine GETGRP returns: Found  1 space group operations
 (whereof  1 operations were pure point group operations)
 out of a pool of 24 trial point group operations.


The dynamic configuration has the point symmetry C_1 .


Analysis of structural, dynamic, and magnetic symmetry:
=====================================================================
 Subroutine PRICEL returns:
 Original cell was already a primitive cell.
 

 Routine SETGRP: Setting up the symmetry group for a 
 hexagonal supercell.


 Subroutine GETGRP returns: Found  1 space group operations
 (whereof  1 operations were pure point group operations)
 out of a pool of 24 trial point group operations.


The magnetic configuration has the point symmetry C_1 .


 Subroutine INISYM returns: Found  1 space group operations
 (whereof  1 operations are pure point group operations),
 and found     1 'primitive' translations

 
 

Automatic generation of k-mesh.
 generate k-points for:    2    2    2
Space group operators:
 irot       det(A)        alpha          n_x          n_y          n_z        tau_x        tau_y        tau_z
    1     1.000000     0.000000     1.000000     0.000000     0.000000     0.000000     0.000000     0.000000
 
 Subroutine IBZKPT returns following result:
 ===========================================
 
 Found      8 irreducible k-points:
 
 Following reciprocal coordinates:
            Coordinates               Weight
  0.000000  0.000000  0.000000      1.000000
  0.500000 -0.000000 -0.000000      1.000000
  0.000000  0.500000  0.000000      1.000000
  0.500000  0.500000 -0.000000      1.000000
  0.000000  0.000000  0.500000      1.000000
  0.500000 -0.000000  0.500000      1.000000
  0.000000  0.500000  0.500000      1.000000
  0.500000  0.500000  0.500000      1.000000
 
 Following cartesian coordinates:
            Coordinates               Weight
  0.000000  0.000000  0.000000      1.000000
  0.049905  0.028813 -0.000000      1.000000
  0.000000  0.057626  0.000000      1.000000
  0.049905  0.086438 -0.000000      1.000000
  0.000000  0.000000  0.044571      1.000000
  0.049905  0.028813  0.044571      1.000000
  0.000000  0.057626  0.044571      1.000000
  0.049905  0.086438  0.044571      1.000000
 


--------------------------------------------------------------------------------------------------------




 Dimension of arrays:
   k-points           NKPTS =      8   k-points in BZ     NKDIM =      8   number of bands    NBANDS=    480
   number of dos      NEDOS =    301   number of ions     NIONS =     88
   non local maximal  LDIM  =      6   non local SUM 2l+1 LMDIM =     18
   total plane-waves  NPLWV = 140000
   max r-space proj   IRMAX =   1632   max aug-charges    IRDMAX=   4555
   dimension x,y,z NGX =    50 NGY =   50 NGZ =   56
   dimension x,y,z NGXF=   100 NGYF=  100 NGZF=  112
   support grid    NGXF=   100 NGYF=  100 NGZF=  112
   ions per type =              16   8  16  48
   NGX,Y,Z   is equivalent  to a cutoff of   8.30,  8.30,  8.30 a.u.
   NGXF,Y,Z  is equivalent  to a cutoff of  16.59, 16.59, 16.60 a.u.

 SYSTEM =  unknown system                          
 POSCAR =  Na Mg Mn  O                             

 Startparameter for this run:
   NWRITE =      2    write-flag & timer
   PREC   = normal    normal or accurate (medium, high low for compatibility)
   ISTART =      0    job   : 0-new  1-cont  2-samecut
   ICHARG =      1    charge: 1-file 2-atom 10-const
   ISPIN  =      2    spin polarized calculation?
   LNONCOLLINEAR =      F non collinear calculations
   LSORBIT =      F    spin-orbit coupling
   INIWAV =      1    electr: 0-lowe 1-rand  2-diag
   LASPH  =      T    aspherical Exc in radial PAW
   METAGGA=      F    non-selfconsistent MetaGGA calc.

 Electronic Relaxation 1
   ENCUT  =  400.0 eV  29.40 Ry    5.42 a.u.  16.34 16.34 18.29*2*pi/ulx,y,z
   ENINI  =  400.0     initial cutoff
   ENAUG  =  758.8 eV  augmentation charge cutoff
   NELM   =    200;   NELMIN=  6; NELMDL=-12     # of ELM steps 
   EDIFF  = 0.1E-04   stopping-criterion for ELM
   LREAL  =      T    real-space projection
   NLSPLINE    = F    spline interpolate recip. space projectors
   LCOMPAT=      F    compatible to vasp.4.4
   GGA_COMPAT  = T    GGA compatible to vasp.4.4-vasp.4.6
   LMAXPAW     = -100 max onsite density
   LMAXMIX     =    4 max onsite mixed and CHGCAR
   VOSKOWN=      0    Vosko Wilk Nusair interpolation
   ROPT   =   -0.00050  -0.00050  -0.00050  -0.00050
 Ionic relaxation
   EDIFFG = 0.1E-03   stopping-criterion for IOM
   NSW    =      1    number of steps for IOM
   NBLOCK =      1;   KBLOCK =      1    inner block; outer block 
   IBRION =     -1    ionic relax: 0-MD 1-quasi-New 2-CG
   NFREE  =      0    steps in history (QN), initial steepest desc. (CG)
   ISIF   =      2    stress and relaxation
   IWAVPR =     10    prediction:  0-non 1-charg 2-wave 3-comb
   ISYM   =      2    0-nonsym 1-usesym 2-fastsym
   LCORR  =      T    Harris-Foulkes like correction to forces

   POTIM  = 0.5000    time-step for ionic-motion
   TEIN   =    0.0    initial temperature
   TEBEG  =    0.0;   TEEND  =   0.0 temperature during run
   SMASS  =  -3.00    Nose mass-parameter (am)
   estimated Nose-frequenzy (Omega)   =  0.10E-29 period in steps =****** mass=  -0.229E-26a.u.
   SCALEE = 1.0000    scale energy and forces
   NPACO  =    256;   APACO  = 16.0  distance and # of slots for P.C.
   PSTRESS=    0.0 pullay stress

  Mass of Ions in am
   POMASS =  22.99 24.30 54.94 16.00
  Ionic Valenz
   ZVAL   =   7.00  8.00 13.00  6.00
  Atomic Wigner-Seitz radii
   RWIGS  =  -1.00 -1.00 -1.00 -1.00
  virtual crystal weights 
   VCA    =   1.00  1.00  1.00  1.00
   NELECT =     672.0000    total number of electrons
   NUPDOWN=      48.0000    fix difference up-down

 DOS related values:
   EMIN   =  10.00;   EMAX   =-10.00  energy-range for DOS
   EFERMI =   0.00
   ISMEAR =     0;   SIGMA  =   0.05  broadening in eV -4-tet -1-fermi 0-gaus

 Electronic relaxation 2 (details)
   IALGO  =     48    algorithm
   LDIAG  =      T    sub-space diagonalisation (order eigenvalues)
   LSUBROT=      F    optimize rotation matrix (better conditioning)
   TURBO    =      0    0=normal 1=particle mesh
   IRESTART =      0    0=no restart 2=restart with 2 vectors
   NREBOOT  =      0    no. of reboots
   NMIN     =      0    reboot dimension
   EREF     =   0.00    reference energy to select bands
   IMIX   =      4    mixing-type and parameters
     AMIX     =   0.40;   BMIX     =  1.00
     AMIX_MAG =   1.60;   BMIX_MAG =  1.00
     AMIN     =   0.10
     WC   =   100.;   INIMIX=   1;  MIXPRE=   1;  MAXMIX= -45

 Intra band minimization:
   WEIMIN = 0.0000     energy-eigenvalue tresh-hold
   EBREAK =  0.52E-08  absolut break condition
   DEPER  =   0.30     relativ break condition  

   TIME   =   0.40     timestep for ELM

  volume/ion in A,a.u.               =      11.08        74.78
  Fermi-wavevector in a.u.,A,eV,Ry     =   1.445993  2.732531 28.448379  2.090897
  Thomas-Fermi vector in A             =   2.564112
 
 Write flags
   LWAVE        =      F    write WAVECAR
   LDOWNSAMPLE  =      F    k-point downsampling of WAVECAR
   LCHARG       =      F    write CHGCAR
   LVTOT        =      F    write LOCPOT, total local potential
   LVHAR        =      F    write LOCPOT, Hartree potential only
   LELF         =      F    write electronic localiz. function (ELF)
   LORBIT       =     11    0 simple, 1 ext, 2 COOP (PROOUT), +10 PAW based schemes


 Dipole corrections
   LMONO  =      F    monopole corrections only (constant potential shift)
   LDIPOL =      F    correct potential (dipole corrections)
   IDIPOL =      0    1-x, 2-y, 3-z, 4-all directions 
   EPSILON=  1.0000000 bulk dielectric constant

 Exchange correlation treatment:
   GGA     =    --    GGA type
   LEXCH   =     8    internal setting for exchange type
   VOSKOWN=      0    Vosko Wilk Nusair interpolation
   LHFCALC =     F    Hartree Fock is set to
   LHFONE  =     F    Hartree Fock one center treatment
   AEXX    =    0.0000 exact exchange contribution

 Linear response parameters
   LEPSILON=     F    determine dielectric tensor
   LRPA    =     F    only Hartree local field effects (RPA)
   LNABLA  =     F    use nabla operator in PAW spheres
   LVEL    =     F    velocity operator in full k-point grid
   LINTERFAST=   F  fast interpolation
   KINTER  =     0    interpolate to denser k-point grid
   CSHIFT  =0.1000    complex shift for real part using Kramers Kronig
   OMEGAMAX=  -1.0    maximum frequency
   DEG_THRESHOLD= 0.2000000E-02 threshold for treating states as degnerate
   RTIME   =   -0.100 relaxation time in fs
  (WPLASMAI=    0.000 imaginary part of plasma frequency in eV, 0.658/RTIME)
   DFIELD  = 0.0000000 0.0000000 0.0000000 field for delta impulse in time
 
 Orbital magnetization related:
   ORBITALMAG=     F  switch on orbital magnetization
   LCHIMAG   =     F  perturbation theory with respect to B field
   DQ        =  0.001000  dq finite difference perturbation B field
   LLRAUG    =     F  two centre corrections for induced B field



--------------------------------------------------------------------------------------------------------


 Static calculation
 charge density and potential will be updated during run
 spin polarized calculation
 RMM-DIIS sequential band-by-band
 perform sub-space diagonalisation
    before iterative eigenvector-optimisation
 modified Broyden-mixing scheme, WC =      100.0
 initial mixing is a Kerker type mixing with AMIX =  0.4000 and BMIX =      1.0000
 Hartree-type preconditioning will be used
 using additional bands          144
 real space projection scheme for non local part
 use partial core corrections
 calculate Harris-corrections to forces 
   (improved forces if not selfconsistent)
 use gradient corrections 
 use of overlap-Matrix (Vanderbilt PP)
 Gauss-broadening in eV      SIGMA  =   0.05


--------------------------------------------------------------------------------------------------------


  energy-cutoff  :      400.00
  volume of cell :      975.20
      direct lattice vectors                 reciprocal lattice vectors
    10.019000053  0.000000000  0.000000000     0.099810360  0.057625538 -0.000000000
    -5.009500027  8.676708567  0.000000000     0.000000000  0.115251076  0.000000000
     0.000000000  0.000000000 11.218000412     0.000000000  0.000000000  0.089142446

  length of vectors
    10.019000053 10.019000053 11.218000412     0.115251076  0.115251076  0.089142446


 
 k-points in units of 2pi/SCALE and weight: read from INCAR                         
   0.00000000  0.00000000  0.00000000       0.125
   0.04990518  0.02881277 -0.00000000       0.125
   0.00000000  0.05762554  0.00000000       0.125
   0.04990518  0.08643831 -0.00000000       0.125
   0.00000000  0.00000000  0.04457122       0.125
   0.04990518  0.02881277  0.04457122       0.125
   0.00000000  0.05762554  0.04457122       0.125
   0.04990518  0.08643831  0.04457122       0.125
 
 k-points in reciprocal lattice and weights: read from INCAR                         
   0.00000000  0.00000000  0.00000000       0.125
   0.50000000 -0.00000000 -0.00000000       0.125
   0.00000000  0.50000000  0.00000000       0.125
   0.50000000  0.50000000 -0.00000000       0.125
   0.00000000  0.00000000  0.50000000       0.125
   0.50000000 -0.00000000  0.50000000       0.125
   0.00000000  0.50000000  0.50000000       0.125
   0.50000000  0.50000000  0.50000000       0.125
 
 position of ions in fractional coordinates (direct lattice) 
   0.66225661  0.61466198  0.24506417
   0.46019405  0.10757239  0.74172934
   0.40698580  0.56728028  0.74934299
   0.85166654  0.79394952  0.75188355
   0.64204452  0.09347719  0.24981279
   0.96263923  0.95536128  0.23936084
   0.65432684  0.43866667  0.75390174
   0.67218012  0.96447402  0.75100550
   0.93088470  0.45282641  0.24779461
   0.15137632  0.28439751  0.25627473
   0.38777574  0.65263902  0.25820734
   0.13637631  0.64650849  0.75176143
   0.93019136  0.30745332  0.74249150
   0.14931181  0.15038520  0.74011942
   0.37506361  0.17112134  0.25908806
   0.14995161  0.77629008  0.25290247
   0.80161745  0.45310615  0.00084921
   0.49071212  0.29077847  0.49806202
   0.30352759  0.45437967  0.98887499
   0.00767829  0.29519489  0.48829380
   0.30530600  0.94758974  0.99534362
   0.00674163  0.79996694  0.51190496
   0.80987993  0.95849825  0.01231271
   0.50491177  0.80943827  0.50335798
   0.14231223  0.11893928  0.99334459
   0.47552516  0.28403167  0.99371627
   0.17201803  0.12976119  0.50347030
   0.83689658  0.46195167  0.50336333
   0.64370045  0.12142985  0.99882303
   0.97404669  0.28689566  0.00462646
   0.67909124  0.13514226  0.50220269
   0.33258018  0.46929431  0.50596450
   0.63343903  0.61665549  0.99682303
   0.97173777  0.78841417  0.99694470
   0.66816284  0.62489940  0.51221428
   0.33589144  0.95957009  0.50243803
   0.13187233  0.61677190  0.00208231
   0.47123092  0.78760626  0.99410576
   0.17262594  0.63401922  0.49826884
   0.84161403  0.96383092  0.49889907
   0.30508650  0.27406360  0.09394812
   0.48987992  0.13364745  0.08417516
   0.63000804  0.45587794  0.08186637
   0.32786634  0.11862118  0.59423246
   0.50016000  0.46807726  0.60224904
   0.68492874  0.29343270  0.58782490
   0.30636796  0.12965977  0.90162236
   0.48817611  0.44679039  0.89782489
   0.63825478  0.27095413  0.89470491
   0.32529615  0.30243381  0.41109020
   0.50233518  0.12194733  0.40729273
   0.68561533  0.48105799  0.41875556
   0.81434178  0.27298139  0.09329024
   0.98889391  0.13439428  0.09169459
   0.13575137  0.46401697  0.10053931
   0.83955264  0.12372450  0.59157691
   0.00838077  0.47869189  0.58652521
   0.17993540  0.31041955  0.59267782
   0.80033796  0.12242661  0.91279191
   0.96964748  0.44776887  0.91397750
   0.12602576  0.27907818  0.90974324
   0.83940045  0.30528858  0.40495363
   0.00981476  0.10880410  0.40453377
   0.19173166  0.48199153  0.40097075
   0.80378778  0.77238044  0.08974238
   0.98424520  0.63088785  0.09641647
   0.13658680  0.95216751  0.09556159
   0.83129816  0.61163516  0.59597520
   0.00801925  0.97900488  0.59323941
   0.17941303  0.79513907  0.59418076
   0.80677632  0.62695318  0.90877158
   0.97668319  0.94107575  0.89515062
   0.12114813  0.76933090  0.90812084
   0.82860117  0.79383674  0.41398020
   0.00969444  0.62046685  0.41024513
   0.18825049  0.97263034  0.40103404
   0.30452189  0.77217184  0.08254885
   0.48920167  0.62622248  0.09222945
   0.62145098  0.94977490  0.09463362
   0.32218074  0.62245032  0.59341413
   0.50432824  0.97733719  0.60584951
   0.68284564  0.79850095  0.60065072
   0.30970687  0.63178565  0.90285253
   0.48817223  0.96232689  0.90152430
   0.62240752  0.77818564  0.90214830
   0.33132202  0.79818631  0.40451416
   0.50661974  0.62500313  0.42140844
   0.68838223  0.97062612  0.40674718
 
 position of ions in cartesian coordinates  (Angst):
   3.55599987  5.33324283  2.74913000
   4.07180029  0.93337430  8.32072000
   1.23580013  4.92212570  8.40613000
   4.55555703  6.88886857  8.43463000
   5.96437008  0.81107430  2.80240000
   4.85880008  8.28939143  2.68515000
   4.35819995  3.80618287  8.45727000
   1.90304000  8.36846000  8.42478000
   7.05809992  3.92904283  2.77976000
   0.09195005  2.46763427  2.87489000
   0.61572997  5.66275857  2.89657000
  -1.87233000  5.60956573  8.43326000
   7.77939984  2.66768287  8.32927000
   0.74260035  1.30484857  8.30266000
   2.90053000  1.48477000  2.90645000
  -2.38646003  6.73564283  2.83706000
   5.76157000  3.93147000  0.00952643
   3.45979000  2.52300000  5.58726000
   0.76482800  3.94252000 11.09320000
  -1.40185005  2.56132000  5.47768000
  -1.68809000  8.22196000 11.16576511
  -3.93989005  6.94108000  5.74255000
   3.31259000  8.31661000  0.13812400
   1.00383000  7.02326000  5.64667000
   0.82999997  1.03200143 11.14334001
   3.34143000  2.46446000 11.14750951
   1.07341000  1.12590000  5.64793000
   6.07072000  4.00822000  5.64673000
   5.84093203  1.05361143 11.20479711
   8.32177000  2.48931000  0.05189959
   6.12682000  1.17259000  5.63371000
   0.98119100  4.07193000  5.67591000
   3.25729000  5.35054000 11.18236111
   5.78628000  6.84084000 11.18372601
   3.56389000  5.42207000  5.74602000
  -1.44167000  8.32591000  5.63635000
  -1.76849000  5.35155000  0.02335940
   0.77574900  6.83383000 11.15187881
  -1.44658000  5.50120000  5.58958000
   3.60382000  8.36288000  5.59665000
   1.68374000  2.37797000  1.05391000
   4.23860000  1.15962000  0.94427700
   4.02833000  3.95552000  0.91837700
   2.69066003  1.02924143  6.66610000
   2.66627000  4.06137000  6.75603000
   5.39235000  2.54603000  6.59422000
   2.41997000  1.12502000 10.11440000
   2.65284000  3.87667000 10.07180000
   5.03733000  2.35099000 10.03680000
   1.74410000  2.62413000  4.61161000
   4.42200103  1.05810143  4.56901000
   4.45932000  4.17400000  4.69760000
   6.79139000  2.36858000  1.04653000
   9.23448000  1.16610000  1.02863000
  -0.96440005  4.02614000  1.12785000
   7.79168003  1.07352143  6.63631000
  -2.31404005  4.15347000  6.57964000
   0.24772600  2.69342000  6.64866000
   7.40529000  1.06226000 10.23970000
   7.47180000  3.88516000 10.25300000
  -0.13539005  2.42148000 10.20550000
   6.88061000  2.64890000  4.54277000
  -0.44672003  0.94406143  4.53806000
  -0.49357700  4.18210000  4.49809000
   4.18391000  6.70172000  1.00673000
   6.70072000  5.47403000  1.08160000
  -3.40142005  8.26168000  1.07201000
   5.26479000  5.30698000  6.68565000
  -4.82398005  8.49454000  6.65496000
  -2.18571000  6.89919000  6.66552000
   4.94237000  5.43989000 10.19460000
   5.07107000  8.16544000 10.04180000
  -2.64018005  6.67526000 10.18730000
   4.32503000  6.88789000  4.64403000
  -3.01110005  5.38361000  4.60213000
  -2.98631000  8.43923000  4.49880000
  -0.81719000  6.69991000  0.92603300
   1.76425000  5.43355000  1.03463000
   1.46842000  8.24092000  1.06160000
   0.10976400  5.40082000  6.65692000
   0.15689400  8.48007000  6.79642000
   2.84134000  6.92836000  6.73810000
  -0.06197710  5.48182000 10.12820000
   0.07022100  8.34983000 10.11330000
   2.33758000  6.75209000 10.12030000
  -0.67899900  6.92563000  4.53784000
   1.94487000  5.42297000  4.72736000
   2.03455000  8.42184000  4.56289000
 


--------------------------------------------------------------------------------------------------------


 k-point  1 :   0.0000 0.0000 0.0000  plane waves:   17725
 k-point  2 :   0.5000-0.0000-0.0000  plane waves:   17736
 k-point  3 :   0.0000 0.5000 0.0000  plane waves:   17736
 k-point  4 :   0.5000 0.5000-0.0000  plane waves:   17736
 k-point  5 :   0.0000 0.0000 0.5000  plane waves:   17676
 k-point  6 :   0.5000-0.0000 0.5000  plane waves:   17700
 k-point  7 :   0.0000 0.5000 0.5000  plane waves:   17700
 k-point  8 :   0.5000 0.5000 0.5000  plane waves:   17700

 maximum and minimum number of plane-waves per node :     17736    17676

 maximum number of plane-waves:     17736
 maximum index in each direction: 
   IXMAX=   16   IYMAX=   16   IZMAX=   18
   IXMIN=  -16   IYMIN=  -16   IZMIN=  -18


 serial   3D FFT for wavefunctions
 parallel 3D FFT for charge:
    minimum data exchange during FFTs selected (reduces bandwidth)


 total amount of memory used by VASP MPI-rank0    94439. kBytes
=======================================================================

   base      :      30000. kBytes
   nonlr-proj:      13680. kBytes
   fftplans  :       1275. kBytes
   grid      :      22786. kBytes
   one-center:       2737. kBytes
   wavefun   :      23961. kBytes
 
     INWAV:  cpu time    0.0000: real time    0.0001
 Broyden mixing: mesh for mixing (old mesh)
   NGX = 33   NGY = 33   NGZ = 37
  (NGX  =100   NGY  =100   NGZ  =112)
  gives a total of  40293 points

 initial charge density was supplied:
 charge density of overlapping atoms calculated
 number of electron     672.0000000 magnetization      48.0000000
 keeping initial charge density in first step


--------------------------------------------------------------------------------------------------------


 Maximum index for non-local projection operator         1552
 Maximum index for augmentation-charges          550 (set IRDMAX)


--------------------------------------------------------------------------------------------------------


 First call to EWALD:  gamma=   0.179
 Maximum number of real-space cells 3x 3x 2
 Maximum number of reciprocal cells 3x 3x 3

    FEWALD:  cpu time    0.0028: real time    0.0028


--------------------------------------- Iteration      1(   1)  ---------------------------------------


    POTLOK:  cpu time    0.1904: real time    0.1914
    SETDIJ:  cpu time    4.6202: real time    4.6219
    EDDIAG:  cpu time    4.3729: real time    4.7878
  RMM-DIIS:  cpu time    9.0195: real time    9.0405
    ORTHCH:  cpu time    1.1908: real time    1.2711
       DOS:  cpu time    0.0024: real time    0.0024
    --------------------------------------------
      LOOP:  cpu time   19.3963: real time   19.9152

 eigenvalue-minimisations  :  7680
 total energy-change (2. order) : 0.1583316E+04  (-0.3498571E+05)
 number of electron     672.0000000 magnetization      48.0000000
 augmentation part      672.0000000 magnetization      48.0000000

 Free energy of the ion-electron system (eV)
  ---------------------------------------------------
  alpha Z        PSCENC =      2652.81237852
  Ewald energy   TEWEN  =    -41923.42817263
  -Hartree energ DENC   =    -25694.80854783
  -exchange      EXHF   =         0.00000000
  -V(xc)+E(xc)   XCENC  =      3605.74190652
  PAW double counting   =     55594.23204139   -59034.67079123
  entropy T*S    EENTRO =        -0.06179632
  eigenvalues    EBANDS =     -7478.69883256
  atomic energy  EATOM  =     73862.19814772
  Solvation  Ediel_sol  =         0.00000000
  ---------------------------------------------------
  free energy    TOTEN  =      1583.31633357 eV

  energy without entropy =     1583.37812989  energy(sigma->0) =     1583.34723173


--------------------------------------------------------------------------------------------------------




--------------------------------------- Iteration      1(   2)  ---------------------------------------


    EDDIAG:  cpu time    4.3820: real time    4.7809
  RMM-DIIS:  cpu time    9.0227: real time    9.0364
    ORTHCH:  cpu time    1.1531: real time    1.2385
       DOS:  cpu time    0.0022: real time    0.0022
    --------------------------------------------
      LOOP:  cpu time   14.5600: real time   15.0580

 eigenvalue-minimisations  :  7680
 total energy-change (2. order) :-0.2313790E+04  (-0.8035913E+04)
 number of electron     672.0000000 magnetization      48.0000000
 augmentation part      672.0000000 magnetization      48.0000000

 Free energy of the ion-electron system (eV)
  ---------------------------------------------------
  alpha Z        PSCENC =      2652.81237852
  Ewald energy   TEWEN  =    -41923.42817263
  -Hartree energ DENC   =    -25694.80854783
  -exchange      EXHF   =         0.00000000
  -V(xc)+E(xc)   XCENC  =      3605.74190652
  PAW double counting   =     55594.23204139   -59034.67079123
  entropy T*S    EENTRO =        -0.04825203
  eigenvalues    EBANDS =     -9792.50218037
  atomic energy  EATOM  =     73862.19814772
  Solvation  Ediel_sol  =         0.00000000
  ---------------------------------------------------
  free energy    TOTEN  =      -730.47346994 eV

  energy without entropy =     -730.42521791  energy(sigma->0) =     -730.44934393


--------------------------------------------------------------------------------------------------------




--------------------------------------- Iteration      1(   3)  ---------------------------------------


    EDDIAG:  cpu time    4.3962: real time    4.8080
  RMM-DIIS:  cpu time    8.9864: real time    9.0243
    ORTHCH:  cpu time    1.1537: real time    1.2382
       DOS:  cpu time    0.0021: real time    0.0021
    --------------------------------------------
      LOOP:  cpu time   14.5384: real time   15.0726

 eigenvalue-minimisations  :  7680
 total energy-change (2. order) : 0.8502340E+02  (-0.1419618E+04)
 number of electron     672.0000000 magnetization      48.0000000
 augmentation part      672.0000000 magnetization      48.0000000

 Free energy of the ion-electron system (eV)
  ---------------------------------------------------
  alpha Z        PSCENC =      2652.81237852
  Ewald energy   TEWEN  =    -41923.42817263
  -Hartree energ DENC   =    -25694.80854783
  -exchange      EXHF   =         0.00000000
  -V(xc)+E(xc)   XCENC  =      3605.74190652
  PAW double counting   =     55594.23204139   -59034.67079123
  entropy T*S    EENTRO =        -0.04008786
  eigenvalues    EBANDS =     -9707.48694404
  atomic energy  EATOM  =     73862.19814772
  Solvation  Ediel_sol  =         0.00000000
  ---------------------------------------------------
  free energy    TOTEN  =      -645.45006946 eV

  energy without entropy =     -645.40998159  energy(sigma->0) =     -645.43002553


--------------------------------------------------------------------------------------------------------




--------------------------------------- Iteration      1(   4)  ---------------------------------------


    EDDIAG:  cpu time    4.3839: real time    4.7897
  RMM-DIIS:  cpu time    8.9992: real time    9.0079
    ORTHCH:  cpu time    1.1501: real time    1.2385
       DOS:  cpu time    0.0019: real time    0.0019
    --------------------------------------------
      LOOP:  cpu time   14.5352: real time   15.0381

 eigenvalue-minimisations  :  7680
 total energy-change (2. order) :-0.4658534E+03  (-0.4281401E+03)
 number of electron     672.0000000 magnetization      48.0000000
 augmentation part      672.0000000 magnetization      48.0000000

 Free energy of the ion-electron system (eV)
  ---------------------------------------------------
  alpha Z        PSCENC =      2652.81237852
  Ewald energy   TEWEN  =    -41923.42817263
  -Hartree energ DENC   =    -25694.80854783
  -exchange      EXHF   =         0.00000000
  -V(xc)+E(xc)   XCENC  =      3605.74190652
  PAW double counting   =     55594.23204139   -59034.67079123
  entropy T*S    EENTRO =        -0.00000000
  eigenvalues    EBANDS =    -10173.38044864
  atomic energy  EATOM  =     73862.19814772
  Solvation  Ediel_sol  =         0.00000000
  ---------------------------------------------------
  free energy    TOTEN  =     -1111.30348619 eV

  energy without entropy =    -1111.30348619  energy(sigma->0) =    -1111.30348619


--------------------------------------------------------------------------------------------------------




--------------------------------------- Iteration      1(   5)  ---------------------------------------


    EDDIAG:  cpu time    4.4934: real time    4.8725
  RMM-DIIS:  cpu time    8.9817: real time    9.0400
    ORTHCH:  cpu time    1.1559: real time    1.2421
       DOS:  cpu time    0.0014: real time    0.0014
    --------------------------------------------
      LOOP:  cpu time   14.6324: real time   15.1561

 eigenvalue-minimisations  :  7680
 total energy-change (2. order) :-0.1041505E+03  (-0.1595167E+03)
 number of electron     672.0000000 magnetization      48.0000000
 augmentation part      672.0000000 magnetization      48.0000000

 Free energy of the ion-electron system (eV)
  ---------------------------------------------------
  alpha Z        PSCENC =      2652.81237852
  Ewald energy   TEWEN  =    -41923.42817263
  -Hartree energ DENC   =    -25694.80854783
  -exchange      EXHF   =         0.00000000
  -V(xc)+E(xc)   XCENC  =      3605.74190652
  PAW double counting   =     55594.23204139   -59034.67079123
  entropy T*S    EENTRO =        -0.00000000
  eigenvalues    EBANDS =    -10277.53098718
  atomic energy  EATOM  =     73862.19814772
  Solvation  Ediel_sol  =         0.00000000
  ---------------------------------------------------
  free energy    TOTEN  =     -1215.45402473 eV

  energy without entropy =    -1215.45402473  energy(sigma->0) =    -1215.45402473


--------------------------------------------------------------------------------------------------------




--------------------------------------- Iteration      1(   6)  ---------------------------------------


    EDDIAG:  cpu time    4.3622: real time    4.7876
  RMM-DIIS:  cpu time    8.9987: real time    9.0138
    ORTHCH:  cpu time    1.1530: real time    1.2386
       DOS:  cpu time    0.0017: real time    0.0017
    --------------------------------------------
      LOOP:  cpu time   14.5157: real time   15.0417

 eigenvalue-minimisations  :  7680
 total energy-change (2. order) :-0.9119522E+01  (-0.7914614E+02)
 number of electron     672.0000000 magnetization      48.0000000
 augmentation part      672.0000000 magnetization      48.0000000

 Free energy of the ion-electron system (eV)
  ---------------------------------------------------
  alpha Z        PSCENC =      2652.81237852
  Ewald energy   TEWEN  =    -41923.42817263
  -Hartree energ DENC   =    -25694.80854783
  -exchange      EXHF   =         0.00000000
  -V(xc)+E(xc)   XCENC  =      3605.74190652
  PAW double counting   =     55594.23204139   -59034.67079123
  entropy T*S    EENTRO =        -0.00000000
  eigenvalues    EBANDS =    -10286.65050923
  atomic energy  EATOM  =     73862.19814772
  Solvation  Ediel_sol  =         0.00000000
  ---------------------------------------------------
  free energy    TOTEN  =     -1224.57354678 eV

  energy without entropy =    -1224.57354678  energy(sigma->0) =    -1224.57354678


--------------------------------------------------------------------------------------------------------




--------------------------------------- Iteration      1(   7)  ---------------------------------------


    EDDIAG:  cpu time    4.3945: real time    4.7934
  RMM-DIIS:  cpu time    9.0145: real time    9.0469
    ORTHCH:  cpu time    1.1612: real time    1.2427
       DOS:  cpu time    0.0011: real time    0.0011
    --------------------------------------------
      LOOP:  cpu time   14.5713: real time   15.0841

 eigenvalue-minimisations  :  7680
 total energy-change (2. order) :-0.1743266E+01  (-0.4831066E+02)
 number of electron     672.0000000 magnetization      48.0000000
 augmentation part      672.0000000 magnetization      48.0000000

 Free energy of the ion-electron system (eV)
  ---------------------------------------------------
  alpha Z        PSCENC =      2652.81237852
  Ewald energy   TEWEN  =    -41923.42817263
  -Hartree energ DENC   =    -25694.80854783
  -exchange      EXHF   =         0.00000000
  -V(xc)+E(xc)   XCENC  =      3605.74190652
  PAW double counting   =     55594.23204139   -59034.67079123
  entropy T*S    EENTRO =        -0.00000000
  eigenvalues    EBANDS =    -10288.39377551
  atomic energy  EATOM  =     73862.19814772
  Solvation  Ediel_sol  =         0.00000000
  ---------------------------------------------------
  free energy    TOTEN  =     -1226.31681306 eV

  energy without entropy =    -1226.31681306  energy(sigma->0) =    -1226.31681306


--------------------------------------------------------------------------------------------------------




--------------------------------------- Iteration      1(   8)  ---------------------------------------


    EDDIAG:  cpu time    4.3789: real time    4.7886
  RMM-DIIS:  cpu time    9.0062: real time    9.0126
    ORTHCH:  cpu time    1.1556: real time    1.2397
       DOS:  cpu time    0.0017: real time    0.0017
    --------------------------------------------
      LOOP:  cpu time   14.5423: real time   15.0427

 eigenvalue-minimisations  :  7680
 total energy-change (2. order) : 0.4971485E+01  (-0.3004699E+02)
 number of electron     672.0000000 magnetization      48.0000000
 augmentation part      672.0000000 magnetization      48.0000000

 Free energy of the ion-electron system (eV)
  ---------------------------------------------------
  alpha Z        PSCENC =      2652.81237852
  Ewald energy   TEWEN  =    -41923.42817263
  -Hartree energ DENC   =    -25694.80854783
  -exchange      EXHF   =         0.00000000
  -V(xc)+E(xc)   XCENC  =      3605.74190652
  PAW double counting   =     55594.23204139   -59034.67079123
  entropy T*S    EENTRO =        -0.00000000
  eigenvalues    EBANDS =    -10283.42229084
  atomic energy  EATOM  =     73862.19814772
  Solvation  Ediel_sol  =         0.00000000
  ---------------------------------------------------
  free energy    TOTEN  =     -1221.34532839 eV

  energy without entropy =    -1221.34532839  energy(sigma->0) =    -1221.34532839


--------------------------------------------------------------------------------------------------------




--------------------------------------- Iteration      1(   9)  ---------------------------------------


    EDDIAG:  cpu time    4.4286: real time    4.8310
  RMM-DIIS:  cpu time   19.1590: real time   19.2010
    ORTHCH:  cpu time    1.1534: real time    1.2375
       DOS:  cpu time    0.0013: real time    0.0013
    --------------------------------------------
      LOOP:  cpu time   24.7424: real time   25.2708

 eigenvalue-minimisations  : 21820
 total energy-change (2. order) : 0.9333543E+01  (-0.1326971E+02)
 number of electron     672.0000000 magnetization      48.0000000
 augmentation part      672.0000000 magnetization      48.0000000

 Free energy of the ion-electron system (eV)
  ---------------------------------------------------
  alpha Z        PSCENC =      2652.81237852
  Ewald energy   TEWEN  =    -41923.42817263
  -Hartree energ DENC   =    -25694.80854783
  -exchange      EXHF   =         0.00000000
  -V(xc)+E(xc)   XCENC  =      3605.74190652
  PAW double counting   =     55594.23204139   -59034.67079123
  entropy T*S    EENTRO =        -0.00000000
  eigenvalues    EBANDS =    -10274.08874782
  atomic energy  EATOM  =     73862.19814772
  Solvation  Ediel_sol  =         0.00000000
  ---------------------------------------------------
  free energy    TOTEN  =     -1212.01178537 eV

  energy without entropy =    -1212.01178537  energy(sigma->0) =    -1212.01178537


--------------------------------------------------------------------------------------------------------




--------------------------------------- Iteration      1(  10)  ---------------------------------------


    EDDIAG:  cpu time    4.3645: real time    4.7816
  RMM-DIIS:  cpu time   17.5451: real time   17.6087
    ORTHCH:  cpu time    1.1542: real time    1.2409
       DOS:  cpu time    0.0015: real time    0.0015
    --------------------------------------------
      LOOP:  cpu time   23.0653: real time   23.6328

 eigenvalue-minimisations  : 19575
 total energy-change (2. order) :-0.1932269E+01  (-0.5341320E+00)
 number of electron     672.0000000 magnetization      48.0000000
 augmentation part      672.0000000 magnetization      48.0000000

 Free energy of the ion-electron system (eV)
  ---------------------------------------------------
  alpha Z        PSCENC =      2652.81237852
  Ewald energy   TEWEN  =    -41923.42817263
  -Hartree energ DENC   =    -25694.80854783
  -exchange      EXHF   =         0.00000000
  -V(xc)+E(xc)   XCENC  =      3605.74190652
  PAW double counting   =     55594.23204139   -59034.67079123
  entropy T*S    EENTRO =        -0.00000003
  eigenvalues    EBANDS =    -10276.02101729
  atomic energy  EATOM  =     73862.19814772
  Solvation  Ediel_sol  =         0.00000000
  ---------------------------------------------------
  free energy    TOTEN  =     -1213.94405487 eV

  energy without entropy =    -1213.94405484  energy(sigma->0) =    -1213.94405486


--------------------------------------------------------------------------------------------------------




--------------------------------------- Iteration      1(  11)  ---------------------------------------


    EDDIAG:  cpu time    4.3484: real time    4.7838
  RMM-DIIS:  cpu time   19.5478: real time   19.5899
    ORTHCH:  cpu time    1.1709: real time    1.2544
       DOS:  cpu time    0.0016: real time    0.0016
    --------------------------------------------
      LOOP:  cpu time   25.0687: real time   25.6298

 eigenvalue-minimisations  : 22536
 total energy-change (2. order) : 0.7137157E-01  (-0.4362108E-01)
 number of electron     672.0000000 magnetization      48.0000000
 augmentation part      672.0000000 magnetization      48.0000000

 Free energy of the ion-electron system (eV)
  ---------------------------------------------------
  alpha Z        PSCENC =      2652.81237852
  Ewald energy   TEWEN  =    -41923.42817263
  -Hartree energ DENC   =    -25694.80854783
  -exchange      EXHF   =         0.00000000
  -V(xc)+E(xc)   XCENC  =      3605.74190652
  PAW double counting   =     55594.23204139   -59034.67079123
  entropy T*S    EENTRO =        -0.00000002
  eigenvalues    EBANDS =    -10275.94964573
  atomic energy  EATOM  =     73862.19814772
  Solvation  Ediel_sol  =         0.00000000
  ---------------------------------------------------
  free energy    TOTEN  =     -1213.87268330 eV

  energy without entropy =    -1213.87268328  energy(sigma->0) =    -1213.87268329


--------------------------------------------------------------------------------------------------------




--------------------------------------- Iteration      1(  12)  ---------------------------------------


    EDDIAG:  cpu time    4.3722: real time    4.7848
  RMM-DIIS:  cpu time   21.5571: real time   21.5853
    ORTHCH:  cpu time    1.1586: real time    1.2382
       DOS:  cpu time    0.0028: real time    0.0028
    CHARGE:  cpu time    1.7780: real time    1.8075
    MIXING:  cpu time    0.0009: real time    0.0011
    --------------------------------------------
      LOOP:  cpu time   28.8697: real time   29.4196

 eigenvalue-minimisations  : 24458
 total energy-change (2. order) :-0.1055791E-02  (-0.4417902E-02)
 number of electron     672.0000238 magnetization      48.0000020
 augmentation part      239.0546124 magnetization      29.0481493

 Broyden mixing:
  rms(total) = 0.12547E+02    rms(broyden)= 0.12538E+02
  rms(prec ) = 0.14401E+02
  weight for this iteration     100.00

 Free energy of the ion-electron system (eV)
  ---------------------------------------------------
  alpha Z        PSCENC =      2652.81237852
  Ewald energy   TEWEN  =    -41923.42817263
  -Hartree energ DENC   =    -25694.80854783
  -exchange      EXHF   =         0.00000000
  -V(xc)+E(xc)   XCENC  =      3605.74190652
  PAW double counting   =     55594.23204139   -59034.67079123
  entropy T*S    EENTRO =        -0.00000002
  eigenvalues    EBANDS =    -10275.95070152
  atomic energy  EATOM  =     73862.19814772
  Solvation  Ediel_sol  =         0.00000000
  ---------------------------------------------------
  free energy    TOTEN  =     -1213.87373909 eV

  energy without entropy =    -1213.87373907  energy(sigma->0) =    -1213.87373908


--------------------------------------------------------------------------------------------------------




--------------------------------------- Iteration      1(  13)  ---------------------------------------


    POTLOK:  cpu time    0.1721: real time    0.1724
    SETDIJ:  cpu time    4.9536: real time    4.9557
    EDDIAG:  cpu time    4.3811: real time    4.8025
  RMM-DIIS:  cpu time   17.2711: real time   17.3169
    ORTHCH:  cpu time    1.1550: real time    1.2393
       DOS:  cpu time    0.0021: real time    0.0021
    CHARGE:  cpu time    1.7886: real time    1.8085
    MIXING:  cpu time    0.0008: real time    0.0010
    --------------------------------------------
      LOOP:  cpu time   29.7245: real time   30.2983

 eigenvalue-minimisations  : 18735
 total energy-change (2. order) : 0.2274608E+03  (-0.1219449E+03)
 number of electron     672.0000186 magnetization      48.0000027
 augmentation part      269.4299298 magnetization      26.0068300

 Broyden mixing:
  rms(total) = 0.14147E+02    rms(broyden)= 0.14144E+02
  rms(prec ) = 0.15981E+02
  weight for this iteration     100.00

 eigenvalues of (default mixing * dielectric matrix)
  average eigenvalue GAMMA=   0.3169
  0.3169

 Free energy of the ion-electron system (eV)
  ---------------------------------------------------
  alpha Z        PSCENC =      2652.81237852
  Ewald energy   TEWEN  =    -41923.42817263
  -Hartree energ DENC   =    -25021.92539019
  -exchange      EXHF   =         0.00000000
  -V(xc)+E(xc)   XCENC  =      3696.01435381
  PAW double counting   =     59876.23752708   -63301.29679740
  entropy T*S    EENTRO =        -0.07803506
  eigenvalues    EBANDS =    -10826.94691338
  atomic energy  EATOM  =     73862.19814772
  Solvation  Ediel_sol  =         0.00000000
  ---------------------------------------------------
  free energy    TOTEN  =      -986.41290152 eV

  energy without entropy =     -986.33486647  energy(sigma->0) =     -986.37388399


--------------------------------------------------------------------------------------------------------




--------------------------------------- Iteration      1(  14)  ---------------------------------------


    POTLOK:  cpu time    0.1746: real time    0.1747
    SETDIJ:  cpu time    4.9384: real time    4.9405
    EDDIAG:  cpu time    4.3953: real time    4.8155
  RMM-DIIS:  cpu time   17.6997: real time   17.7120
    ORTHCH:  cpu time    1.1673: real time    1.2643
       DOS:  cpu time    0.0011: real time    0.0011
    CHARGE:  cpu time    1.7625: real time    1.7660
    MIXING:  cpu time    0.0010: real time    0.0010
    --------------------------------------------
      LOOP:  cpu time   30.1399: real time   30.6751

 eigenvalue-minimisations  : 19309
 total energy-change (2. order) : 0.6967111E+02  (-0.1859934E+02)
 number of electron     672.0000217 magnetization      48.0000043
 augmentation part      246.4808416 magnetization      32.0996585

 Broyden mixing:
  rms(total) = 0.52980E+01    rms(broyden)= 0.52937E+01
  rms(prec ) = 0.57701E+01
  weight for this iteration     100.00

 eigenvalues of (default mixing * dielectric matrix)
  average eigenvalue GAMMA=   0.7273
  1.0995  0.3550

 Free energy of the ion-electron system (eV)
  ---------------------------------------------------
  alpha Z        PSCENC =      2652.81237852
  Ewald energy   TEWEN  =    -41923.42817263
  -Hartree energ DENC   =    -25637.02629447
  -exchange      EXHF   =         0.00000000
  -V(xc)+E(xc)   XCENC  =      3672.79089292
  PAW double counting   =     63251.16163792   -66733.14683940
  entropy T*S    EENTRO =        -0.00000000
  eigenvalues    EBANDS =    -10062.10354204
  atomic energy  EATOM  =     73862.19814772
  Solvation  Ediel_sol  =         0.00000000
  ---------------------------------------------------
  free energy    TOTEN  =      -916.74179146 eV

  energy without entropy =     -916.74179146  energy(sigma->0) =     -916.74179146


--------------------------------------------------------------------------------------------------------




--------------------------------------- Iteration      1(  15)  ---------------------------------------


    POTLOK:  cpu time    0.1713: real time    0.1716
    SETDIJ:  cpu time    4.8561: real time    4.9506
    EDDIAG:  cpu time    4.4179: real time    4.8070
  RMM-DIIS:  cpu time   17.9417: real time   17.9526
    ORTHCH:  cpu time    1.2026: real time    1.2935
       DOS:  cpu time    0.0013: real time    0.0013
    CHARGE:  cpu time    1.7649: real time    1.7653
    MIXING:  cpu time    0.0014: real time    0.0014
    --------------------------------------------
      LOOP:  cpu time   30.3572: real time   30.9433

 eigenvalue-minimisations  : 20197
 total energy-change (2. order) : 0.1514950E+02  (-0.2499673E+01)
 number of electron     672.0000215 magnetization      48.0000052
 augmentation part      249.5990233 magnetization      33.7868123

 Broyden mixing:
  rms(total) = 0.23444E+01    rms(broyden)= 0.23440E+01
  rms(prec ) = 0.24425E+01
  weight for this iteration     100.00

 eigenvalues of (default mixing * dielectric matrix)
  average eigenvalue GAMMA=   0.8824
  1.5652  0.3817  0.7004

 Free energy of the ion-electron system (eV)
  ---------------------------------------------------
  alpha Z        PSCENC =      2652.81237852
  Ewald energy   TEWEN  =    -41923.42817263
  -Hartree energ DENC   =    -25555.40799023
  -exchange      EXHF   =         0.00000000
  -V(xc)+E(xc)   XCENC  =      3706.20601486
  PAW double counting   =     67292.06302912   -70814.10502357
  entropy T*S    EENTRO =        -0.00000000
  eigenvalues    EBANDS =    -10121.93067686
  atomic energy  EATOM  =     73862.19814772
  Solvation  Ediel_sol  =         0.00000000
  ---------------------------------------------------
  free energy    TOTEN  =      -901.59229307 eV

  energy without entropy =     -901.59229307  energy(sigma->0) =     -901.59229307


--------------------------------------------------------------------------------------------------------




--------------------------------------- Iteration      1(  16)  ---------------------------------------


    POTLOK:  cpu time    0.1670: real time    0.1676
    SETDIJ:  cpu time    5.0035: real time    5.0045
    EDDIAG:  cpu time    4.4259: real time    4.8299
  RMM-DIIS:  cpu time   17.5781: real time   17.5972
    ORTHCH:  cpu time    1.1848: real time    1.2723
       DOS:  cpu time    0.0013: real time    0.0013
    CHARGE:  cpu time    1.7658: real time    1.7665
    MIXING:  cpu time    0.0010: real time    0.0010
    --------------------------------------------
      LOOP:  cpu time   30.1275: real time   30.6404

 eigenvalue-minimisations  : 19366
 total energy-change (2. order) :-0.1087963E+01  (-0.6663116E+00)
 number of electron     672.0000206 magnetization      48.0000056
 augmentation part      250.9339989 magnetization      33.9045955

 Broyden mixing:
  rms(total) = 0.15802E+01    rms(broyden)= 0.15797E+01
  rms(prec ) = 0.16520E+01
  weight for this iteration     100.00

 eigenvalues of (default mixing * dielectric matrix)
  average eigenvalue GAMMA=   0.9571
  2.0646  0.8859  0.3855  0.4924

 Free energy of the ion-electron system (eV)
  ---------------------------------------------------
  alpha Z        PSCENC =      2652.81237852
  Ewald energy   TEWEN  =    -41923.42817263
  -Hartree energ DENC   =    -25508.10107586
  -exchange      EXHF   =         0.00000000
  -V(xc)+E(xc)   XCENC  =      3706.83409423
  PAW double counting   =     69954.29110110   -73503.34934408
  entropy T*S    EENTRO =        -0.00000000
  eigenvalues    EBANDS =    -10143.93738519
  atomic energy  EATOM  =     73862.19814772
  Solvation  Ediel_sol  =         0.00000000
  ---------------------------------------------------
  free energy    TOTEN  =      -902.68025619 eV

  energy without entropy =     -902.68025619  energy(sigma->0) =     -902.68025619


--------------------------------------------------------------------------------------------------------




--------------------------------------- Iteration      1(  17)  ---------------------------------------


    POTLOK:  cpu time    0.1704: real time    0.1713
    SETDIJ:  cpu time    5.0108: real time    5.0129
    EDDIAG:  cpu time    4.3773: real time    4.7766
  RMM-DIIS:  cpu time   18.1975: real time   18.2487
    ORTHCH:  cpu time    1.1536: real time    1.2402
       DOS:  cpu time    0.0012: real time    0.0012
    CHARGE:  cpu time    1.7618: real time    1.7630
    MIXING:  cpu time    0.0020: real time    0.0020
    --------------------------------------------
      LOOP:  cpu time   30.6746: real time   31.2160

 eigenvalue-minimisations  : 20379
 total energy-change (2. order) :-0.3947769E-01  (-0.1011953E+00)
 number of electron     672.0000208 magnetization      48.0000057
 augmentation part      251.1373475 magnetization      33.9176683

 Broyden mixing:
  rms(total) = 0.82452E+00    rms(broyden)= 0.82428E+00
  rms(prec ) = 0.93321E+00
  weight for this iteration     100.00

 eigenvalues of (default mixing * dielectric matrix)
  average eigenvalue GAMMA=   0.9747
  2.2037  1.0927  0.3737  0.6624  0.5408

 Free energy of the ion-electron system (eV)
  ---------------------------------------------------
  alpha Z        PSCENC =      2652.81237852
  Ewald energy   TEWEN  =    -41923.42817263
  -Hartree energ DENC   =    -25491.44153231
  -exchange      EXHF   =         0.00000000
  -V(xc)+E(xc)   XCENC  =      3704.95848631
  PAW double counting   =     71073.38911331   -74633.40951027
  entropy T*S    EENTRO =        -0.00000000
  eigenvalues    EBANDS =    -10147.79864453
  atomic energy  EATOM  =     73862.19814772
  Solvation  Ediel_sol  =         0.00000000
  ---------------------------------------------------
  free energy    TOTEN  =      -902.71973388 eV

  energy without entropy =     -902.71973388  energy(sigma->0) =     -902.71973388


--------------------------------------------------------------------------------------------------------




--------------------------------------- Iteration      1(  18)  ---------------------------------------


    POTLOK:  cpu time    0.1697: real time    0.1698
    SETDIJ:  cpu time    5.0120: real time    5.0146
    EDDIAG:  cpu time    4.3820: real time    4.7846
  RMM-DIIS:  cpu time   17.7523: real time   17.7772
    ORTHCH:  cpu time    1.1587: real time    1.2415
       DOS:  cpu time    0.0011: real time    0.0011
    CHARGE:  cpu time    1.7664: real time    1.7671
    MIXING:  cpu time    0.0011: real time    0.0011
    --------------------------------------------
      LOOP:  cpu time   30.2433: real time   30.7571

 eigenvalue-minimisations  : 19392
 total energy-change (2. order) : 0.4438968E+00  (-0.6751788E-01)
 number of electron     672.0000209 magnetization      48.0000058
 augmentation part      250.6431642 magnetization      33.8969379

 Broyden mixing:
  rms(total) = 0.32340E+00    rms(broyden)= 0.32322E+00
  rms(prec ) = 0.34257E+00
  weight for this iteration     100.00

 eigenvalues of (default mixing * dielectric matrix)
  average eigenvalue GAMMA=   1.0105
  2.4267  1.3731  0.8383  0.5872  0.3761  0.4616

 Free energy of the ion-electron system (eV)
  ---------------------------------------------------
  alpha Z        PSCENC =      2652.81237852
  Ewald energy   TEWEN  =    -41923.42817263
  -Hartree energ DENC   =    -25495.71709068
  -exchange      EXHF   =         0.00000000
[...]
   4      -0.818    -0.733     1.551     0.172     0.455    -0.182
   5      -0.931    -1.007     1.938     0.116     0.108     0.018
   6      -0.870    -0.727     1.596     0.080    -0.383     0.221
   7      -0.749    -0.671     1.420    -0.080    -0.525    -0.265
   8      -0.785    -0.635     1.420    -0.079    -0.469    -0.234
   9      -0.834    -0.700     1.534     0.187    -0.410     0.221
  10      -0.823    -0.717     1.540    -0.071     0.424     0.244
  11      -0.515    -0.835     1.350     0.014    -0.092    -0.482
  12      -0.853    -0.993     1.845     0.054    -0.111    -0.003
  13      -0.707    -0.589     1.296     0.106     0.290    -0.089
  14      -1.023    -1.032     2.055     0.093    -0.105    -0.009
  15      -0.592    -0.858     1.449     0.017    -0.124    -0.414
  16      -0.831    -0.791     1.622    -0.037     0.433     0.244
  17       1.781     1.217    -2.997    -0.150     0.034    -0.005
  18       1.474     1.483    -2.958     0.147    -0.029     0.008
  19       1.290     1.496    -2.786     0.102    -0.050     0.048
  20       1.525     1.366    -2.892     0.043     0.081     0.020
  21       1.359     1.602    -2.961     0.031     0.059    -0.056
  22       1.522     1.406    -2.927    -0.129    -0.063     0.024
  23       1.353     1.461    -2.814    -0.071     0.046     0.037
  24       1.443     1.454    -2.898     0.076     0.024    -0.098
  25      -0.925     1.172    -0.247     1.201     0.096    -0.097
  26       1.167    -0.753    -0.414     0.291    -0.407     0.352
  27      -0.444     0.241     0.203    -1.405    -0.601     0.953
  28      -1.623    -0.147     1.771     0.303     0.912    -0.620
  29      -0.879     1.515    -0.636    -0.544     0.445     0.508
  30      -1.784     0.514     1.270     1.003     0.700     0.571
  31      -1.048     0.035     1.014     1.436     0.640    -0.845
  32       0.814    -0.871     0.057     0.341    -0.114     1.035
  33      -0.023    -0.476     0.498     1.452     1.098    -1.137
  34      -0.634     1.243    -0.609    -0.464    -0.288     1.018
  35      -2.045     0.114     1.932     1.275     0.968    -0.238
  36       1.599    -0.094    -1.505    -0.082    -0.346     0.023
  37      -1.321     0.396     0.925    -0.377    -0.407     0.203
  38      -0.201     0.216    -0.015    -0.532     0.927    -0.420
  39      -0.670     0.806    -0.136    -0.878     0.242    -0.619
  40      -0.285     0.132     0.153    -0.087    -0.558    -0.473
  41      -2.391     2.825    -0.435    -5.350     1.279    -5.399
  42      -3.578     2.252     1.327     5.702     1.504     4.462
  43       4.989    -6.665     1.676     1.625    -5.267    -0.158
  44      -3.462     1.148     2.314     4.931    -2.484    -3.424
  45      -3.603     1.035     2.568    -4.051    -0.469     5.223
  46       5.221    -7.757     2.536     1.320     5.745    -0.953
  47      -4.801     3.937     0.863    -5.108     2.887    -3.743
  48       7.004    -5.704    -1.300     0.489    -3.883    -0.656
  49      -4.108     4.199    -0.092     4.382     2.827     3.880
  50       4.772    -5.307     0.535    -0.183     3.631     1.344
  51      -2.151     1.625     0.525    -4.561    -2.654     3.123
  52      -3.521     3.978    -0.457     6.324    -1.166    -4.526
  53      -4.508     3.560     0.948    -4.725     3.189    -3.326
  54      -2.520     2.088     0.432     4.806     3.033     3.788
  55       4.360    -5.720     1.360     0.026    -5.193    -0.443
  56      -4.146     3.396     0.750     4.461    -3.465    -3.914
  57      -2.627     1.705     0.922    -5.442    -2.238     4.237
  58       5.443    -6.497     1.054     1.678     5.389     0.391
  59      -3.069     2.131     0.938    -4.484     2.284    -4.320
  60       4.315    -4.885     0.570     1.534    -3.857     0.161
  61      -2.348     1.154     1.194     5.977     2.192     4.364
  62       3.639    -4.837     1.199    -0.162     5.140     1.554
  63      -2.326     3.176    -0.850    -5.862    -3.193     2.550
  64      -2.453     3.608    -1.155     3.896    -3.381    -2.381
  65      -2.488     2.370     0.117    -5.125     2.545    -2.645
  66      -3.923     3.532     0.391     4.426     3.985     3.028
  67       4.786    -4.067    -0.719    -0.763    -4.158     1.080
  68      -3.477     1.383     2.094     4.116    -2.452    -5.610
  69      -2.863     2.848     0.015    -5.573    -1.072     4.332
  70       5.372    -6.473     1.101    -0.690     4.737    -0.111
  71      -2.444    -0.107     2.551    -4.724     1.930    -4.692
  72       5.378    -6.418     1.040     0.123    -5.022     1.671
  73      -3.010     1.928     1.082     5.894     2.357     4.531
  74       4.885    -6.341     1.455     1.697     5.516    -0.400
  75      -3.852     4.054    -0.202    -4.734    -2.574     3.170
  76      -2.863     3.942    -1.080     5.514    -2.463    -3.845
  77      -3.110     1.668     1.442    -6.004     2.077    -4.049
  78      -2.747     3.963    -1.216     5.356     3.764     2.994
  79       5.380    -5.449     0.069     0.130    -3.880    -0.157
  80      -1.566     0.659     0.907     5.852    -1.213    -3.816
  81      -2.075     1.873     0.202    -5.769    -1.439     3.903
  82       5.477    -5.905     0.427    -0.326     3.680     1.361
  83      -2.067     0.732     1.335    -4.744     2.584    -4.237
  84       5.355    -6.215     0.860     0.115    -4.462     0.170
  85      -3.114     3.140    -0.026     5.348     3.010     3.627
  86       4.523    -5.068     0.545     0.353     4.865    -0.827
  87      -4.099     3.051     1.048    -3.751    -2.839     3.730
  88      -3.976     2.954     1.023     5.577    -3.181    -5.013
 ---------------------------------------------------------------------


 Total hyperfine coupling parameters after diagonalization (MHz)
 (convention: |A_zz| > |A_xx| > |A_yy|)
 ----------------------------------------------------------------------
  ion      A_xx      A_yy      A_zz     asymmetry (A_yy - A_xx)/ A_zz 
 ----------------------------------------------------------------------
   1       0.332     0.240     3.019      -0.031
   2       2.601     2.150     4.872      -0.092
   3       1.358     0.973     3.392      -0.113
   4       2.122     1.687     4.372      -0.100
   5      -0.570    -0.329     2.464       0.098
   6       1.896     1.607     4.260      -0.068
   7       2.027     1.705     4.216      -0.077
   8       2.131     1.798     4.270      -0.078
   9       2.173     1.694     4.361      -0.110
  10       2.466     2.193     4.784      -0.057
  11       1.653     1.235     3.628      -0.115
  12       0.425     0.251     3.113      -0.056
  13       1.369     1.087     3.239      -0.087
  14      -1.087    -0.902     2.094       0.088
  15       2.035     1.705     4.163      -0.079
  16       2.318     2.137     4.805      -0.038
  17      14.390    10.213    15.028      -0.278
  18      14.769    10.479    15.063      -0.285
  19      12.843     8.806    13.132      -0.307
  20      14.319    10.070    14.501      -0.293
  21      15.090    10.771    15.341      -0.282
  22      14.469    10.218    14.752      -0.288
  23      13.875     9.741    14.052      -0.294
  24      13.221     8.947    13.373      -0.320
  25      99.249    98.001   101.203      -0.012
  26      99.282    98.424   100.782      -0.009
  27      99.019    97.936   101.526      -0.011
  28      98.485    96.678   100.769      -0.018
  29      95.595    94.487    97.600      -0.011
  30      97.773    95.243    99.381      -0.025
  31     101.186    98.015   101.882      -0.031
  32      94.868    92.592    95.093      -0.024
  33      97.101    93.388    97.295      -0.038
  34      92.182    91.843    94.732      -0.004
  35      99.649    96.130   101.125      -0.035
  36      94.239    92.795    95.979      -0.015
  37      96.409    94.604    97.161      -0.019
  38      95.804    94.956    97.263      -0.009
  39      95.915    95.238    97.806      -0.007
  40      94.194    93.342    94.894      -0.009
  41       2.489    -1.462    14.200      -0.278
  42       7.549     1.745    17.617      -0.329
  43       5.271     0.378    16.295      -0.300
  44       6.834     1.253    15.501      -0.360
  45       5.408     0.009    14.577      -0.370
  46       8.229     1.684    19.642      -0.333
  47       7.902     2.198    18.461      -0.309
  48       6.036     3.007    17.378      -0.174
  49       3.702    -0.178    14.692      -0.264
  50       4.630     0.094    12.681      -0.358
  51       2.735    -0.597    11.829      -0.282
  52       7.585     2.415    19.426      -0.266
  53       7.344     1.629    17.017      -0.336
  54       3.300     0.193    13.954      -0.223
  55       5.421     2.169    16.202      -0.201
  56       5.151     0.565    15.890      -0.289
  57       4.898     0.586    15.382      -0.280
  58       5.401     1.133    17.116      -0.249
  59       4.138     0.881    14.603      -0.223
  60       7.011     3.324    15.453      -0.239
  61       6.069     0.904    16.567      -0.312
  62       4.401     1.077    14.375      -0.231
  63       5.034     0.662    15.622      -0.280
  64       5.890     1.889    14.631      -0.273
  65       4.637     0.350    13.592      -0.315
  66       4.417    -1.221    13.930      -0.405
  67       4.606     2.899    14.471      -0.118
  68       4.285     1.496    16.493      -0.169
  69       6.914     2.119    17.171      -0.279
  70       6.938     2.363    17.341      -0.264
  71       3.496    -1.317    13.154      -0.366
  72       6.760     1.643    17.287      -0.296
  73       5.990     1.109    17.172      -0.284
  74       3.729    -0.917    14.953      -0.311
  75       5.706     1.329    15.759      -0.278
  76       2.922     0.064    15.094      -0.189
  77       6.240     0.387    16.213      -0.361
  78       6.135     1.892    17.395      -0.244
  79       4.930     1.452    14.334      -0.243
  80       7.765     1.866    16.231      -0.363
  81       3.936    -0.848    13.643      -0.351
  82       5.294     0.123    13.845      -0.373
  83       2.951    -0.406    13.224      -0.254
  84       3.063    -1.283    13.046      -0.333
  85       7.355     3.400    18.418      -0.215
  86       5.309     2.369    15.527      -0.189
  87       4.172     0.022    13.760      -0.302
  88       6.540     2.322    19.400      -0.217
 ---------------------------------------------------------------------



--------------------------------------------------------------------------------------------------------


 stress matrix after NEB project (eV)
    -45.13910     -2.67978     -1.11351
     -2.67682    -46.72097     -1.21025
     -1.13655     -1.21462    -61.47084
  FORCES: max atom, RMS     2.773737    1.073805
  FORCE total and by dimension   10.073188    2.203096
  Stress total and by dimension   89.548141   61.470839
     LOOP+:  cpu time  785.9249: real time  802.3167
    4ORBIT:  cpu time    0.0000: real time    0.0000
 


 total charge     
 
# of ion       s       p       d       tot
------------------------------------------
    1        0.045   5.988   0.000   6.033
    2        0.056   6.001   0.000   6.056
    3        0.056   6.000   0.000   6.056
    4        0.054   5.998   0.000   6.052
    5        0.050   5.994   0.000   6.045
    6        0.050   5.991   0.000   6.041
    7        0.051   5.993   0.000   6.044
    8        0.050   5.992   0.000   6.042
    9        0.054   5.997   0.000   6.050
   10        0.049   5.990   0.000   6.040
   11        0.049   5.991   0.000   6.040
   12        0.053   5.997   0.000   6.050
   13        0.048   5.989   0.000   6.037
   14        0.052   5.997   0.000   6.049
   15        0.049   5.990   0.000   6.039
   16        0.049   5.990   0.000   6.039
   17        0.153   6.135   0.089   6.377
   18        0.149   6.128   0.084   6.362
   19        0.145   6.121   0.077   6.343
   20        0.150   6.129   0.084   6.362
   21        0.146   6.125   0.082   6.353
   22        0.147   6.126   0.082   6.355
   23        0.146   6.122   0.079   6.348
   24        0.147   6.125   0.081   6.353
   25        0.356   6.412   4.792  11.559
   26        0.365   6.436   4.810  11.612
   27        0.369   6.442   4.829  11.641
   28        0.391   6.489   4.860  11.739
   29        0.389   6.486   4.861  11.736
   30        0.380   6.468   4.841  11.689
   31        0.357   6.413   4.797  11.567
   32        0.387   6.478   4.854  11.719
   33        0.382   6.466   4.845  11.692
   34        0.374   6.452   4.823  11.649
   35        0.374   6.450   4.821  11.645
   36        0.367   6.438   4.808  11.613
   37        0.381   6.463   4.844  11.687
   38        0.372   6.451   4.820  11.643
   39        0.388   6.485   4.863  11.736
   40        0.380   6.465   4.832  11.677
   41        1.599   3.456   0.000   5.055
   42        1.599   3.522   0.000   5.121
   43        1.603   3.525   0.000   5.128
   44        1.599   3.525   0.000   5.124
   45        1.596   3.491   0.000   5.087
   46        1.602   3.516   0.000   5.118
   47        1.599   3.495   0.000   5.094
   48        1.598   3.496   0.000   5.094
   49        1.599   3.480   0.000   5.079
   50        1.597   3.519   0.000   5.116
   51        1.596   3.493   0.000   5.089
   52        1.602   3.506   0.000   5.108
   53        1.599   3.520   0.000   5.119
   54        1.598   3.526   0.000   5.124
   55        1.598   3.469   0.000   5.067
   56        1.598   3.506   0.000   5.104
   57        1.599   3.528   0.000   5.127
   58        1.601   3.505   0.000   5.106
   59        1.600   3.520   0.000   5.120
   60        1.599   3.521   0.000   5.120
   61        1.598   3.519   0.000   5.117
   62        1.598   3.510   0.000   5.108
   63        1.599   3.524   0.000   5.123
   64        1.598   3.499   0.000   5.097
   65        1.596   3.521   0.000   5.117
   66        1.598   3.503   0.000   5.101
   67        1.596   3.475   0.000   5.071
   68        1.598   3.519   0.000   5.118
   69        1.600   3.533   0.000   5.133
   70        1.603   3.509   0.000   5.113
   71        1.599   3.516   0.000   5.115
   72        1.600   3.474   0.000   5.074
   73        1.603   3.511   0.000   5.114
   74        1.599   3.487   0.000   5.086
   75        1.599   3.517   0.000   5.116
   76        1.600   3.459   0.000   5.059
   77        1.600   3.527   0.000   5.128
   78        1.599   3.501   0.000   5.100
   79        1.600   3.493   0.000   5.093
   80        1.602   3.529   0.000   5.131
   81        1.599   3.477   0.000   5.076
   82        1.595   3.484   0.000   5.080
   83        1.596   3.516   0.000   5.112
   84        1.600   3.485   0.000   5.085
   85        1.598   3.484   0.000   5.082
   86        1.599   3.503   0.000   5.102
   87        1.598   3.516   0.000   5.114
   88        1.601   3.480   0.000   5.082
--------------------------------------------------
tot         84.768 416.392  77.958 579.117
 


 magnetization (x)
 
# of ion       s       p       d       tot
------------------------------------------
    1        0.001   0.000   0.000   0.001
    2        0.002   0.001   0.000   0.003
    3        0.001   0.000   0.000   0.002
    4        0.002   0.000   0.000   0.002
    5        0.000   0.000   0.000   0.001
    6        0.002   0.000   0.000   0.002
    7        0.002   0.000   0.000   0.002
    8        0.002   0.000   0.000   0.002
    9        0.002   0.000   0.000   0.002
   10        0.002   0.001   0.000   0.003
   11        0.002   0.000   0.000   0.002
   12        0.001   0.000   0.000   0.001
   13        0.001   0.001   0.000   0.002
   14        0.000   0.000   0.000   0.000
   15        0.002   0.000   0.000   0.002
   16        0.002   0.000   0.000   0.003
   17        0.007   0.003   0.001   0.011
   18        0.008   0.003   0.001   0.012
   19        0.007   0.002   0.001   0.010
   20        0.007   0.002   0.001   0.011
   21        0.008   0.003   0.001   0.011
   22        0.007   0.002   0.001   0.011
   23        0.007   0.002   0.001   0.010
   24        0.007   0.002   0.001   0.010
   25        0.015   0.029   2.809   2.853
   26        0.016   0.030   2.777   2.823
   27        0.016   0.031   2.767   2.813
   28        0.016   0.032   2.724   2.772
   29        0.015   0.031   2.729   2.775
   30        0.016   0.030   2.751   2.797
   31        0.015   0.029   2.810   2.854
   32        0.015   0.030   2.728   2.773
   33        0.015   0.030   2.738   2.783
   34        0.014   0.029   2.751   2.794
   35        0.016   0.031   2.766   2.813
   36        0.014   0.029   2.772   2.815
   37        0.015   0.030   2.749   2.793
   38        0.015   0.030   2.755   2.800
   39        0.015   0.031   2.721   2.768
   40        0.015   0.030   2.746   2.791
   41        0.002  -0.002   0.000   0.000
   42        0.002   0.059   0.000   0.061
   43        0.002   0.038   0.000   0.040
   44        0.002   0.043   0.000   0.045
   45        0.002   0.026   0.000   0.028
   46        0.002   0.061   0.000   0.063
   47        0.003   0.048   0.000   0.050
   48        0.002   0.034   0.000   0.037
   49        0.002   0.013   0.000   0.015
   50        0.002   0.024   0.000   0.025
   51        0.001   0.005   0.000   0.006
   52        0.002   0.052   0.000   0.054
   53        0.002   0.053   0.000   0.055
   54        0.002   0.027   0.000   0.029
   55        0.002   0.030   0.000   0.032
   56        0.002   0.028   0.000   0.030
   57        0.002   0.042   0.000   0.044
   58        0.002   0.029   0.000   0.031
   59        0.002   0.028   0.000   0.030
   60        0.002   0.038   0.000   0.040
   61        0.002   0.038   0.000   0.040
   62        0.002   0.021   0.000   0.023
   63        0.002   0.034   0.000   0.036
   64        0.002   0.029   0.000   0.031
   65        0.002   0.028   0.000   0.029
   66        0.002   0.020   0.000   0.022
   67        0.002   0.018   0.000   0.020
   68        0.002   0.039   0.000   0.041
   69        0.002   0.048   0.000   0.051
   70        0.002   0.039   0.000   0.041
   71        0.001   0.021   0.000   0.022
   72        0.002   0.039   0.000   0.042
   73        0.002   0.043   0.000   0.045
   74        0.002   0.022   0.000   0.024
   75        0.002   0.039   0.000   0.041
   76        0.002   0.008   0.000   0.010
   77        0.002   0.043   0.000   0.045
   78        0.002   0.042   0.000   0.044
   79        0.002   0.025   0.000   0.026
   80        0.002   0.054   0.000   0.056
   81        0.002   0.007   0.000   0.009
   82        0.002   0.024   0.000   0.026
   83        0.002   0.022   0.000   0.023
   84        0.002   0.008   0.000   0.009
   85        0.002   0.051   0.000   0.053
   86        0.002   0.036   0.000   0.038
   87        0.002   0.030   0.000   0.031
   88        0.002   0.045   0.000   0.048
--------------------------------------------------
tot          0.422   2.054  44.102  46.578
 

 total amount of memory used by VASP MPI-rank0    94439. kBytes
=======================================================================

   base      :      30000. kBytes
   nonlr-proj:      13680. kBytes
   fftplans  :       1275. kBytes
   grid      :      22786. kBytes
   one-center:       2737. kBytes
   wavefun   :      23961. kBytes
 
  
  
 General timing and accounting informations for this job:
 ========================================================
  
                  Total CPU time used (sec):      806.869
                            User time (sec):      798.760
                          System time (sec):        8.109
                         Elapsed time (sec):      825.812
  
                   Maximum memory used (kb):      193024.
                   Average memory used (kb):           0.
  
                          Minor page faults:       352267
                          Major page faults:            0
                 Voluntary context switches:       276112
