 vasp.5.4.4.18Apr17-6-g9f103f2a35 (build Dec 02 2020 12:53:39) complex          
  
 executed on             LinuxIFC date 2021.08.04  06:31:14
 running on  112 total cores
 distrk:  each k-point on  112 cores,    1 groups
 distr:  one band on NCORES_PER_BAND=   1 cores,  112 groups


--------------------------------------------------------------------------------------------------------


 INCAR:
 POTCAR:    PAW_PBE Na_pv 19Sep2006               
 POTCAR:    PAW_PBE Mg_pv 13Apr2007               
 POTCAR:    PAW_PBE Mn_pv 02Aug2007               
 POTCAR:    PAW_PBE O 08Apr2002                   

 ----------------------------------------------------------------------------- 
|                                                                             |
|           W    W    AA    RRRRR   N    N  II  N    N   GGGG   !!!           |
|           W    W   A  A   R    R  NN   N  II  NN   N  G    G  !!!           |
|           W    W  A    A  R    R  N N  N  II  N N  N  G       !!!           |
|           W WW W  AAAAAA  RRRRR   N  N N  II  N  N N  G  GGG   !            |
|           WW  WW  A    A  R   R   N   NN  II  N   NN  G    G                |
|           W    W  A    A  R    R  N    N  II  N    N   GGGG   !!!           |
|                                                                             |
|      For optimal performance we recommend to set                            |
|        NCORE= 4 - approx SQRT( number of cores)                             |
|      NCORE specifies how many cores store one orbital (NPAR=cpu/NCORE).     |
|      This setting can  greatly improve the performance of VASP for DFT.     |
|      The default,   NCORE=1            might be grossly inefficient         |
|      on modern multi-core architectures or massively parallel machines.     |
|      Do your own testing !!!!                                               |
|      Unfortunately you need to use the default for GW and RPA calculations. |
|      (for HF NCORE is supported but not extensively tested yet)             |
|                                                                             |
 ----------------------------------------------------------------------------- 

 POTCAR:    PAW_PBE Na_pv 19Sep2006               
   VRHFIN =Na: p6s1                                                             
   LEXCH  = PE                                                                  
   EATOM  =   766.0439 eV,   56.3026 Ry                                         
                                                                                
   TITEL  = PAW_PBE Na_pv 19Sep2006                                             
   LULTRA =        F    use ultrasoft PP ?                                      
   IUNSCR =        1    unscreen: 0-lin 1-nonlin 2-no                           
   RPACOR =    1.800    partial core radius                                     
   POMASS =   22.990; ZVAL   =    7.000    mass and valenz                      
   RCORE  =    2.200    outmost cutoff radius                                   
   RWIGS  =    2.200; RWIGS  =    1.164    wigner-seitz radius (au A)           
   ENMAX  =  259.561; ENMIN  =  194.671 eV                                      
   ICORE  =        2    local potential                                         
   LCOR   =        T    correct aug charges                                     
   LPAW   =        T    paw PP                                                  
   EAUG   =  368.056                                                            
   DEXC   =    0.000                                                            
   RMAX   =    2.245    core radius for proj-oper                               
   RAUG   =    1.300    factor for augmentation sphere                          
   RDEP   =    2.259    radius for radial grids                                 
   RDEPT  =    1.738    core radius for aug-charge                              
                                                                                
   Atomic configuration                                                         
    5 entries                                                                   
     n  l   j            E        occ.                                          
     1  0  0.50     -1033.6933   2.0000                                         
     2  0  0.50       -56.7526   2.0000                                         
     2  1  1.50       -28.6721   6.0000                                         
     3  0  0.50        -2.7440   1.0000                                         
     3  2  1.50        -1.3606   0.0000                                         
   Description                                                                  
     l       E           TYP  RCUT    TYP  RCUT                                 
     1    -28.6720912     23  2.000                                             
     1      6.8029130     23  2.000                                             
     0     -2.7439560     23  2.200                                             
     0     34.0145650     23  2.200                                             
     2     -1.3605826     23  2.200                                             
  local pseudopotential read in
  partial core-charges read in
  partial kinetic energy density read in
  atomic valenz-charges read in
  non local Contribution for L=           1  read in
    real space projection operators read in
  non local Contribution for L=           1  read in
    real space projection operators read in
  non local Contribution for L=           0  read in
    real space projection operators read in
  non local Contribution for L=           0  read in
    real space projection operators read in
    PAW grid and wavefunctions read in
 
   number of l-projection  operators is LMAX  =           4
   number of lm-projection operators is LMMAX =           8
 
 POTCAR:    PAW_PBE Mg_pv 13Apr2007               
   VRHFIN =Mg: p6s2                                                             
   LEXCH  = PE                                                                  
   EATOM  =  1056.7344 eV,   77.6678 Ry                                         
                                                                                
   TITEL  = PAW_PBE Mg_pv 13Apr2007                                             
   LULTRA =        F    use ultrasoft PP ?                                      
   IUNSCR =        1    unscreen: 0-lin 1-nonlin 2-no                           
   RPACOR =    1.500    partial core radius                                     
   POMASS =   24.305; ZVAL   =    8.000    mass and valenz                      
   RCORE  =    2.000    outmost cutoff radius                                   
   RWIGS  =    2.000; RWIGS  =    1.058    wigner-seitz radius (au A)           
   ENMAX  =  403.929; ENMIN  =  302.947 eV                                      
   RCLOC  =    1.506    cutoff for local pot                                    
   LCOR   =        T    correct aug charges                                     
   LPAW   =        T    paw PP                                                  
   EAUG   =  758.780                                                            
   DEXC   =    0.000                                                            
   RMAX   =    2.045    core radius for proj-oper                               
   RAUG   =    1.300    factor for augmentation sphere                          
   RDEP   =    2.025    radius for radial grids                                 
   RDEPT  =    1.557    core radius for aug-charge                              
                                                                                
   Atomic configuration                                                         
    5 entries                                                                   
     n  l   j            E        occ.                                          
     1  0  0.50     -1259.6230   2.0000                                         
     2  0  0.50       -79.8442   2.0000                                         
     2  1  1.50       -46.6121   6.0000                                         
     3  0  0.50        -4.7055   2.0000                                         
     3  2  1.50        -1.3606   0.0000                                         
   Description                                                                  
     l       E           TYP  RCUT    TYP  RCUT                                 
     1    -46.6121073     23  1.600                                             
     1      2.7211652     23  1.600                                             
     0     -4.7054661     23  2.000                                             
     0     61.2262170     23  2.000                                             
     2     -1.3605826     23  2.000                                             
  local pseudopotential read in
  partial core-charges read in
  partial kinetic energy density read in
  atomic valenz-charges read in
  non local Contribution for L=           1  read in
    real space projection operators read in
  non local Contribution for L=           1  read in
    real space projection operators read in
  non local Contribution for L=           0  read in
    real space projection operators read in
  non local Contribution for L=           0  read in
    real space projection operators read in
  non local Contribution for L=           2  read in
    real space projection operators read in
    PAW grid and wavefunctions read in
 
   number of l-projection  operators is LMAX  =           5
   number of lm-projection operators is LMMAX =          13
 
 POTCAR:    PAW_PBE Mn_pv 02Aug2007               
   VRHFIN =Mn: 3p4s3d                                                           
   LEXCH  = PE                                                                  
   EATOM  =  2025.2664 eV,  148.8529 Ry                                         
                                                                                
   TITEL  = PAW_PBE Mn_pv 02Aug2007                                             
   LULTRA =        F    use ultrasoft PP ?                                      
   IUNSCR =        1    unscreen: 0-lin 1-nonlin 2-no                           
   RPACOR =    2.080    partial core radius                                     
   POMASS =   54.938; ZVAL   =   13.000    mass and valenz                      
   RCORE  =    2.300    outmost cutoff radius                                   
   RWIGS  =    2.500; RWIGS  =    1.323    wigner-seitz radius (au A)           
   ENMAX  =  269.864; ENMIN  =  202.398 eV                                      
   ICORE  =        3    local potential                                         
   LCOR   =        T    correct aug charges                                     
   LPAW   =        T    paw PP                                                  
   EAUG   =  569.085                                                            
   DEXC   =    0.000                                                            
   RMAX   =    2.343    core radius for proj-oper                               
   RAUG   =    1.300    factor for augmentation sphere                          
   RDEP   =    2.338    radius for radial grids                                 
   RDEPT  =    1.798    core radius for aug-charge                              
                                                                                
   Atomic configuration                                                         
    8 entries                                                                   
     n  l   j            E        occ.                                          
     1  0  0.50     -6424.8287   2.0000                                         
     2  0  0.50      -739.1154   2.0000                                         
     2  1  1.50      -625.3949   6.0000                                         
     3  0  0.50       -81.6100   2.0000                                         
     3  1  1.50       -50.4667   6.0000                                         
     3  2  2.50        -3.3745   6.0000                                         
     4  0  0.50        -4.1331   1.0000                                         
     4  3  2.50        -1.3606   0.0000                                         
   Description                                                                  
     l       E           TYP  RCUT    TYP  RCUT                                 
     1    -50.4666628     23  2.000                                             
     1     -1.3605826     23  2.000                                             
     2     -3.3744729     23  2.300                                             
     2     -4.7350555     23  2.300                                             
     0     -4.1331431     23  2.300                                             
     0      7.6656591     23  2.300                                             
     3      9.5240782     23  2.300                                             
  local pseudopotential read in
  partial core-charges read in
  partial kinetic energy density read in
  atomic valenz-charges read in
  non local Contribution for L=           1  read in
    real space projection operators read in
  non local Contribution for L=           1  read in
    real space projection operators read in
  non local Contribution for L=           2  read in
    real space projection operators read in
  non local Contribution for L=           2  read in
    real space projection operators read in
  non local Contribution for L=           0  read in
    real space projection operators read in
  non local Contribution for L=           0  read in
    real space projection operators read in
    PAW grid and wavefunctions read in
 
   number of l-projection  operators is LMAX  =           6
   number of lm-projection operators is LMMAX =          18
 
 POTCAR:    PAW_PBE O 08Apr2002                   
   VRHFIN =O: s2p4                                                              
   LEXCH  = PE                                                                  
   EATOM  =   432.3788 eV,   31.7789 Ry                                         
                                                                                
   TITEL  = PAW_PBE O 08Apr2002                                                 
   LULTRA =        F    use ultrasoft PP ?                                      
   IUNSCR =        1    unscreen: 0-lin 1-nonlin 2-no                           
   RPACOR =    1.200    partial core radius                                     
   POMASS =   16.000; ZVAL   =    6.000    mass and valenz                      
   RCORE  =    1.520    outmost cutoff radius                                   
   RWIGS  =    1.550; RWIGS  =    0.820    wigner-seitz radius (au A)           
   ENMAX  =  400.000; ENMIN  =  300.000 eV                                      
   ICORE  =        2    local potential                                         
   LCOR   =        T    correct aug charges                                     
   LPAW   =        T    paw PP                                                  
   EAUG   =  605.392                                                            
   DEXC   =    0.000                                                            
   RMAX   =    1.553    core radius for proj-oper                               
   RAUG   =    1.300    factor for augmentation sphere                          
   RDEP   =    1.550    radius for radial grids                                 
   RDEPT  =    1.329    core radius for aug-charge                              
                                                                                
   Atomic configuration                                                         
    4 entries                                                                   
     n  l   j            E        occ.                                          
     1  0  0.50      -514.6923   2.0000                                         
     2  0  0.50       -23.9615   2.0000                                         
     2  1  0.50        -9.0305   4.0000                                         
     3  2  1.50        -9.5241   0.0000                                         
   Description                                                                  
     l       E           TYP  RCUT    TYP  RCUT                                 
     0    -23.9615318     23  1.200                                             
     0     -9.5240782     23  1.200                                             
     1     -9.0304911     23  1.520                                             
     1      8.1634956     23  1.520                                             
     2     -9.5240782      7  1.500                                             
  local pseudopotential read in
  partial core-charges read in
  partial kinetic energy density read in
  kinetic energy density of atom read in
  atomic valenz-charges read in
  non local Contribution for L=           0  read in
    real space projection operators read in
  non local Contribution for L=           0  read in
    real space projection operators read in
  non local Contribution for L=           1  read in
    real space projection operators read in
  non local Contribution for L=           1  read in
    real space projection operators read in
    PAW grid and wavefunctions read in
 
   number of l-projection  operators is LMAX  =           4
   number of lm-projection operators is LMMAX =           8
 
 Optimization of the real space projectors (new method)

 maximal supplied QI-value         = 17.01
 optimisation between [QCUT,QGAM] = [ 10.20, 20.41] = [ 29.16,116.64] Ry 
 Optimized for a Real-space Cutoff    1.30 Angstroem

   l    n(q)    QCUT    max X(q) W(low)/X(q) W(high)/X(q)  e(spline) 
   1      7    10.205     4.940    0.23E-03    0.84E-03    0.11E-06
   1      7    10.205     6.253    0.40E-03    0.13E-02    0.18E-06
   0      8    10.205    37.438    0.23E-03    0.37E-03    0.42E-07
   0      8    10.205     9.606    0.16E-03    0.26E-03    0.31E-07
 Optimization of the real space projectors (new method)

 maximal supplied QI-value         = 18.90
 optimisation between [QCUT,QGAM] = [ 10.20, 20.41] = [ 29.16,116.64] Ry 
 Optimized for a Real-space Cutoff    1.26 Angstroem

   l    n(q)    QCUT    max X(q) W(low)/X(q) W(high)/X(q)  e(spline) 
   1      7    10.205     2.974    0.63E-04    0.14E-03    0.13E-06
   1      7    10.205     4.279    0.11E-03    0.45E-03    0.24E-06
   0      8    10.205    16.381    0.44E-03    0.15E-03    0.55E-07
   0      8    10.205     5.611    0.31E-03    0.11E-03    0.40E-07
   2      7    10.205     4.652    0.50E-03    0.47E-03    0.57E-07
 Optimization of the real space projectors (new method)

 maximal supplied QI-value         = 16.25
 optimisation between [QCUT,QGAM] = [ 10.24, 20.48] = [ 29.35,117.42] Ry 
 Optimized for a Real-space Cutoff    1.34 Angstroem

   l    n(q)    QCUT    max X(q) W(low)/X(q) W(high)/X(q)  e(spline) 
   1      8    10.239     3.658    0.23E-03    0.30E-03    0.98E-07
   1      8    10.239     5.612    0.32E-03    0.65E-03    0.21E-06
   2      7    10.239    55.373    0.42E-03    0.45E-03    0.65E-07
   2      7    10.239    50.863    0.43E-03    0.48E-03    0.67E-07
   0      8    10.239    79.536    0.11E-03    0.21E-03    0.56E-07
   0      8    10.239    38.668    0.96E-04    0.19E-03    0.52E-07
 Optimization of the real space projectors (new method)

 maximal supplied QI-value         = 24.76
 optimisation between [QCUT,QGAM] = [ 10.15, 20.30] = [ 28.85,115.39] Ry 
 Optimized for a Real-space Cutoff    1.38 Angstroem

   l    n(q)    QCUT    max X(q) W(low)/X(q) W(high)/X(q)  e(spline) 
   0      8    10.150    20.381    0.22E-03    0.32E-03    0.29E-06
   0      8    10.150    15.268    0.23E-03    0.35E-03    0.30E-06
   1      8    10.150     5.964    0.46E-03    0.53E-03    0.21E-06
   1      8    10.150     5.382    0.38E-03    0.45E-03    0.19E-06
  PAW_PBE Na_pv 19Sep2006               :
 energy of atom  1       EATOM= -766.0439
 kinetic energy error for atom=    0.0103 (will be added to EATOM!!)
  PAW_PBE Mg_pv 13Apr2007               :
 energy of atom  2       EATOM=-1056.7344
 kinetic energy error for atom=    0.0820 (will be added to EATOM!!)
  PAW_PBE Mn_pv 02Aug2007               :
 energy of atom  3       EATOM=-2025.2664
 kinetic energy error for atom=    0.0284 (will be added to EATOM!!)
  PAW_PBE O 08Apr2002                   :
 energy of atom  4       EATOM= -432.3788
 kinetic energy error for atom=    0.1156 (will be added to EATOM!!)
 
 
 POSCAR: Na Mg Mn  O                             
  positions in cartesian coordinates
  No initial velocities read in

 METAGGA = SCAN     LMAXTAU =  6    LMIXTAU =  F

 exchange correlation table for  LEXCH =        8
   RHO(1)=    0.500       N(1)  =     2000
   RHO(2)=  100.500       N(2)  =     4000

 VTST: version 3.2, (02/03/18)

 CHAIN: initializing optimizer
 
 OPT: Using VASP Dynamics algorithm
 CHAIN: Read ICHAIN            0
 
 POSCAR: Na Mg Mn  O                             
  positions in cartesian coordinates
  No initial velocities read in
 


--------------------------------------------------------------------------------------------------------


 ion  position               nearest neighbor table
   1  0.696  0.060  0.249-  53 2.26  62 2.28  29 2.83  31 2.88
   2  0.149  0.562  0.749-  70 2.28  73 2.33  39 2.82  37 2.84
   3  0.468  0.047  0.755-  47 2.29
   4  0.865  0.715  0.739-  69 2.22  68 2.27
   5  0.978  0.374  0.250-  53 2.26  75 2.29
   6  0.681  0.527  0.250-  43 2.22  52 2.22  33 2.93  35 2.95
   7  0.673  0.393  0.753-  68 2.24  48 2.29
   8  0.143  0.056  0.760-  61 2.24  72 2.26  25 2.79
   9  0.349  0.051  0.251-
  10  0.399  0.609  0.256-  86 2.28  87 2.30  77 2.33  78 2.37
  11  0.198  0.250  0.241-  55 2.28  64 2.29  41 2.31  50 2.35
  12  0.905  0.221  0.750-  59 2.19  56 2.32  57 2.36  60 2.38
  13  0.669  0.897  0.745-  56 2.23  84 2.26  81 2.37
  14  0.454  0.516  0.750-  45 2.26  48 2.29  83 2.32
  15  0.914  0.882  0.236-  54 2.22  65 2.24  63 2.27
  16  0.175  0.710  0.250-  86 2.32  66 2.33  75 2.35  77 2.37
  17  0.827  0.386  0.006-  71 1.95  43 1.99  53 2.00  49 2.03  66 2.12  60 2.17  29 2.83  26 2.83

  18  0.502  0.225  0.502-  46 2.02  45 2.03  52 2.03  50 2.06  44 2.08  51 2.15  28 2.84  32 2.84
                            35 2.84
  19  0.340  0.390  0.991-  48 2.00  78 2.00  41 2.02  83 2.03  61 2.13  55 2.19  33 2.82
  20  0.004  0.211  0.492-  63 1.99  64 2.03  58 2.05  62 2.06  56 2.11  57 2.21  32 2.75
  21  0.336  0.884  0.993-  47 2.00  73 2.02  77 2.06  42 2.08  84 2.12  67 2.15  37 2.80  38 2.83

  22  0.999  0.705  0.500-  75 2.02  69 2.03  76 2.08  70 2.08  68 2.09  74 2.12  39 2.75  28 2.83

  23  0.829  0.879  0.993-  79 1.98  72 1.98  65 2.00  85 2.05  59 2.15  54 2.19  33 2.82  34 2.84
                            38 2.85
  24  0.495  0.715  0.513-  88 1.99  82 2.00  86 2.05  81 2.08  80 2.11  87 2.24  36 2.84
  25  0.160  0.050  0.008-  54 1.83  67 1.86  72 1.91  41 1.95  47 1.96  61 1.99   8 2.79  34 2.82
                            30 2.94  26 2.95
  26  0.501  0.220  0.001-  43 1.87  42 1.91  41 1.92  47 1.96  49 1.96  48 2.06  17 2.83  29 2.89
                            33 2.90  25 2.95
  27  0.165  0.041  0.493-  58 1.89  44 1.90  50 1.90  76 1.93  69 2.00  63 2.05  36 2.85  32 2.87
                            40 2.90
  28  0.829  0.379  0.503-  57 1.84  52 1.91  68 1.92  46 1.95  62 1.95  75 2.10  31 2.82  22 2.83
                            18 2.84  39 2.91  35 2.96
  29  0.675  0.061  0.998-  59 1.87  84 1.89  42 1.89  49 1.95  53 1.96  79 2.02  17 2.83   1 2.83
                            26 2.89  30 2.90  38 2.93
  30  0.008  0.236  0.006-  60 1.84  61 1.88  55 1.91  59 1.96  53 1.96  54 2.03  37 2.82  29 2.90
                            25 2.94
  31  0.664  0.053  0.505-  88 1.84  51 1.89  62 1.90  46 1.95  81 1.97  56 2.04  28 2.82  36 2.87
                             1 2.88  40 2.95
  32  0.322  0.372  0.489-  87 1.86  50 1.87  58 1.90  64 1.90  80 1.97  45 2.04  20 2.75  18 2.84
                            27 2.87  39 2.94  35 2.97
  33  0.665  0.554  0.992-  48 1.87  65 1.91  43 1.92  85 1.92  71 1.93  78 1.93  23 2.82  19 2.82
                            38 2.89  26 2.90   6 2.93  34 2.93
  34  0.003  0.725  0.998-  73 1.85  72 1.91  71 1.91  66 1.94  67 1.95  65 1.97  25 2.82  23 2.84
                            37 2.88  33 2.93
  35  0.662  0.553  0.511-  82 1.85  45 1.90  52 1.92  68 1.96  87 1.96  74 1.96  18 2.84  40 2.84
                             6 2.95  28 2.96  32 2.97
  36  0.333  0.881  0.503-  70 1.82  44 1.83  81 1.90  51 1.90  76 1.92  86 1.97  24 2.84  39 2.85
                            27 2.85  31 2.87
  37  0.171  0.562  0.002-  66 1.84  60 1.89  77 1.89  73 1.92  83 1.93  55 1.98  21 2.80  30 2.82
                             2 2.84  38 2.87  34 2.88
  38  0.501  0.723  0.995-  79 1.89  83 1.91  85 1.96  77 1.96  78 1.98  84 2.00  21 2.83  23 2.85
                            37 2.87  33 2.89  29 2.93
  39  0.164  0.553  0.499-  80 1.86  75 1.87  86 1.91  57 1.92  70 1.93  64 2.08  22 2.75   2 2.82
                            36 2.85  28 2.91  32 2.94
  40  0.831  0.880  0.507-  63 1.89  56 1.90  69 1.91  74 1.92  82 2.01  88 2.03  35 2.84  27 2.90
                            31 2.95
  41  0.336  0.219  0.089-  26 1.92  25 1.95  19 2.02  11 2.31
  42  0.516  0.064  0.087-  29 1.89  26 1.91  21 2.08
  43  0.650  0.388  0.087-  26 1.87  33 1.92  17 1.99   6 2.22
  44  0.322  0.034  0.584-  36 1.83  27 1.90  18 2.08
  45  0.495  0.393  0.597-  35 1.90  18 2.03  32 2.04  14 2.26
  46  0.667  0.218  0.600-  31 1.95  28 1.95  18 2.02
  47  0.327  0.057  0.912-  25 1.96  26 1.96  21 2.00   3 2.29
  48  0.514  0.397  0.898-  33 1.87  19 2.00  26 2.06  14 2.29   7 2.29
  49  0.663  0.218  0.903-  29 1.95  26 1.96  17 2.03
  50  0.320  0.209  0.405-  32 1.87  27 1.90  18 2.06  11 2.35
  51  0.498  0.034  0.412-  31 1.89  36 1.90  18 2.15
  52  0.680  0.404  0.416-  28 1.91  35 1.92  18 2.03   6 2.22
  53  0.834  0.220  0.099-  29 1.96  30 1.96  17 2.00   5 2.26   1 2.26
  54  0.014  0.063  0.096-  25 1.83  30 2.03  23 2.19  15 2.22
  55  0.164  0.396  0.102-  30 1.91  37 1.98  19 2.19  11 2.28
  56  0.830  0.038  0.599-  40 1.90  31 2.04  20 2.11  13 2.23  12 2.32
  57  0.995  0.398  0.589-  28 1.84  39 1.92  20 2.21  12 2.36
  58  0.178  0.205  0.585-  27 1.89  32 1.90  20 2.05
  59  0.841  0.078  0.910-  29 1.87  30 1.96  23 2.15  12 2.19
  60  0.020  0.393  0.913-  30 1.84  37 1.89  17 2.17  12 2.38
  61  0.143  0.205  0.908-  30 1.88  25 1.99  19 2.13   8 2.24
  62  0.820  0.210  0.410-  31 1.90  28 1.95  20 2.06   1 2.28
  63  0.982  0.028  0.404-  40 1.89  20 1.99  27 2.05  15 2.27
  64  0.171  0.385  0.395-  32 1.90  20 2.03  39 2.08  11 2.29
  65  0.826  0.709  0.088-  33 1.91  34 1.97  23 2.00  15 2.24
  66  0.021  0.571  0.090-  37 1.84  34 1.94  17 2.12  16 2.33
  67  0.158  0.892  0.096-  25 1.86  34 1.95  21 2.15
  68  0.819  0.532  0.600-  28 1.92  35 1.96  22 2.09   7 2.24   4 2.27
  69  0.995  0.877  0.591-  40 1.91  27 2.00  22 2.03   4 2.22
  70  0.187  0.724  0.594-  36 1.82  39 1.93  22 2.08   2 2.28
  71  0.838  0.557  0.914-  34 1.91  33 1.93  17 1.95
  72  0.009  0.891  0.909-  34 1.91  25 1.91  23 1.98   8 2.26
  73  0.152  0.713  0.909-  34 1.85  37 1.92  21 2.02   2 2.33
  74  0.818  0.716  0.410-  40 1.92  35 1.96  22 2.12
  75  0.011  0.544  0.399-  39 1.87  22 2.02  28 2.10   5 2.29  16 2.35
  76  0.177  0.882  0.404-  36 1.92  27 1.93  22 2.08
  77  0.335  0.712  0.094-  37 1.89  38 1.96  21 2.06  10 2.33  16 2.37
  78  0.508  0.559  0.088-  33 1.93  38 1.98  19 2.00  10 2.37
  79  0.662  0.879  0.086-  38 1.89  23 1.98  29 2.02
  80  0.303  0.523  0.589-  39 1.86  32 1.97  24 2.11
  81  0.494  0.897  0.602-  36 1.90  31 1.97  24 2.08  13 2.37
  82  0.664  0.707  0.602-  35 1.85  24 2.00  40 2.01
  83  0.333  0.565  0.906-  38 1.91  37 1.93  19 2.03  14 2.32
  84  0.528  0.903  0.899-  29 1.89  38 2.00  21 2.12  13 2.26
  85  0.653  0.706  0.896-  33 1.92  38 1.96  23 2.05
  86  0.327  0.713  0.407-  39 1.91  36 1.97  24 2.05  10 2.28  16 2.32
  87  0.492  0.523  0.408-  32 1.86  35 1.96  24 2.24  10 2.30
  88  0.659  0.893  0.423-  31 1.84  24 1.99  40 2.03
 
  LATTYP: Found a hexagonal cell.
 ALAT       =    10.0190000534
 C/A-ratio  =     1.1196726572
  
  Lattice vectors:
  
 A1 = (  10.0190000534,   0.0000000000,   0.0000000000)
 A2 = (  -5.0095000267,   8.6767085668,   0.0000000000)
 A3 = (   0.0000000000,   0.0000000000,  11.2180004120)


Analysis of symmetry for initial positions (statically):
=====================================================================
 Subroutine PRICEL returns:
 Original cell was already a primitive cell.
 

 Routine SETGRP: Setting up the symmetry group for a 
 hexagonal supercell.


 Subroutine GETGRP returns: Found  1 space group operations
 (whereof  1 operations were pure point group operations)
 out of a pool of 24 trial point group operations.


The static configuration has the point symmetry C_1 .


Analysis of symmetry for dynamics (positions and initial velocities):
=====================================================================
 Subroutine PRICEL returns:
 Original cell was already a primitive cell.
 

 Routine SETGRP: Setting up the symmetry group for a 
 hexagonal supercell.


 Subroutine GETGRP returns: Found  1 space group operations
 (whereof  1 operations were pure point group operations)
 out of a pool of 24 trial point group operations.


The dynamic configuration has the point symmetry C_1 .


Analysis of structural, dynamic, and magnetic symmetry:
=====================================================================
 Subroutine PRICEL returns:
 Original cell was already a primitive cell.
 

 Routine SETGRP: Setting up the symmetry group for a 
 hexagonal supercell.


 Subroutine GETGRP returns: Found  1 space group operations
 (whereof  1 operations were pure point group operations)
 out of a pool of 24 trial point group operations.


The magnetic configuration has the point symmetry C_1 .


 Subroutine INISYM returns: Found  1 space group operations
 (whereof  1 operations are pure point group operations),
 and found     1 'primitive' translations

 
 

Automatic generation of k-mesh.
 generate k-points for:    2    2    2
Space group operators:
 irot       det(A)        alpha          n_x          n_y          n_z        tau_x        tau_y        tau_z
    1     1.000000     0.000000     1.000000     0.000000     0.000000     0.000000     0.000000     0.000000
 
 Subroutine IBZKPT returns following result:
 ===========================================
 
 Found      8 irreducible k-points:
 
 Following reciprocal coordinates:
            Coordinates               Weight
  0.000000  0.000000  0.000000      1.000000
  0.500000 -0.000000 -0.000000      1.000000
  0.000000  0.500000  0.000000      1.000000
  0.500000  0.500000 -0.000000      1.000000
  0.000000  0.000000  0.500000      1.000000
  0.500000 -0.000000  0.500000      1.000000
  0.000000  0.500000  0.500000      1.000000
  0.500000  0.500000  0.500000      1.000000
 
 Following cartesian coordinates:
            Coordinates               Weight
  0.000000  0.000000  0.000000      1.000000
  0.049905  0.028813 -0.000000      1.000000
  0.000000  0.057626  0.000000      1.000000
  0.049905  0.086438 -0.000000      1.000000
  0.000000  0.000000  0.044571      1.000000
  0.049905  0.028813  0.044571      1.000000
  0.000000  0.057626  0.044571      1.000000
  0.049905  0.086438  0.044571      1.000000
 


--------------------------------------------------------------------------------------------------------




 Dimension of arrays:
   k-points           NKPTS =      8   k-points in BZ     NKDIM =      8   number of bands    NBANDS=    448
   number of dos      NEDOS =    301   number of ions     NIONS =     88
   non local maximal  LDIM  =      6   non local SUM 2l+1 LMDIM =     18
   total plane-waves  NPLWV = 140000
   max r-space proj   IRMAX =   1632   max aug-charges    IRDMAX=   4555
   dimension x,y,z NGX =    50 NGY =   50 NGZ =   56
   dimension x,y,z NGXF=   100 NGYF=  100 NGZF=  112
   support grid    NGXF=   100 NGYF=  100 NGZF=  112
   ions per type =              16   8  16  48
   NGX,Y,Z   is equivalent  to a cutoff of   8.30,  8.30,  8.30 a.u.
   NGXF,Y,Z  is equivalent  to a cutoff of  16.59, 16.59, 16.60 a.u.

 SYSTEM =  unknown system                          
 POSCAR =  Na Mg Mn  O                             

 Startparameter for this run:
   NWRITE =      2    write-flag & timer
   PREC   = normal    normal or accurate (medium, high low for compatibility)
   ISTART =      0    job   : 0-new  1-cont  2-samecut
   ICHARG =      1    charge: 1-file 2-atom 10-const
   ISPIN  =      2    spin polarized calculation?
   LNONCOLLINEAR =      F non collinear calculations
   LSORBIT =      F    spin-orbit coupling
   INIWAV =      1    electr: 0-lowe 1-rand  2-diag
   LASPH  =      T    aspherical Exc in radial PAW
   METAGGA=      F    non-selfconsistent MetaGGA calc.

 Electronic Relaxation 1
   ENCUT  =  400.0 eV  29.40 Ry    5.42 a.u.  16.34 16.34 18.29*2*pi/ulx,y,z
   ENINI  =  400.0     initial cutoff
   ENAUG  =  758.8 eV  augmentation charge cutoff
   NELM   =    200;   NELMIN=  6; NELMDL=-12     # of ELM steps 
   EDIFF  = 0.1E-04   stopping-criterion for ELM
   LREAL  =      T    real-space projection
   NLSPLINE    = F    spline interpolate recip. space projectors
   LCOMPAT=      F    compatible to vasp.4.4
   GGA_COMPAT  = T    GGA compatible to vasp.4.4-vasp.4.6
   LMAXPAW     = -100 max onsite density
   LMAXMIX     =    4 max onsite mixed and CHGCAR
   VOSKOWN=      0    Vosko Wilk Nusair interpolation
   ROPT   =   -0.00050  -0.00050  -0.00050  -0.00050
 Ionic relaxation
   EDIFFG = 0.1E-03   stopping-criterion for IOM
   NSW    =      1    number of steps for IOM
   NBLOCK =      1;   KBLOCK =      1    inner block; outer block 
   IBRION =     -1    ionic relax: 0-MD 1-quasi-New 2-CG
   NFREE  =      0    steps in history (QN), initial steepest desc. (CG)
   ISIF   =      2    stress and relaxation
   IWAVPR =     10    prediction:  0-non 1-charg 2-wave 3-comb
   ISYM   =      2    0-nonsym 1-usesym 2-fastsym
   LCORR  =      T    Harris-Foulkes like correction to forces

   POTIM  = 0.5000    time-step for ionic-motion
   TEIN   =    0.0    initial temperature
   TEBEG  =    0.0;   TEEND  =   0.0 temperature during run
   SMASS  =  -3.00    Nose mass-parameter (am)
   estimated Nose-frequenzy (Omega)   =  0.10E-29 period in steps =****** mass=  -0.229E-26a.u.
   SCALEE = 1.0000    scale energy and forces
   NPACO  =    256;   APACO  = 16.0  distance and # of slots for P.C.
   PSTRESS=    0.0 pullay stress

  Mass of Ions in am
   POMASS =  22.99 24.30 54.94 16.00
  Ionic Valenz
   ZVAL   =   7.00  8.00 13.00  6.00
  Atomic Wigner-Seitz radii
   RWIGS  =  -1.00 -1.00 -1.00 -1.00
  virtual crystal weights 
   VCA    =   1.00  1.00  1.00  1.00
   NELECT =     672.0000    total number of electrons
   NUPDOWN=      48.0000    fix difference up-down

 DOS related values:
   EMIN   =  10.00;   EMAX   =-10.00  energy-range for DOS
   EFERMI =   0.00
   ISMEAR =     0;   SIGMA  =   0.05  broadening in eV -4-tet -1-fermi 0-gaus

 Electronic relaxation 2 (details)
   IALGO  =     48    algorithm
   LDIAG  =      T    sub-space diagonalisation (order eigenvalues)
   LSUBROT=      F    optimize rotation matrix (better conditioning)
   TURBO    =      0    0=normal 1=particle mesh
   IRESTART =      0    0=no restart 2=restart with 2 vectors
   NREBOOT  =      0    no. of reboots
   NMIN     =      0    reboot dimension
   EREF     =   0.00    reference energy to select bands
   IMIX   =      4    mixing-type and parameters
     AMIX     =   0.40;   BMIX     =  1.00
     AMIX_MAG =   1.60;   BMIX_MAG =  1.00
     AMIN     =   0.10
     WC   =   100.;   INIMIX=   1;  MIXPRE=   1;  MAXMIX= -45

 Intra band minimization:
   WEIMIN = 0.0000     energy-eigenvalue tresh-hold
   EBREAK =  0.56E-08  absolut break condition
   DEPER  =   0.30     relativ break condition  

   TIME   =   0.40     timestep for ELM

  volume/ion in A,a.u.               =      11.08        74.78
  Fermi-wavevector in a.u.,A,eV,Ry     =   1.445993  2.732531 28.448379  2.090897
  Thomas-Fermi vector in A             =   2.564112
 
 Write flags
   LWAVE        =      F    write WAVECAR
   LDOWNSAMPLE  =      F    k-point downsampling of WAVECAR
   LCHARG       =      F    write CHGCAR
   LVTOT        =      F    write LOCPOT, total local potential
   LVHAR        =      F    write LOCPOT, Hartree potential only
   LELF         =      F    write electronic localiz. function (ELF)
   LORBIT       =     11    0 simple, 1 ext, 2 COOP (PROOUT), +10 PAW based schemes


 Dipole corrections
   LMONO  =      F    monopole corrections only (constant potential shift)
   LDIPOL =      F    correct potential (dipole corrections)
   IDIPOL =      0    1-x, 2-y, 3-z, 4-all directions 
   EPSILON=  1.0000000 bulk dielectric constant

 Exchange correlation treatment:
   GGA     =    --    GGA type
   LEXCH   =     8    internal setting for exchange type
   VOSKOWN=      0    Vosko Wilk Nusair interpolation
   LHFCALC =     F    Hartree Fock is set to
   LHFONE  =     F    Hartree Fock one center treatment
   AEXX    =    0.0000 exact exchange contribution

 Linear response parameters
   LEPSILON=     F    determine dielectric tensor
   LRPA    =     F    only Hartree local field effects (RPA)
   LNABLA  =     F    use nabla operator in PAW spheres
   LVEL    =     F    velocity operator in full k-point grid
   LINTERFAST=   F  fast interpolation
   KINTER  =     0    interpolate to denser k-point grid
   CSHIFT  =0.1000    complex shift for real part using Kramers Kronig
   OMEGAMAX=  -1.0    maximum frequency
   DEG_THRESHOLD= 0.2000000E-02 threshold for treating states as degnerate
   RTIME   =   -0.100 relaxation time in fs
  (WPLASMAI=    0.000 imaginary part of plasma frequency in eV, 0.658/RTIME)
   DFIELD  = 0.0000000 0.0000000 0.0000000 field for delta impulse in time
 
 Orbital magnetization related:
   ORBITALMAG=     F  switch on orbital magnetization
   LCHIMAG   =     F  perturbation theory with respect to B field
   DQ        =  0.001000  dq finite difference perturbation B field
   LLRAUG    =     F  two centre corrections for induced B field



--------------------------------------------------------------------------------------------------------


 Static calculation
 charge density and potential will be updated during run
 spin polarized calculation
 RMM-DIIS sequential band-by-band
 perform sub-space diagonalisation
    before iterative eigenvector-optimisation
 modified Broyden-mixing scheme, WC =      100.0
 initial mixing is a Kerker type mixing with AMIX =  0.4000 and BMIX =      1.0000
 Hartree-type preconditioning will be used
 using additional bands          112
 real space projection scheme for non local part
 use partial core corrections
 calculate Harris-corrections to forces 
   (improved forces if not selfconsistent)
 use gradient corrections 
 use of overlap-Matrix (Vanderbilt PP)
 Gauss-broadening in eV      SIGMA  =   0.05


--------------------------------------------------------------------------------------------------------


  energy-cutoff  :      400.00
  volume of cell :      975.20
      direct lattice vectors                 reciprocal lattice vectors
    10.019000053  0.000000000  0.000000000     0.099810360  0.057625538 -0.000000000
    -5.009500027  8.676708567  0.000000000     0.000000000  0.115251076  0.000000000
     0.000000000  0.000000000 11.218000412     0.000000000  0.000000000  0.089142446

  length of vectors
    10.019000053 10.019000053 11.218000412     0.115251076  0.115251076  0.089142446


 
 k-points in units of 2pi/SCALE and weight: read from INCAR                         
   0.00000000  0.00000000  0.00000000       0.125
   0.04990518  0.02881277 -0.00000000       0.125
   0.00000000  0.05762554  0.00000000       0.125
   0.04990518  0.08643831 -0.00000000       0.125
   0.00000000  0.00000000  0.04457122       0.125
   0.04990518  0.02881277  0.04457122       0.125
   0.00000000  0.05762554  0.04457122       0.125
   0.04990518  0.08643831  0.04457122       0.125
 
 k-points in reciprocal lattice and weights: read from INCAR                         
   0.00000000  0.00000000  0.00000000       0.125
   0.50000000 -0.00000000 -0.00000000       0.125
   0.00000000  0.50000000  0.00000000       0.125
   0.50000000  0.50000000 -0.00000000       0.125
   0.00000000  0.00000000  0.50000000       0.125
   0.50000000 -0.00000000  0.50000000       0.125
   0.00000000  0.50000000  0.50000000       0.125
   0.50000000  0.50000000  0.50000000       0.125
 
 position of ions in fractional coordinates (direct lattice) 
   0.69573331  0.06031582  0.24925387
   0.14879111  0.56209959  0.74935904
   0.46823363  0.04733658  0.75540735
   0.86505785  0.71472494  0.73850862
   0.97768315  0.37365156  0.25003208
   0.68094120  0.52664934  0.25021037
   0.67328496  0.39276217  0.75308876
   0.14252678  0.05562149  0.75985734
   0.34868239  0.05145203  0.25068282
   0.39863398  0.60924518  0.25625601
   0.19827690  0.24978267  0.24123996
   0.90469346  0.22132422  0.74977890
   0.66933546  0.89687038  0.74461042
   0.45433914  0.51582463  0.75027275
   0.91380873  0.88213388  0.23597521
   0.17511981  0.71021566  0.25045016
   0.82677214  0.38625015  0.00629610
   0.50192389  0.22520521  0.50157424
   0.34040119  0.38982524  0.99112138
   0.00426019  0.21100167  0.49239881
   0.33599855  0.88444944  0.99334889
   0.99866459  0.70460935  0.49976732
   0.82914269  0.87874451  0.99267022
   0.49507243  0.71512140  0.51260561
   0.16044343  0.04991771  0.00811216
   0.50077120  0.22022291  0.00061095
   0.16534248  0.04103330  0.49345693
   0.82921343  0.37859057  0.50345069
   0.67481751  0.06080779  0.99792311
   0.00827369  0.23646755  0.00628451
   0.66413618  0.05340262  0.50509091
   0.32169745  0.37164323  0.48890175
   0.66534583  0.55398542  0.99160084
   0.00285565  0.72532804  0.99783247
   0.66197511  0.55259779  0.51121054
   0.33295895  0.88065191  0.50306737
   0.17073358  0.56159890  0.00165448
   0.50093483  0.72289970  0.99457952
   0.16403756  0.55275223  0.49873148
   0.83120976  0.88018976  0.50689693
   0.33636329  0.21894477  0.08896701
   0.51622592  0.06391606  0.08664664
   0.65047617  0.38829240  0.08701283
   0.32192701  0.03406262  0.58354517
   0.49521483  0.39309261  0.59733908
   0.66665101  0.21757790  0.59982615
   0.32695233  0.05703073  0.91199854
   0.51415617  0.39688206  0.89780706
   0.66260296  0.21807348  0.90349435
   0.31967032  0.20930172  0.40488499
   0.49809572  0.03380676  0.41160811
   0.67965437  0.40370838  0.41561418
   0.83447807  0.21990136  0.09915671
   0.01385505  0.06317073  0.09646015
   0.16361817  0.39579409  0.10182207
   0.83018306  0.03812637  0.59941966
   0.99485947  0.39767384  0.58924851
   0.17804939  0.20535898  0.58536368
   0.84100685  0.07829478  0.91009981
   0.01962438  0.39268923  0.91334459
   0.14263611  0.20496482  0.90832587
   0.82042541  0.21009925  0.41019699
   0.98154835  0.02837267  0.40372168
   0.17073606  0.38486368  0.39468977
   0.82623692  0.70872497  0.08765644
   0.02112436  0.57132148  0.09003744
   0.15811328  0.89157541  0.09582367
   0.81923190  0.53216378  0.59969065
   0.99490545  0.87735458  0.59146102
   0.18724484  0.72426312  0.59354250
   0.83843832  0.55703035  0.91431624
   0.00916715  0.89079862  0.90932427
   0.15238023  0.71261354  0.90929752
   0.81826605  0.71625663  0.41028435
   0.01078897  0.54418101  0.39909162
   0.17688959  0.88206143  0.40428061
   0.33518255  0.71245334  0.09389909
   0.50816336  0.55852055  0.08768844
   0.66192626  0.87899576  0.08620966
   0.30258454  0.52303474  0.58885361
   0.49403965  0.89668795  0.60209037
   0.66363888  0.70733965  0.60172132
   0.33268511  0.56465997  0.90612405
   0.52834221  0.90310282  0.89901049
   0.65324177  0.70644761  0.89611336
   0.32665266  0.71283482  0.40737296
   0.49189578  0.52328253  0.40780173
   0.65906552  0.89272331  0.42250934
 
 position of ions in cartesian coordinates  (Angst):
   6.66839992  0.52334283  2.79613000
  -1.32509971  4.87717430  8.40631000
   4.45410019  0.41072570  8.47416000
   5.08660000  6.20146000  8.28459000
   7.92360005  3.24206573  2.80486000
   4.18410000  4.56958287  2.80686000
   4.77809995  3.40788287  8.44815000
   1.14933997  0.48261143  8.52408000
   3.23569989  0.44643427  2.81216000
   0.94190013  5.28624283  2.87468000
   0.73524997  2.16729143  2.70623000
   7.95540011  1.92036573  8.41102000
   2.21319984  7.78188287  8.35304000
   1.96800037  4.47566000  8.41656000
   4.73640008  7.65401857  2.64717000
  -1.80330000  6.16233427  2.80955000
   6.34851000  3.35138000  0.07062970
   3.90061000  1.95404000  5.62666000
   1.45765000  3.38240000 11.11840000
  -1.01433005  1.83080000  5.52373000
  -1.06428000  7.67411000 11.14338821
   6.47588000  6.11369000  5.60639000
   3.90511000  7.62461000 11.13577491
   1.37773000  6.20490000  5.75041000
   1.35741997  0.43312143  0.09100220
   3.91402000  1.91081000  0.00685360
   1.45101000  0.35603400  5.53560000
   6.41134000  3.28492000  5.64771000
   6.45638003  0.52761143 11.19470191
  -1.10169005  2.05176000  0.07049959
   6.38646000  0.46335900  5.66611000
   1.36134000  3.22464000  5.48450000
   3.89091000  4.80677000 11.12377861
  -3.60492005  6.29346000 11.19368501
   3.86409000  4.79473000  5.73476000
  -1.07571000  7.64116000  5.64341000
  -1.10275000  4.87283000  0.01856000
   1.39750000  6.27239000 11.15719351
  -1.12552000  4.79607000  5.59477000
   3.91858000  7.63715000  5.68637000
   2.27322000  1.89972000  0.99803200
   4.85188000  0.55458100  0.97200200
   4.57197000  3.36910000  0.97611000
   3.05475003  0.29555143  6.54621000
   2.99236000  3.41075000  6.70095000
   5.58922000  1.88786000  6.72885000
   2.99004000  0.49483900 10.23080000
   3.16315000  3.44363000 10.07160000
   5.54618000  1.89216000 10.13540000
   2.15428000  1.81605000  4.54200000
   4.82106603  0.29333143  4.61742000
   4.78708000  3.50286000  4.66236000
   7.25904000  1.90802000  1.11234000
  -0.17764005  0.54811400  1.08209000
  -0.34344005  3.43419000  1.14224000
   8.12661003  0.33081143  6.72429000
   7.97535000  3.45050000  6.61019000
   0.75513100  1.78184000  6.56661000
   8.03383000  0.67934100 10.20950000
  -1.77056005  3.40725000 10.24590000
   0.40229995  1.77842000 10.18960000
   7.16735000  1.82297000  4.60159000
   9.69200003  0.24618143  4.52895000
  -0.21737000  3.33935000  4.42763000
   4.72771000  6.14940000  0.98333000
  -2.65039005  4.95719000  1.01004000
  -2.88221005  7.73594000  1.07495000
   5.54201000  4.61743000  6.72733000
   5.57285000  7.61255000  6.63501000
  -1.75219000  6.28422000  6.65836000
   5.60987000  4.83319000 10.25680000
  -4.37061005  7.72920000 10.20080000
  -2.04314005  6.18314000 10.20050000
   4.61012000  6.21475000  4.60257000
  -2.61798005  4.72170000  4.47701000
  -2.64643000  7.65339000  4.53522000
  -0.21084100  6.18175000  1.05336000
   2.29338000  4.84612000  0.98368900
   2.22851000  7.62679000  0.96710000
   0.41145200  4.53822000  6.60576000
   0.45782500  7.78030000  6.75425000
   3.10558000  6.13738000  6.75011000
   0.50450800  4.89939000 10.16490000
   0.76936700  7.83596000 10.08510000
   3.00588000  6.12964000 10.05260000
  -0.29821300  6.18506000  4.56991000
   2.30692000  4.54037000  4.57472000
   2.13108000  7.74590000  4.73971000
 


--------------------------------------------------------------------------------------------------------


 k-point  1 :   0.0000 0.0000 0.0000  plane waves:   17725
 k-point  2 :   0.5000-0.0000-0.0000  plane waves:   17736
 k-point  3 :   0.0000 0.5000 0.0000  plane waves:   17736
 k-point  4 :   0.5000 0.5000-0.0000  plane waves:   17736
 k-point  5 :   0.0000 0.0000 0.5000  plane waves:   17676
 k-point  6 :   0.5000-0.0000 0.5000  plane waves:   17700
 k-point  7 :   0.0000 0.5000 0.5000  plane waves:   17700
 k-point  8 :   0.5000 0.5000 0.5000  plane waves:   17700

 maximum and minimum number of plane-waves per node :     17736    17676

 maximum number of plane-waves:     17736
 maximum index in each direction: 
   IXMAX=   16   IYMAX=   16   IZMAX=   18
   IXMIN=  -16   IYMIN=  -16   IZMIN=  -18


 serial   3D FFT for wavefunctions
 parallel 3D FFT for charge:
    minimum data exchange during FFTs selected (reduces bandwidth)


 total amount of memory used by VASP MPI-rank0    88173. kBytes
=======================================================================

   base      :      30000. kBytes
   nonlr-proj:      13664. kBytes
   fftplans  :        992. kBytes
   grid      :      21513. kBytes
   one-center:       2737. kBytes
   wavefun   :      19267. kBytes
 
     INWAV:  cpu time    0.0000: real time    0.0001
 Broyden mixing: mesh for mixing (old mesh)
   NGX = 33   NGY = 33   NGZ = 37
  (NGX  =100   NGY  =100   NGZ  =112)
  gives a total of  40293 points

 initial charge density was supplied:
 charge density of overlapping atoms calculated
 number of electron     672.0000000 magnetization      48.0000000
 keeping initial charge density in first step


--------------------------------------------------------------------------------------------------------


 Maximum index for non-local projection operator         1546
 Maximum index for augmentation-charges          287 (set IRDMAX)


--------------------------------------------------------------------------------------------------------


 First call to EWALD:  gamma=   0.179
 Maximum number of real-space cells 3x 3x 2
 Maximum number of reciprocal cells 3x 3x 3

    FEWALD:  cpu time    0.0033: real time    0.0034


--------------------------------------- Iteration      1(   1)  ---------------------------------------


    POTLOK:  cpu time    0.2013: real time    0.2021
    SETDIJ:  cpu time    3.1039: real time    3.1104
    EDDIAG:  cpu time    3.7519: real time    3.7560
  RMM-DIIS:  cpu time    6.6097: real time    6.6132
    ORTHCH:  cpu time    1.2070: real time    1.2187
       DOS:  cpu time    0.0025: real time    0.0026
    --------------------------------------------
      LOOP:  cpu time   14.8763: real time   14.9031

 eigenvalue-minimisations  :  7168
 total energy-change (2. order) : 0.1878733E+04  (-0.3595636E+05)
 number of electron     672.0000000 magnetization      48.0000000
 augmentation part      672.0000000 magnetization      48.0000000

 Free energy of the ion-electron system (eV)
  ---------------------------------------------------
  alpha Z        PSCENC =      2652.81237852
  Ewald energy   TEWEN  =    -41785.35607552
  -Hartree energ DENC   =    -25823.97186686
  -exchange      EXHF   =         0.00000000
  -V(xc)+E(xc)   XCENC  =      3606.17420374
  PAW double counting   =     55594.23204139   -59034.67079123
  entropy T*S    EENTRO =        -0.07455200
  eigenvalues    EBANDS =     -7192.61071077
  atomic energy  EATOM  =     73862.19814772
  Solvation  Ediel_sol  =         0.00000000
  ---------------------------------------------------
  free energy    TOTEN  =      1878.73277498 eV

  energy without entropy =     1878.80732699  energy(sigma->0) =     1878.77005099


--------------------------------------------------------------------------------------------------------




--------------------------------------- Iteration      1(   2)  ---------------------------------------


    EDDIAG:  cpu time    3.7095: real time    3.7205
  RMM-DIIS:  cpu time    6.6531: real time    6.6549
    ORTHCH:  cpu time    1.1663: real time    1.1695
       DOS:  cpu time    0.0015: real time    0.0015
    --------------------------------------------
      LOOP:  cpu time   11.5304: real time   11.5463

 eigenvalue-minimisations  :  7168
 total energy-change (2. order) :-0.2724480E+04  (-0.8706220E+04)
 number of electron     672.0000000 magnetization      48.0000000
 augmentation part      672.0000000 magnetization      48.0000000

 Free energy of the ion-electron system (eV)
  ---------------------------------------------------
  alpha Z        PSCENC =      2652.81237852
  Ewald energy   TEWEN  =    -41785.35607552
  -Hartree energ DENC   =    -25823.97186686
  -exchange      EXHF   =         0.00000000
  -V(xc)+E(xc)   XCENC  =      3606.17420374
  PAW double counting   =     55594.23204139   -59034.67079123
  entropy T*S    EENTRO =        -0.05716325
  eigenvalues    EBANDS =     -9917.10815921
  atomic energy  EATOM  =     73862.19814772
  Solvation  Ediel_sol  =         0.00000000
  ---------------------------------------------------
  free energy    TOTEN  =      -845.74728469 eV

  energy without entropy =     -845.69012144  energy(sigma->0) =     -845.71870307


--------------------------------------------------------------------------------------------------------




--------------------------------------- Iteration      1(   3)  ---------------------------------------


    EDDIAG:  cpu time    3.7319: real time    3.7357
  RMM-DIIS:  cpu time    6.6175: real time    6.6313
    ORTHCH:  cpu time    1.1468: real time    1.1490
       DOS:  cpu time    0.0015: real time    0.0015
    --------------------------------------------
      LOOP:  cpu time   11.4978: real time   11.5175

 eigenvalue-minimisations  :  7168
 total energy-change (2. order) : 0.3129538E+03  (-0.1564571E+04)
 number of electron     672.0000000 magnetization      48.0000000
 augmentation part      672.0000000 magnetization      48.0000000

 Free energy of the ion-electron system (eV)
  ---------------------------------------------------
  alpha Z        PSCENC =      2652.81237852
  Ewald energy   TEWEN  =    -41785.35607552
  -Hartree energ DENC   =    -25823.97186686
  -exchange      EXHF   =         0.00000000
  -V(xc)+E(xc)   XCENC  =      3606.17420374
  PAW double counting   =     55594.23204139   -59034.67079123
  entropy T*S    EENTRO =        -0.06178450
  eigenvalues    EBANDS =     -9604.14976697
  atomic energy  EATOM  =     73862.19814772
  Solvation  Ediel_sol  =         0.00000000
  ---------------------------------------------------
  free energy    TOTEN  =      -532.79351371 eV

  energy without entropy =     -532.73172921  energy(sigma->0) =     -532.76262146


--------------------------------------------------------------------------------------------------------




--------------------------------------- Iteration      1(   4)  ---------------------------------------


    EDDIAG:  cpu time    3.7298: real time    3.7337
  RMM-DIIS:  cpu time    6.6565: real time    6.6616
    ORTHCH:  cpu time    1.1414: real time    1.1436
       DOS:  cpu time    0.0011: real time    0.0011
    --------------------------------------------
      LOOP:  cpu time   11.5287: real time   11.5400

 eigenvalue-minimisations  :  7168
 total energy-change (2. order) :-0.5248967E+03  (-0.5066988E+03)
 number of electron     672.0000000 magnetization      48.0000000
 augmentation part      672.0000000 magnetization      48.0000000

 Free energy of the ion-electron system (eV)
  ---------------------------------------------------
  alpha Z        PSCENC =      2652.81237852
  Ewald energy   TEWEN  =    -41785.35607552
  -Hartree energ DENC   =    -25823.97186686
  -exchange      EXHF   =         0.00000000
  -V(xc)+E(xc)   XCENC  =      3606.17420374
  PAW double counting   =     55594.23204139   -59034.67079123
  entropy T*S    EENTRO =        -0.00000075
  eigenvalues    EBANDS =    -10129.10822917
  atomic energy  EATOM  =     73862.19814772
  Solvation  Ediel_sol  =         0.00000000
  ---------------------------------------------------
  free energy    TOTEN  =     -1057.69019215 eV

  energy without entropy =    -1057.69019141  energy(sigma->0) =    -1057.69019178


--------------------------------------------------------------------------------------------------------




--------------------------------------- Iteration      1(   5)  ---------------------------------------


    EDDIAG:  cpu time    3.7191: real time    3.7215
  RMM-DIIS:  cpu time    6.6170: real time    6.6217
    ORTHCH:  cpu time    1.1591: real time    1.1613
       DOS:  cpu time    0.0011: real time    0.0011
    --------------------------------------------
      LOOP:  cpu time   11.4963: real time   11.5056

 eigenvalue-minimisations  :  7168
 total energy-change (2. order) :-0.1482012E+03  (-0.2128911E+03)
 number of electron     672.0000000 magnetization      48.0000000
 augmentation part      672.0000000 magnetization      48.0000000

 Free energy of the ion-electron system (eV)
  ---------------------------------------------------
  alpha Z        PSCENC =      2652.81237852
  Ewald energy   TEWEN  =    -41785.35607552
  -Hartree energ DENC   =    -25823.97186686
  -exchange      EXHF   =         0.00000000
  -V(xc)+E(xc)   XCENC  =      3606.17420374
  PAW double counting   =     55594.23204139   -59034.67079123
  entropy T*S    EENTRO =        -0.00000000
  eigenvalues    EBANDS =    -10277.30939540
  atomic energy  EATOM  =     73862.19814772
  Solvation  Ediel_sol  =         0.00000000
  ---------------------------------------------------
  free energy    TOTEN  =     -1205.89135764 eV

  energy without entropy =    -1205.89135764  energy(sigma->0) =    -1205.89135764


--------------------------------------------------------------------------------------------------------




--------------------------------------- Iteration      1(   6)  ---------------------------------------


    EDDIAG:  cpu time    3.7791: real time    3.7925
  RMM-DIIS:  cpu time    6.6214: real time    6.6258
    ORTHCH:  cpu time    1.1469: real time    1.1490
       DOS:  cpu time    0.0011: real time    0.0011
    --------------------------------------------
      LOOP:  cpu time   11.5485: real time   11.5685

 eigenvalue-minimisations  :  7168
 total energy-change (2. order) :-0.2182670E+02  (-0.1156936E+03)
 number of electron     672.0000000 magnetization      48.0000000
 augmentation part      672.0000000 magnetization      48.0000000

 Free energy of the ion-electron system (eV)
  ---------------------------------------------------
  alpha Z        PSCENC =      2652.81237852
  Ewald energy   TEWEN  =    -41785.35607552
  -Hartree energ DENC   =    -25823.97186686
  -exchange      EXHF   =         0.00000000
  -V(xc)+E(xc)   XCENC  =      3606.17420374
  PAW double counting   =     55594.23204139   -59034.67079123
  entropy T*S    EENTRO =        -0.00000000
  eigenvalues    EBANDS =    -10299.13609404
  atomic energy  EATOM  =     73862.19814772
  Solvation  Ediel_sol  =         0.00000000
  ---------------------------------------------------
  free energy    TOTEN  =     -1227.71805628 eV

  energy without entropy =    -1227.71805628  energy(sigma->0) =    -1227.71805628


--------------------------------------------------------------------------------------------------------




--------------------------------------- Iteration      1(   7)  ---------------------------------------


    EDDIAG:  cpu time    3.7568: real time    3.7610
  RMM-DIIS:  cpu time    6.6254: real time    6.6280
    ORTHCH:  cpu time    1.1424: real time    1.1448
       DOS:  cpu time    0.0011: real time    0.0012
    --------------------------------------------
      LOOP:  cpu time   11.5258: real time   11.5349

 eigenvalue-minimisations  :  7168
 total energy-change (2. order) :-0.6492105E+01  (-0.7641296E+02)
 number of electron     672.0000000 magnetization      48.0000000
 augmentation part      672.0000000 magnetization      48.0000000

 Free energy of the ion-electron system (eV)
  ---------------------------------------------------
  alpha Z        PSCENC =      2652.81237852
  Ewald energy   TEWEN  =    -41785.35607552
  -Hartree energ DENC   =    -25823.97186686
  -exchange      EXHF   =         0.00000000
  -V(xc)+E(xc)   XCENC  =      3606.17420374
  PAW double counting   =     55594.23204139   -59034.67079123
  entropy T*S    EENTRO =        -0.00000000
  eigenvalues    EBANDS =    -10305.62819940
  atomic energy  EATOM  =     73862.19814772
  Solvation  Ediel_sol  =         0.00000000
  ---------------------------------------------------
  free energy    TOTEN  =     -1234.21016164 eV

  energy without entropy =    -1234.21016164  energy(sigma->0) =    -1234.21016164


--------------------------------------------------------------------------------------------------------




--------------------------------------- Iteration      1(   8)  ---------------------------------------


    EDDIAG:  cpu time    3.7146: real time    3.7176
  RMM-DIIS:  cpu time    6.6053: real time    6.6268
    ORTHCH:  cpu time    1.2032: real time    1.2064
       DOS:  cpu time    0.0015: real time    0.0015
    --------------------------------------------
      LOOP:  cpu time   11.5245: real time   11.5523

 eigenvalue-minimisations  :  7168
 total energy-change (2. order) : 0.4658501E+01  (-0.5305383E+02)
 number of electron     672.0000000 magnetization      48.0000000
 augmentation part      672.0000000 magnetization      48.0000000

 Free energy of the ion-electron system (eV)
  ---------------------------------------------------
  alpha Z        PSCENC =      2652.81237852
  Ewald energy   TEWEN  =    -41785.35607552
  -Hartree energ DENC   =    -25823.97186686
  -exchange      EXHF   =         0.00000000
  -V(xc)+E(xc)   XCENC  =      3606.17420374
  PAW double counting   =     55594.23204139   -59034.67079123
  entropy T*S    EENTRO =        -0.00000000
  eigenvalues    EBANDS =    -10300.96969884
  atomic energy  EATOM  =     73862.19814772
  Solvation  Ediel_sol  =         0.00000000
  ---------------------------------------------------
  free energy    TOTEN  =     -1229.55166108 eV

  energy without entropy =    -1229.55166108  energy(sigma->0) =    -1229.55166108


--------------------------------------------------------------------------------------------------------




--------------------------------------- Iteration      1(   9)  ---------------------------------------


    EDDIAG:  cpu time    3.7441: real time    3.7471
  RMM-DIIS:  cpu time   13.8509: real time   13.8578
    ORTHCH:  cpu time    1.1453: real time    1.1477
       DOS:  cpu time    0.0010: real time    0.0010
    --------------------------------------------
      LOOP:  cpu time   18.7413: real time   18.7536

 eigenvalue-minimisations  : 20203
 total energy-change (2. order) : 0.1825007E+02  (-0.2381137E+02)
 number of electron     672.0000000 magnetization      48.0000000
 augmentation part      672.0000000 magnetization      48.0000000

 Free energy of the ion-electron system (eV)
  ---------------------------------------------------
  alpha Z        PSCENC =      2652.81237852
  Ewald energy   TEWEN  =    -41785.35607552
  -Hartree energ DENC   =    -25823.97186686
  -exchange      EXHF   =         0.00000000
  -V(xc)+E(xc)   XCENC  =      3606.17420374
  PAW double counting   =     55594.23204139   -59034.67079123
  entropy T*S    EENTRO =        -0.00000000
  eigenvalues    EBANDS =    -10282.71962720
  atomic energy  EATOM  =     73862.19814772
  Solvation  Ediel_sol  =         0.00000000
  ---------------------------------------------------
  free energy    TOTEN  =     -1211.30158944 eV

  energy without entropy =    -1211.30158944  energy(sigma->0) =    -1211.30158944


--------------------------------------------------------------------------------------------------------




--------------------------------------- Iteration      1(  10)  ---------------------------------------


    EDDIAG:  cpu time    3.7060: real time    3.7095
  RMM-DIIS:  cpu time   15.7499: real time   15.7790
    ORTHCH:  cpu time    1.2196: real time    1.2220
       DOS:  cpu time    0.0011: real time    0.0011
    --------------------------------------------
      LOOP:  cpu time   20.6766: real time   20.7116

 eigenvalue-minimisations  : 20299
 total energy-change (2. order) :-0.3078888E+01  (-0.1032328E+01)
 number of electron     672.0000000 magnetization      48.0000000
 augmentation part      672.0000000 magnetization      48.0000000

 Free energy of the ion-electron system (eV)
  ---------------------------------------------------
  alpha Z        PSCENC =      2652.81237852
  Ewald energy   TEWEN  =    -41785.35607552
  -Hartree energ DENC   =    -25823.97186686
  -exchange      EXHF   =         0.00000000
  -V(xc)+E(xc)   XCENC  =      3606.17420374
  PAW double counting   =     55594.23204139   -59034.67079123
  entropy T*S    EENTRO =        -0.00000001
  eigenvalues    EBANDS =    -10285.79851514
  atomic energy  EATOM  =     73862.19814772
  Solvation  Ediel_sol  =         0.00000000
  ---------------------------------------------------
  free energy    TOTEN  =     -1214.38047738 eV

  energy without entropy =    -1214.38047738  energy(sigma->0) =    -1214.38047738


--------------------------------------------------------------------------------------------------------




--------------------------------------- Iteration      1(  11)  ---------------------------------------


    EDDIAG:  cpu time    3.7144: real time    3.7187
  RMM-DIIS:  cpu time   15.1491: real time   15.1669
    ORTHCH:  cpu time    1.1701: real time    1.1723
       DOS:  cpu time    0.0012: real time    0.0012
    --------------------------------------------
      LOOP:  cpu time   20.0350: real time   20.0591

 eigenvalue-minimisations  : 21697
 total energy-change (2. order) : 0.1039093E+00  (-0.9581491E-01)
 number of electron     672.0000000 magnetization      48.0000000
 augmentation part      672.0000000 magnetization      48.0000000

 Free energy of the ion-electron system (eV)
  ---------------------------------------------------
  alpha Z        PSCENC =      2652.81237852
  Ewald energy   TEWEN  =    -41785.35607552
  -Hartree energ DENC   =    -25823.97186686
  -exchange      EXHF   =         0.00000000
  -V(xc)+E(xc)   XCENC  =      3606.17420374
  PAW double counting   =     55594.23204139   -59034.67079123
  entropy T*S    EENTRO =        -0.00000001
  eigenvalues    EBANDS =    -10285.69460583
  atomic energy  EATOM  =     73862.19814772
  Solvation  Ediel_sol  =         0.00000000
  ---------------------------------------------------
  free energy    TOTEN  =     -1214.27656808 eV

  energy without entropy =    -1214.27656807  energy(sigma->0) =    -1214.27656808


--------------------------------------------------------------------------------------------------------




--------------------------------------- Iteration      1(  12)  ---------------------------------------


    EDDIAG:  cpu time    3.7575: real time    3.7618
  RMM-DIIS:  cpu time   16.0691: real time   16.0774
    ORTHCH:  cpu time    1.1337: real time    1.1370
       DOS:  cpu time    0.0011: real time    0.0011
    CHARGE:  cpu time    1.3463: real time    1.3468
    MIXING:  cpu time    0.0014: real time    0.0015
    --------------------------------------------
      LOOP:  cpu time   22.3090: real time   22.3257

 eigenvalue-minimisations  : 22853
 total energy-change (2. order) : 0.7414380E-02  (-0.4360587E-02)
 number of electron     672.0000484 magnetization      48.0000013
 augmentation part      239.0720769 magnetization      29.0344665

 Broyden mixing:
  rms(total) = 0.12575E+02    rms(broyden)= 0.12566E+02
  rms(prec ) = 0.14427E+02
  weight for this iteration     100.00

 Free energy of the ion-electron system (eV)
  ---------------------------------------------------
  alpha Z        PSCENC =      2652.81237852
  Ewald energy   TEWEN  =    -41785.35607552
  -Hartree energ DENC   =    -25823.97186686
  -exchange      EXHF   =         0.00000000
  -V(xc)+E(xc)   XCENC  =      3606.17420374
  PAW double counting   =     55594.23204139   -59034.67079123
  entropy T*S    EENTRO =        -0.00000001
  eigenvalues    EBANDS =    -10285.68719145
  atomic energy  EATOM  =     73862.19814772
  Solvation  Ediel_sol  =         0.00000000
  ---------------------------------------------------
  free energy    TOTEN  =     -1214.26915370 eV

  energy without entropy =    -1214.26915369  energy(sigma->0) =    -1214.26915370


--------------------------------------------------------------------------------------------------------




--------------------------------------- Iteration      1(  13)  ---------------------------------------


    POTLOK:  cpu time    0.1987: real time    0.1989
    SETDIJ:  cpu time    3.2897: real time    3.2914
    EDDIAG:  cpu time    3.7639: real time    3.7765
  RMM-DIIS:  cpu time   13.0252: real time   13.0338
    ORTHCH:  cpu time    1.1518: real time    1.1546
       DOS:  cpu time    0.0016: real time    0.0016
    CHARGE:  cpu time    1.3811: real time    1.3816
    MIXING:  cpu time    0.0015: real time    0.0016
    --------------------------------------------
      LOOP:  cpu time   22.8135: real time   22.8401

 eigenvalue-minimisations  : 17348
 total energy-change (2. order) : 0.2252360E+03  (-0.1379515E+03)
 number of electron     672.0000531 magnetization      48.0000015
 augmentation part      268.9350049 magnetization      26.6197386

 Broyden mixing:
  rms(total) = 0.13913E+02    rms(broyden)= 0.13910E+02
  rms(prec ) = 0.15623E+02
  weight for this iteration     100.00

 eigenvalues of (default mixing * dielectric matrix)
  average eigenvalue GAMMA=   0.3182
  0.3182

 Free energy of the ion-electron system (eV)
  ---------------------------------------------------
  alpha Z        PSCENC =      2652.81237852
  Ewald energy   TEWEN  =    -41785.35607552
  -Hartree energ DENC   =    -25153.86723190
  -exchange      EXHF   =         0.00000000
  -V(xc)+E(xc)   XCENC  =      3696.50373703
  PAW double counting   =     59904.10144524   -63329.28910646
  entropy T*S    EENTRO =        -0.08703793
  eigenvalues    EBANDS =    -10836.04943532
  atomic energy  EATOM  =     73862.19814772
  Solvation  Ediel_sol  =         0.00000000
  ---------------------------------------------------
  free energy    TOTEN  =      -989.03317862 eV

  energy without entropy =     -988.94614069  energy(sigma->0) =     -988.98965965


--------------------------------------------------------------------------------------------------------




--------------------------------------- Iteration      1(  14)  ---------------------------------------


    POTLOK:  cpu time    0.2170: real time    0.2171
    SETDIJ:  cpu time    3.2849: real time    3.2854
    EDDIAG:  cpu time    3.7204: real time    3.7243
  RMM-DIIS:  cpu time   13.5506: real time   13.5778
    ORTHCH:  cpu time    1.1541: real time    1.1563
       DOS:  cpu time    0.0014: real time    0.0014
    CHARGE:  cpu time    1.3414: real time    1.3427
    MIXING:  cpu time    0.0011: real time    0.0011
    --------------------------------------------
      LOOP:  cpu time   23.2709: real time   23.3060

 eigenvalue-minimisations  : 17755
 total energy-change (2. order) : 0.7424201E+02  (-0.1846460E+02)
 number of electron     672.0000499 magnetization      48.0000024
 augmentation part      246.6562095 magnetization      32.2175234

 Broyden mixing:
  rms(total) = 0.52633E+01    rms(broyden)= 0.52590E+01
  rms(prec ) = 0.56725E+01
  weight for this iteration     100.00

 eigenvalues of (default mixing * dielectric matrix)
  average eigenvalue GAMMA=   0.7306
  1.1016  0.3596

 Free energy of the ion-electron system (eV)
  ---------------------------------------------------
  alpha Z        PSCENC =      2652.81237852
  Ewald energy   TEWEN  =    -41785.35607552
  -Hartree energ DENC   =    -25763.68832531
  -exchange      EXHF   =         0.00000000
  -V(xc)+E(xc)   XCENC  =      3674.21670825
  PAW double counting   =     63327.75889817   -66810.10723779
  entropy T*S    EENTRO =        -0.00000000
  eigenvalues    EBANDS =    -10072.62566692
  atomic energy  EATOM  =     73862.19814772
  Solvation  Ediel_sol  =         0.00000000
  ---------------------------------------------------
  free energy    TOTEN  =      -914.79117287 eV

  energy without entropy =     -914.79117287  energy(sigma->0) =     -914.79117287


--------------------------------------------------------------------------------------------------------




--------------------------------------- Iteration      1(  15)  ---------------------------------------


    POTLOK:  cpu time    0.2011: real time    0.2020
    SETDIJ:  cpu time    3.2866: real time    3.2880
    EDDIAG:  cpu time    3.7214: real time    3.7253
  RMM-DIIS:  cpu time   13.6803: real time   13.7184
    ORTHCH:  cpu time    1.1749: real time    1.1839
       DOS:  cpu time    0.0010: real time    0.0010
    CHARGE:  cpu time    1.3507: real time    1.3518
    MIXING:  cpu time    0.0006: real time    0.0006
    --------------------------------------------
      LOOP:  cpu time   23.4166: real time   23.4710

 eigenvalue-minimisations  : 18404
 total energy-change (2. order) : 0.1343228E+02  (-0.1982189E+01)
 number of electron     672.0000502 magnetization      48.0000033
 augmentation part      249.6969567 magnetization      33.8133154

 Broyden mixing:
  rms(total) = 0.21278E+01    rms(broyden)= 0.21275E+01
  rms(prec ) = 0.22060E+01
  weight for this iteration     100.00

 eigenvalues of (default mixing * dielectric matrix)
  average eigenvalue GAMMA=   0.9592
  0.3852  0.7591  1.7333

 Free energy of the ion-electron system (eV)
  ---------------------------------------------------
  alpha Z        PSCENC =      2652.81237852
  Ewald energy   TEWEN  =    -41785.35607552
  -Hartree energ DENC   =    -25685.43502598
  -exchange      EXHF   =         0.00000000
  -V(xc)+E(xc)   XCENC  =      3706.70389130
  PAW double counting   =     67441.33674605   -70964.27451347
  entropy T*S    EENTRO =        -0.00000000
  eigenvalues    EBANDS =    -10129.34444323
  atomic energy  EATOM  =     73862.19814772
  Solvation  Ediel_sol  =         0.00000000
  ---------------------------------------------------
  free energy    TOTEN  =      -901.35889462 eV

  energy without entropy =     -901.35889462  energy(sigma->0) =     -901.35889462


--------------------------------------------------------------------------------------------------------




--------------------------------------- Iteration      1(  16)  ---------------------------------------


    POTLOK:  cpu time    0.2071: real time    0.2072
    SETDIJ:  cpu time    3.3169: real time    3.3183
    EDDIAG:  cpu time    3.7148: real time    3.7185
  RMM-DIIS:  cpu time   13.0899: real time   13.1001
    ORTHCH:  cpu time    1.1475: real time    1.1512
       DOS:  cpu time    0.0010: real time    0.0010
    CHARGE:  cpu time    1.3462: real time    1.3467
    MIXING:  cpu time    0.0009: real time    0.0009
    --------------------------------------------
      LOOP:  cpu time   22.8244: real time   22.8439

 eigenvalue-minimisations  : 17319
 total energy-change (2. order) :-0.1611798E+01  (-0.6985450E+00)
 number of electron     672.0000504 magnetization      48.0000036
 augmentation part      251.2352731 magnetization      33.9038565

 Broyden mixing:
  rms(total) = 0.14039E+01    rms(broyden)= 0.14034E+01
  rms(prec ) = 0.14962E+01
  weight for this iteration     100.00

 eigenvalues of (default mixing * dielectric matrix)
  average eigenvalue GAMMA=   0.9740
  2.0724  0.9029  0.3926  0.5282

 Free energy of the ion-electron system (eV)
  ---------------------------------------------------
  alpha Z        PSCENC =      2652.81237852
  Ewald energy   TEWEN  =    -41785.35607552
  -Hartree energ DENC   =    -25634.65105011
  -exchange      EXHF   =         0.00000000
  -V(xc)+E(xc)   XCENC  =      3708.02045847
  PAW double counting   =     70428.02789808   -73981.05564652
  entropy T*S    EENTRO =        -0.00000000
  eigenvalues    EBANDS =    -10152.96680280
  atomic energy  EATOM  =     73862.19814772
  Solvation  Ediel_sol  =         0.00000000
  ---------------------------------------------------
  free energy    TOTEN  =      -902.97069215 eV

  energy without entropy =     -902.97069215  energy(sigma->0) =     -902.97069215


--------------------------------------------------------------------------------------------------------




--------------------------------------- Iteration      1(  17)  ---------------------------------------


    POTLOK:  cpu time    0.2107: real time    0.2108
    SETDIJ:  cpu time    3.2660: real time    3.3217
    EDDIAG:  cpu time    3.8951: real time    3.8992
  RMM-DIIS:  cpu time   13.9218: real time   13.9332
    ORTHCH:  cpu time    1.1508: real time    1.1533
       DOS:  cpu time    0.0010: real time    0.0010
    CHARGE:  cpu time    1.3462: real time    1.3470
    MIXING:  cpu time    0.0014: real time    0.0014
    --------------------------------------------
      LOOP:  cpu time   23.7929: real time   23.8676

 eigenvalue-minimisations  : 18608
 total energy-change (2. order) : 0.1890981E+00  (-0.6138841E-01)
 number of electron     672.0000504 magnetization      48.0000038
 augmentation part      251.1006831 magnetization      33.8972024

 Broyden mixing:
  rms(total) = 0.75146E+00    rms(broyden)= 0.75137E+00
  rms(prec ) = 0.84566E+00
  weight for this iteration     100.00

 eigenvalues of (default mixing * dielectric matrix)
  average eigenvalue GAMMA=   1.0049
  2.2377  1.1379  0.3829  0.7003  0.5657

 Free energy of the ion-electron system (eV)
  ---------------------------------------------------
  alpha Z        PSCENC =      2652.81237852
  Ewald energy   TEWEN  =    -41785.35607552
  -Hartree energ DENC   =    -25628.50705090
  -exchange      EXHF   =         0.00000000
  -V(xc)+E(xc)   XCENC  =      3705.04951307
  PAW double counting   =     71227.84590508   -74788.61822892
  entropy T*S    EENTRO =        -0.00000000
  eigenvalues    EBANDS =    -10148.20618308
  atomic energy  EATOM  =     73862.19814772
  Solvation  Ediel_sol  =         0.00000000
  ---------------------------------------------------
  free energy    TOTEN  =      -902.78159403 eV

  energy without entropy =     -902.78159403  energy(sigma->0) =     -902.78159403


--------------------------------------------------------------------------------------------------------




--------------------------------------- Iteration      1(  18)  ---------------------------------------


    POTLOK:  cpu time    0.1991: real time    0.1994
    SETDIJ:  cpu time    3.3067: real time    3.3083
    EDDIAG:  cpu time    3.7283: real time    3.7331
  RMM-DIIS:  cpu time   13.2629: real time   13.2966
    ORTHCH:  cpu time    1.1975: real time    1.2009
       DOS:  cpu time    0.0013: real time    0.0013
    CHARGE:  cpu time    1.3457: real time    1.3465
    MIXING:  cpu time    0.0009: real time    0.0009
    --------------------------------------------
      LOOP:  cpu time   23.0425: real time   23.0870

 eigenvalue-minimisations  : 17487
 total energy-change (2. order) : 0.3791779E+00  (-0.7150540E-01)
 number of electron     672.0000503 magnetization      48.0000039
 augmentation part      250.5937488 magnetization      33.8581946

 Broyden mixing:
  rms(total) = 0.26051E+00    rms(broyden)= 0.26019E+00
  rms(prec ) = 0.27245E+00
  weight for this iteration     100.00

 eigenvalues of (default mixing * dielectric matrix)
  average eigenvalue GAMMA=   1.0240
  2.4756  1.3643  0.8516  0.3843  0.5832  0.4849

 Free energy of the ion-electron system (eV)
[...]
   4      -0.722    -0.738     1.460     0.120     0.468    -0.218
   5      -0.844    -0.693     1.536     0.122    -0.462     0.227
   6      -0.860    -0.868     1.728     0.039     0.031     0.009
   7      -0.882    -0.750     1.632    -0.115    -0.504    -0.183
   8      -0.872    -0.924     1.797     0.022     0.005    -0.037
   9      -0.615    -0.883     1.498    -0.005    -0.038    -0.479
  10      -0.578    -0.805     1.384     0.035     0.075    -0.425
  11      -0.843    -0.680     1.523    -0.132     0.454     0.306
  12      -0.794    -0.673     1.467     0.156     0.254    -0.216
  13      -0.882    -0.781     1.663    -0.139    -0.464    -0.259
  14      -0.550    -0.900     1.450     0.060    -0.024     0.435
  15      -0.688    -0.685     1.373     0.148    -0.298     0.048
  16      -0.967    -0.753     1.719    -0.153     0.398     0.247
  17       1.547     1.500    -3.047    -0.061     0.108    -0.099
  18       1.451     1.533    -2.984     0.182     0.191     0.001
  19       1.416     1.454    -2.870     0.005    -0.067    -0.170
  20       1.542     1.324    -2.865    -0.069    -0.087    -0.104
  21       1.371     1.568    -2.940     0.099    -0.018     0.039
  22       1.552     1.308    -2.860    -0.031    -0.081    -0.053
  23       1.740     1.195    -2.935    -0.038    -0.001     0.082
  24       1.449     1.409    -2.858     0.141     0.199     0.015
  25      -1.880     0.367     1.513     1.261     0.276    -1.061
  26      -1.205    -1.705     2.910    -0.050     0.325    -0.476
  27      -0.335    -1.633     1.968     0.833    -0.011     0.253
  28      -2.405     1.797     0.608     0.671     0.670    -0.141
  29      -0.795     0.333     0.463    -0.211     0.590    -0.762
  30       1.238     0.101    -1.339     1.311     0.929    -1.147
  31      -0.338    -1.030     1.368    -0.078     0.793    -0.776
  32       0.457    -0.522     0.065    -0.169     0.342     0.936
  33      -0.694    -0.351     1.045    -0.169    -0.659    -0.913
  34      -1.384    -0.812     2.196     0.972     0.121    -0.355
  35      -0.030     0.388    -0.358     0.095     1.222    -0.718
  36       0.870    -0.840    -0.030    -0.081    -0.089    -0.130
  37      -0.947     0.957    -0.010     0.390    -0.318    -1.004
  38       0.636    -0.848     0.212    -1.200     0.702    -0.653
  39       0.602     0.377    -0.979    -0.453    -1.655     0.141
  40      -0.546    -0.112     0.658     1.211     1.803    -0.098
  41      -4.690     0.528     4.162    -3.780     3.578    -4.778
  42      -2.873     0.476     2.397     6.105     1.652     4.224
  43       6.085    -7.205     1.120    -0.193    -4.512    -0.106
  44      -3.452     1.528     1.924     5.537    -4.647    -4.355
  45      -0.180     0.013     0.166    -5.956    -1.933     3.753
  46       3.542    -4.799     1.258    -2.093     5.258     1.337
  47      -2.351     1.774     0.578    -4.547     1.281    -3.865
  48       4.744    -4.600    -0.144    -1.468    -4.469    -0.631
  49      -2.619     2.560     0.059     3.664     2.560     4.434
  50       5.072    -6.937     1.865     0.460     5.701     1.735
  51      -4.024     3.724     0.299    -4.886    -3.549     2.429
  52      -2.246     3.013    -0.767     6.880    -2.242    -3.455
  53      -1.708     1.202     0.506    -5.170     1.529    -3.300
  54      -4.026     2.492     1.534     4.857     4.822     3.004
  55       5.149    -4.832    -0.317    -0.814    -4.518    -1.410
  56      -2.142     1.318     0.823     4.840    -1.315    -3.887
  57      -3.130     2.106     1.025    -6.471    -3.347     3.245
  58       7.822    -6.428    -1.394     3.031     4.831    -0.285
  59      -3.485     2.456     1.028    -5.463     4.019    -3.765
  60       6.579    -6.550    -0.029     1.620    -4.504     1.359
  61      -1.059     3.142    -2.083     6.738     3.165     2.215
  62       4.087    -6.152     2.066    -0.151     4.590    -0.328
  63      -1.681     1.593     0.088    -3.925     0.042     5.086
  64      -4.439     3.492     0.947     3.540    -3.511    -2.378
  65      -2.841     1.565     1.276    -4.583     2.403    -4.159
  66      -4.068     3.504     0.564     4.386     2.741     4.238
  67       4.370    -5.564     1.195     1.710    -4.628    -0.350
  68      -3.013     2.622     0.391     5.224    -1.951    -4.617
  69      -3.926     2.823     1.103    -2.531    -2.847     3.305
  70       7.110    -7.530     0.420     1.109     4.927    -1.827
  71      -4.207    -0.058     4.266    -3.596     2.049    -4.645
  72       4.552    -4.656     0.104     1.792    -3.827    -0.616
  73      -3.661     2.829     0.832     5.929     2.823     4.848
  74       6.171    -5.736    -0.435     0.654     5.124    -0.601
  75      -1.164     2.513    -1.349    -6.014    -3.435     2.623
  76      -2.726     1.549     1.176     4.600    -2.016    -3.879
  77      -3.916     3.947    -0.031    -5.282     2.032    -3.855
  78      -1.637     1.645    -0.007     4.990     2.284     4.183
  79       4.269    -6.132     1.863    -0.561    -5.858    -0.381
  80      -2.690     2.837    -0.147     5.768    -1.329    -2.517
  81      -2.131     1.909     0.222    -4.355    -1.382     3.860
  82       3.528    -5.891     2.363    -0.252     4.503    -1.504
  83      -2.294     0.984     1.310    -4.937     2.406    -4.940
  84       5.800    -5.828     0.028    -1.290    -4.423    -0.495
  85      -2.973     2.349     0.624     4.351     2.010     2.378
  86       4.236    -3.978    -0.258    -1.956     3.964     1.122
  87      -1.858     2.656    -0.798    -7.665    -3.128     2.235
  88      -3.277    -0.526     3.803     4.472    -2.603    -6.065
 ---------------------------------------------------------------------


 Total hyperfine coupling parameters after diagonalization (MHz)
 (convention: |A_zz| > |A_xx| > |A_yy|)
 ----------------------------------------------------------------------
  ion      A_xx      A_yy      A_zz     asymmetry (A_yy - A_xx)/ A_zz 
 ----------------------------------------------------------------------
   1       0.127     0.071     2.925      -0.019
   2      -0.119    -0.039     2.789       0.029
   3       2.153     1.772     4.305      -0.088
   4       1.365     1.036     3.559      -0.093
   5       1.938     1.548     4.203      -0.093
   6       0.650     0.573     3.204      -0.024
   7       2.294     1.927     4.720      -0.078
   8      -0.187    -0.119     2.543       0.027
   9       2.138     1.777     4.346      -0.083
  10       1.786     1.467     3.824      -0.083
  11       1.935     1.509     4.183      -0.102
  12       2.313     1.933     4.392      -0.086
  13       2.204     1.807     4.655      -0.085
  14       2.541     2.095     4.611      -0.097
  15       1.867     1.557     3.836      -0.081
  16       2.726     2.275     5.195      -0.087
  17      15.161    10.652    15.297      -0.295
  18      15.125    10.823    15.497      -0.278
  19      13.666     9.373    13.712      -0.313
  20      13.426     9.249    13.681      -0.305
  21      14.484    10.214    14.764      -0.289
  22      13.120     8.953    13.372      -0.312
  23      14.404    10.273    14.952      -0.276
  24      14.012     9.854    14.298      -0.291
  25      95.103    92.163    96.924      -0.030
  26      97.171    96.648   101.385      -0.005
  27     102.702   100.582   104.623      -0.020
  28      96.559    93.156    97.711      -0.035
  29      96.055    95.307    97.665      -0.008
  30      95.793    92.801    97.456      -0.031
  31      95.358    94.652    97.818      -0.007
  32      94.948    93.241    95.362      -0.018
  33      94.222    93.357    96.213      -0.009
  34     100.272    98.242   102.613      -0.020
  35      93.895    91.925    94.798      -0.021
  36      95.815    94.966    96.713      -0.009
  37      98.255    97.837   100.569      -0.004
  38      98.089    96.825   100.219      -0.013
  39      96.847    94.583    98.406      -0.023
  40      95.545    93.002    97.505      -0.026
  41       3.317    -0.960    15.158      -0.282
  42       7.505     0.455    16.533      -0.426
  43       6.472     0.801    16.767      -0.338
  44       4.319    -0.547    16.813      -0.289
  45       4.028    -0.676    13.649      -0.345
  46       6.903     1.846    16.121      -0.314
  47       5.309     1.406    14.028      -0.278
  48       4.726     1.539    14.334      -0.222
  49       3.100     1.831    14.205      -0.089
  50       5.701     0.596    17.418      -0.293
  51       6.551     0.318    15.401      -0.405
  52       5.374     0.820    17.218      -0.264
  53       6.796     2.372    15.172      -0.292
  54       6.318    -0.391    16.040      -0.418
  55       6.968     3.164    16.611      -0.229
  56       5.607     1.178    14.190      -0.312
  57       7.660     1.489    18.183      -0.339
  58       7.913     3.471    21.174      -0.210
  59       4.512    -0.544    15.775      -0.321
  60       7.719     1.938    18.188      -0.318
  61       3.779     0.147    15.895      -0.228
  62       6.520     1.973    15.923      -0.286
  63       6.371     1.189    14.351      -0.361
  64       5.955    -0.420    13.268      -0.481
  65       4.357     0.816    14.462      -0.245
  66       4.569     0.810    15.621      -0.241
  67       7.523     3.618    17.368      -0.225
  68       3.035    -0.722    14.226      -0.264
  69       5.505     1.492    13.554      -0.296
  70       7.295     0.458    18.458      -0.370
  71       4.600     0.277    14.926      -0.290
  72       6.720     3.781    15.826      -0.186
  73       5.830     1.316    18.330      -0.246
  74       4.717     1.694    16.661      -0.181
  75       5.528     2.139    16.878      -0.201
  76       6.396     2.506    15.689      -0.248
  77       6.053     1.672    17.003      -0.258
  78       3.392     0.712    14.116      -0.190
  79       4.690     1.217    16.527      -0.210
  80       6.320     1.179    15.030      -0.342
  81       3.878     0.660    12.848      -0.250
  82       8.000     3.201    16.987      -0.283
  83       6.438     2.941    17.591      -0.199
  84       4.250     0.155    14.582      -0.281
  85       5.998     1.451    13.341      -0.341
  86       6.271     2.098    14.188      -0.294
  87       6.143     0.201    17.692      -0.336
  88       3.055    -0.998    15.746      -0.257
 ---------------------------------------------------------------------



--------------------------------------------------------------------------------------------------------


 stress matrix after NEB project (eV)
    -46.22988     -0.46075     -3.80934
     -0.46098    -40.69552      0.74601
     -3.86132      0.76772    -59.57196
  FORCES: max atom, RMS     2.273602    1.028357
  FORCE total and by dimension    9.646840    2.207100
  Stress total and by dimension   85.866972   59.571960
     LOOP+:  cpu time  565.8975: real time  566.7428
    4ORBIT:  cpu time    0.0000: real time    0.0000
 


 total charge     
 
# of ion       s       p       d       tot
------------------------------------------
    1        0.048   5.992   0.000   6.040
    2        0.048   5.992   0.000   6.040
    3        0.049   5.991   0.000   6.040
    4        0.051   5.993   0.000   6.044
    5        0.053   5.995   0.000   6.048
    6        0.048   5.993   0.000   6.041
    7        0.056   5.998   0.000   6.054
    8        0.048   5.993   0.000   6.041
    9        0.043   5.985   0.000   6.029
   10        0.049   5.991   0.000   6.041
   11        0.055   5.997   0.000   6.052
   12        0.051   5.994   0.000   6.045
   13        0.055   5.998   0.000   6.053
   14        0.053   5.996   0.000   6.048
   15        0.053   5.996   0.000   6.049
   16        0.053   5.995   0.000   6.048
   17        0.152   6.135   0.089   6.376
   18        0.148   6.127   0.083   6.358
   19        0.149   6.129   0.084   6.362
   20        0.147   6.125   0.082   6.354
   21        0.147   6.125   0.081   6.353
   22        0.147   6.125   0.081   6.353
   23        0.152   6.133   0.087   6.371
   24        0.147   6.124   0.081   6.352
   25        0.384   6.470   4.852  11.707
   26        0.365   6.430   4.805  11.600
   27        0.365   6.432   4.814  11.611
   28        0.367   6.437   4.814  11.618
   29        0.376   6.457   4.831  11.663
   30        0.376   6.451   4.836  11.663
   31        0.377   6.455   4.840  11.672
   32        0.379   6.459   4.840  11.678
   33        0.384   6.476   4.849  11.709
   34        0.375   6.455   4.826  11.656
   35        0.379   6.463   4.840  11.682
   36        0.397   6.502   4.878  11.777
   37        0.387   6.481   4.863  11.732
   38        0.360   6.426   4.798  11.584
   39        0.380   6.464   4.853  11.697
   40        0.368   6.437   4.811  11.616
   41        1.598   3.507   0.000   5.105
   42        1.599   3.504   0.000   5.103
   43        1.603   3.519   0.000   5.122
   44        1.603   3.516   0.000   5.119
   45        1.599   3.496   0.000   5.095
   46        1.598   3.496   0.000   5.093
   47        1.596   3.512   0.000   5.108
   48        1.598   3.516   0.000   5.114
   49        1.598   3.495   0.000   5.092
   50        1.600   3.521   0.000   5.121
   51        1.600   3.500   0.000   5.100
   52        1.602   3.508   0.000   5.110
   53        1.595   3.523   0.000   5.119
   54        1.598   3.505   0.000   5.103
   55        1.597   3.492   0.000   5.089
   56        1.595   3.505   0.000   5.100
   57        1.599   3.517   0.000   5.116
   58        1.603   3.497   0.000   5.101
   59        1.600   3.510   0.000   5.110
   60        1.602   3.520   0.000   5.121
   61        1.601   3.480   0.000   5.081
   62        1.598   3.514   0.000   5.112
   63        1.599   3.491   0.000   5.090
   64        1.595   3.497   0.000   5.092
   65        1.598   3.520   0.000   5.118
   66        1.600   3.515   0.000   5.116
   67        1.598   3.499   0.000   5.097
   68        1.597   3.514   0.000   5.111
   69        1.597   3.505   0.000   5.102
   70        1.605   3.502   0.000   5.107
   71        1.599   3.526   0.000   5.125
   72        1.599   3.530   0.000   5.129
   73        1.604   3.509   0.000   5.113
   74        1.599   3.484   0.000   5.083
   75        1.599   3.501   0.000   5.100
   76        1.597   3.505   0.000   5.102
   77        1.599   3.509   0.000   5.108
   78        1.601   3.486   0.000   5.087
   79        1.601   3.484   0.000   5.084
   80        1.598   3.505   0.000   5.104
   81        1.598   3.502   0.000   5.100
   82        1.596   3.528   0.000   5.123
   83        1.598   3.515   0.000   5.113
   84        1.599   3.494   0.000   5.092
   85        1.596   3.500   0.000   5.096
   86        1.598   3.514   0.000   5.112
   87        1.600   3.490   0.000   5.090
   88        1.603   3.494   0.000   5.097
--------------------------------------------------
tot         84.780 416.489  78.019 579.287
 


 magnetization (x)
 
# of ion       s       p       d       tot
------------------------------------------
    1        0.001   0.000   0.000   0.001
    2        0.001   0.000   0.000   0.001
    3        0.002   0.000   0.000   0.002
    4        0.001  -0.000   0.000   0.001
    5        0.002   0.000   0.000   0.002
    6        0.001   0.001   0.000   0.002
    7        0.002   0.000   0.000   0.002
    8        0.001   0.000   0.000   0.001
    9        0.002   0.000   0.000   0.002
   10        0.002   0.000   0.000   0.002
   11        0.002  -0.000   0.000   0.002
   12        0.002   0.001   0.000   0.003
   13        0.002   0.000   0.000   0.002
   14        0.002   0.001   0.000   0.003
   15        0.002   0.001   0.000   0.002
   16        0.002   0.000   0.000   0.003
   17        0.008   0.003   0.001   0.012
   18        0.008   0.003   0.001   0.012
   19        0.007   0.002   0.001   0.010
   20        0.007   0.002   0.001   0.010
   21        0.007   0.002   0.001   0.011
   22        0.007   0.002   0.001   0.010
   23        0.007   0.002   0.001   0.011
   24        0.007   0.002   0.001   0.010
   25        0.015   0.030   2.733   2.778
   26        0.016   0.029   2.777   2.822
   27        0.017   0.030   2.784   2.831
   28        0.015   0.029   2.768   2.812
   29        0.015   0.030   2.759   2.804
   30        0.014   0.029   2.741   2.785
   31        0.015   0.029   2.750   2.793
   32        0.015   0.031   2.730   2.776
   33        0.015   0.031   2.738   2.783
   34        0.016   0.031   2.760   2.807
   35        0.014   0.031   2.749   2.794
   36        0.015   0.031   2.702   2.749
   37        0.016   0.031   2.727   2.774
   38        0.016   0.029   2.790   2.835
   39        0.015   0.030   2.735   2.780
   40        0.015   0.028   2.781   2.824
   41        0.002   0.026   0.000   0.028
   42        0.002   0.041   0.000   0.043
   43        0.002   0.039   0.000   0.041
   44        0.002   0.036   0.000   0.038
   45        0.002   0.013   0.000   0.015
   46        0.002   0.030   0.000   0.032
   47        0.002   0.027   0.000   0.029
   48        0.002   0.025   0.000   0.027
   49        0.002   0.015   0.000   0.017
   50        0.002   0.038   0.000   0.040
   51        0.002   0.037   0.000   0.039
   52        0.002   0.033   0.000   0.036
   53        0.002   0.036   0.000   0.038
   54        0.002   0.045   0.000   0.047
   55        0.002   0.041   0.000   0.043
   56        0.002   0.030   0.000   0.032
   57        0.002   0.059   0.000   0.061
   58        0.003   0.048   0.000   0.051
   59        0.002   0.034   0.000   0.035
   60        0.002   0.054   0.000   0.057
   61        0.002   0.023   0.000   0.025
   62        0.002   0.044   0.000   0.046
   63        0.002   0.019   0.000   0.021
   64        0.002   0.021   0.000   0.023
   65        0.002   0.031   0.000   0.032
   66        0.002   0.037   0.000   0.039
   67        0.002   0.049   0.000   0.051
   68        0.002   0.020   0.000   0.022
   69        0.002   0.023   0.000   0.025
   70        0.002   0.041   0.000   0.043
   71        0.002   0.029   0.000   0.031
   72        0.002   0.040   0.000   0.042
   73        0.002   0.041   0.000   0.044
   74        0.002   0.035   0.000   0.037
   75        0.002   0.031   0.000   0.033
   76        0.002   0.041   0.000   0.043
   77        0.002   0.038   0.000   0.040
   78        0.002   0.010   0.000   0.011
   79        0.002   0.025   0.000   0.027
   80        0.002   0.040   0.000   0.042
   81        0.002   0.022   0.000   0.023
   82        0.002   0.053   0.000   0.056
   83        0.002   0.048   0.000   0.050
   84        0.002   0.021   0.000   0.023
   85        0.002   0.027   0.000   0.029
   86        0.002   0.032   0.000   0.034
   87        0.002   0.044   0.000   0.046
   88        0.002   0.022   0.000   0.024
--------------------------------------------------
tot          0.424   2.115  44.032  46.572
 

 total amount of memory used by VASP MPI-rank0    88173. kBytes
=======================================================================

   base      :      30000. kBytes
   nonlr-proj:      13664. kBytes
   fftplans  :        992. kBytes
   grid      :      21513. kBytes
   one-center:       2737. kBytes
   wavefun   :      19267. kBytes
 
  
  
 General timing and accounting informations for this job:
 ========================================================
  
                  Total CPU time used (sec):      584.442
                            User time (sec):      579.052
                          System time (sec):        5.390
                         Elapsed time (sec):      588.048
  
                   Maximum memory used (kb):      181612.
                   Average memory used (kb):           0.
  
                          Minor page faults:       297429
                          Major page faults:            0
                 Voluntary context switches:         9937
