 vasp.5.4.4.18Apr17-6-g9f103f2a35 (build Dec 02 2020 12:53:39) complex          
  
 executed on             LinuxIFC date 2021.08.05  02:30:12
 running on  112 total cores
 distrk:  each k-point on  112 cores,    1 groups
 distr:  one band on NCORES_PER_BAND=   1 cores,  112 groups


--------------------------------------------------------------------------------------------------------


 INCAR:
 POTCAR:    PAW_PBE Na_pv 19Sep2006               
 POTCAR:    PAW_PBE Mg_pv 13Apr2007               
 POTCAR:    PAW_PBE Mn_pv 02Aug2007               
 POTCAR:    PAW_PBE O 08Apr2002                   

 ----------------------------------------------------------------------------- 
|                                                                             |
|           W    W    AA    RRRRR   N    N  II  N    N   GGGG   !!!           |
|           W    W   A  A   R    R  NN   N  II  NN   N  G    G  !!!           |
|           W    W  A    A  R    R  N N  N  II  N N  N  G       !!!           |
|           W WW W  AAAAAA  RRRRR   N  N N  II  N  N N  G  GGG   !            |
|           WW  WW  A    A  R   R   N   NN  II  N   NN  G    G                |
|           W    W  A    A  R    R  N    N  II  N    N   GGGG   !!!           |
|                                                                             |
|      For optimal performance we recommend to set                            |
|        NCORE= 4 - approx SQRT( number of cores)                             |
|      NCORE specifies how many cores store one orbital (NPAR=cpu/NCORE).     |
|      This setting can  greatly improve the performance of VASP for DFT.     |
|      The default,   NCORE=1            might be grossly inefficient         |
|      on modern multi-core architectures or massively parallel machines.     |
|      Do your own testing !!!!                                               |
|      Unfortunately you need to use the default for GW and RPA calculations. |
|      (for HF NCORE is supported but not extensively tested yet)             |
|                                                                             |
 ----------------------------------------------------------------------------- 

 POTCAR:    PAW_PBE Na_pv 19Sep2006               
   VRHFIN =Na: p6s1                                                             
   LEXCH  = PE                                                                  
   EATOM  =   766.0439 eV,   56.3026 Ry                                         
                                                                                
   TITEL  = PAW_PBE Na_pv 19Sep2006                                             
   LULTRA =        F    use ultrasoft PP ?                                      
   IUNSCR =        1    unscreen: 0-lin 1-nonlin 2-no                           
   RPACOR =    1.800    partial core radius                                     
   POMASS =   22.990; ZVAL   =    7.000    mass and valenz                      
   RCORE  =    2.200    outmost cutoff radius                                   
   RWIGS  =    2.200; RWIGS  =    1.164    wigner-seitz radius (au A)           
   ENMAX  =  259.561; ENMIN  =  194.671 eV                                      
   ICORE  =        2    local potential                                         
   LCOR   =        T    correct aug charges                                     
   LPAW   =        T    paw PP                                                  
   EAUG   =  368.056                                                            
   DEXC   =    0.000                                                            
   RMAX   =    2.245    core radius for proj-oper                               
   RAUG   =    1.300    factor for augmentation sphere                          
   RDEP   =    2.259    radius for radial grids                                 
   RDEPT  =    1.738    core radius for aug-charge                              
                                                                                
   Atomic configuration                                                         
    5 entries                                                                   
     n  l   j            E        occ.                                          
     1  0  0.50     -1033.6933   2.0000                                         
     2  0  0.50       -56.7526   2.0000                                         
     2  1  1.50       -28.6721   6.0000                                         
     3  0  0.50        -2.7440   1.0000                                         
     3  2  1.50        -1.3606   0.0000                                         
   Description                                                                  
     l       E           TYP  RCUT    TYP  RCUT                                 
     1    -28.6720912     23  2.000                                             
     1      6.8029130     23  2.000                                             
     0     -2.7439560     23  2.200                                             
     0     34.0145650     23  2.200                                             
     2     -1.3605826     23  2.200                                             
  local pseudopotential read in
  partial core-charges read in
  partial kinetic energy density read in
  atomic valenz-charges read in
  non local Contribution for L=           1  read in
    real space projection operators read in
  non local Contribution for L=           1  read in
    real space projection operators read in
  non local Contribution for L=           0  read in
    real space projection operators read in
  non local Contribution for L=           0  read in
    real space projection operators read in
    PAW grid and wavefunctions read in
 
   number of l-projection  operators is LMAX  =           4
   number of lm-projection operators is LMMAX =           8
 
 POTCAR:    PAW_PBE Mg_pv 13Apr2007               
   VRHFIN =Mg: p6s2                                                             
   LEXCH  = PE                                                                  
   EATOM  =  1056.7344 eV,   77.6678 Ry                                         
                                                                                
   TITEL  = PAW_PBE Mg_pv 13Apr2007                                             
   LULTRA =        F    use ultrasoft PP ?                                      
   IUNSCR =        1    unscreen: 0-lin 1-nonlin 2-no                           
   RPACOR =    1.500    partial core radius                                     
   POMASS =   24.305; ZVAL   =    8.000    mass and valenz                      
   RCORE  =    2.000    outmost cutoff radius                                   
   RWIGS  =    2.000; RWIGS  =    1.058    wigner-seitz radius (au A)           
   ENMAX  =  403.929; ENMIN  =  302.947 eV                                      
   RCLOC  =    1.506    cutoff for local pot                                    
   LCOR   =        T    correct aug charges                                     
   LPAW   =        T    paw PP                                                  
   EAUG   =  758.780                                                            
   DEXC   =    0.000                                                            
   RMAX   =    2.045    core radius for proj-oper                               
   RAUG   =    1.300    factor for augmentation sphere                          
   RDEP   =    2.025    radius for radial grids                                 
   RDEPT  =    1.557    core radius for aug-charge                              
                                                                                
   Atomic configuration                                                         
    5 entries                                                                   
     n  l   j            E        occ.                                          
     1  0  0.50     -1259.6230   2.0000                                         
     2  0  0.50       -79.8442   2.0000                                         
     2  1  1.50       -46.6121   6.0000                                         
     3  0  0.50        -4.7055   2.0000                                         
     3  2  1.50        -1.3606   0.0000                                         
   Description                                                                  
     l       E           TYP  RCUT    TYP  RCUT                                 
     1    -46.6121073     23  1.600                                             
     1      2.7211652     23  1.600                                             
     0     -4.7054661     23  2.000                                             
     0     61.2262170     23  2.000                                             
     2     -1.3605826     23  2.000                                             
  local pseudopotential read in
  partial core-charges read in
  partial kinetic energy density read in
  atomic valenz-charges read in
  non local Contribution for L=           1  read in
    real space projection operators read in
  non local Contribution for L=           1  read in
    real space projection operators read in
  non local Contribution for L=           0  read in
    real space projection operators read in
  non local Contribution for L=           0  read in
    real space projection operators read in
  non local Contribution for L=           2  read in
    real space projection operators read in
    PAW grid and wavefunctions read in
 
   number of l-projection  operators is LMAX  =           5
   number of lm-projection operators is LMMAX =          13
 
 POTCAR:    PAW_PBE Mn_pv 02Aug2007               
   VRHFIN =Mn: 3p4s3d                                                           
   LEXCH  = PE                                                                  
   EATOM  =  2025.2664 eV,  148.8529 Ry                                         
                                                                                
   TITEL  = PAW_PBE Mn_pv 02Aug2007                                             
   LULTRA =        F    use ultrasoft PP ?                                      
   IUNSCR =        1    unscreen: 0-lin 1-nonlin 2-no                           
   RPACOR =    2.080    partial core radius                                     
   POMASS =   54.938; ZVAL   =   13.000    mass and valenz                      
   RCORE  =    2.300    outmost cutoff radius                                   
   RWIGS  =    2.500; RWIGS  =    1.323    wigner-seitz radius (au A)           
   ENMAX  =  269.864; ENMIN  =  202.398 eV                                      
   ICORE  =        3    local potential                                         
   LCOR   =        T    correct aug charges                                     
   LPAW   =        T    paw PP                                                  
   EAUG   =  569.085                                                            
   DEXC   =    0.000                                                            
   RMAX   =    2.343    core radius for proj-oper                               
   RAUG   =    1.300    factor for augmentation sphere                          
   RDEP   =    2.338    radius for radial grids                                 
   RDEPT  =    1.798    core radius for aug-charge                              
                                                                                
   Atomic configuration                                                         
    8 entries                                                                   
     n  l   j            E        occ.                                          
     1  0  0.50     -6424.8287   2.0000                                         
     2  0  0.50      -739.1154   2.0000                                         
     2  1  1.50      -625.3949   6.0000                                         
     3  0  0.50       -81.6100   2.0000                                         
     3  1  1.50       -50.4667   6.0000                                         
     3  2  2.50        -3.3745   6.0000                                         
     4  0  0.50        -4.1331   1.0000                                         
     4  3  2.50        -1.3606   0.0000                                         
   Description                                                                  
     l       E           TYP  RCUT    TYP  RCUT                                 
     1    -50.4666628     23  2.000                                             
     1     -1.3605826     23  2.000                                             
     2     -3.3744729     23  2.300                                             
     2     -4.7350555     23  2.300                                             
     0     -4.1331431     23  2.300                                             
     0      7.6656591     23  2.300                                             
     3      9.5240782     23  2.300                                             
  local pseudopotential read in
  partial core-charges read in
  partial kinetic energy density read in
  atomic valenz-charges read in
  non local Contribution for L=           1  read in
    real space projection operators read in
  non local Contribution for L=           1  read in
    real space projection operators read in
  non local Contribution for L=           2  read in
    real space projection operators read in
  non local Contribution for L=           2  read in
    real space projection operators read in
  non local Contribution for L=           0  read in
    real space projection operators read in
  non local Contribution for L=           0  read in
    real space projection operators read in
    PAW grid and wavefunctions read in
 
   number of l-projection  operators is LMAX  =           6
   number of lm-projection operators is LMMAX =          18
 
 POTCAR:    PAW_PBE O 08Apr2002                   
   VRHFIN =O: s2p4                                                              
   LEXCH  = PE                                                                  
   EATOM  =   432.3788 eV,   31.7789 Ry                                         
                                                                                
   TITEL  = PAW_PBE O 08Apr2002                                                 
   LULTRA =        F    use ultrasoft PP ?                                      
   IUNSCR =        1    unscreen: 0-lin 1-nonlin 2-no                           
   RPACOR =    1.200    partial core radius                                     
   POMASS =   16.000; ZVAL   =    6.000    mass and valenz                      
   RCORE  =    1.520    outmost cutoff radius                                   
   RWIGS  =    1.550; RWIGS  =    0.820    wigner-seitz radius (au A)           
   ENMAX  =  400.000; ENMIN  =  300.000 eV                                      
   ICORE  =        2    local potential                                         
   LCOR   =        T    correct aug charges                                     
   LPAW   =        T    paw PP                                                  
   EAUG   =  605.392                                                            
   DEXC   =    0.000                                                            
   RMAX   =    1.553    core radius for proj-oper                               
   RAUG   =    1.300    factor for augmentation sphere                          
   RDEP   =    1.550    radius for radial grids                                 
   RDEPT  =    1.329    core radius for aug-charge                              
                                                                                
   Atomic configuration                                                         
    4 entries                                                                   
     n  l   j            E        occ.                                          
     1  0  0.50      -514.6923   2.0000                                         
     2  0  0.50       -23.9615   2.0000                                         
     2  1  0.50        -9.0305   4.0000                                         
     3  2  1.50        -9.5241   0.0000                                         
   Description                                                                  
     l       E           TYP  RCUT    TYP  RCUT                                 
     0    -23.9615318     23  1.200                                             
     0     -9.5240782     23  1.200                                             
     1     -9.0304911     23  1.520                                             
     1      8.1634956     23  1.520                                             
     2     -9.5240782      7  1.500                                             
  local pseudopotential read in
  partial core-charges read in
  partial kinetic energy density read in
  kinetic energy density of atom read in
  atomic valenz-charges read in
  non local Contribution for L=           0  read in
    real space projection operators read in
  non local Contribution for L=           0  read in
    real space projection operators read in
  non local Contribution for L=           1  read in
    real space projection operators read in
  non local Contribution for L=           1  read in
    real space projection operators read in
    PAW grid and wavefunctions read in
 
   number of l-projection  operators is LMAX  =           4
   number of lm-projection operators is LMMAX =           8
 
 Optimization of the real space projectors (new method)

 maximal supplied QI-value         = 17.01
 optimisation between [QCUT,QGAM] = [ 10.20, 20.41] = [ 29.16,116.64] Ry 
 Optimized for a Real-space Cutoff    1.30 Angstroem

   l    n(q)    QCUT    max X(q) W(low)/X(q) W(high)/X(q)  e(spline) 
   1      7    10.205     4.940    0.23E-03    0.84E-03    0.11E-06
   1      7    10.205     6.253    0.40E-03    0.13E-02    0.18E-06
   0      8    10.205    37.438    0.23E-03    0.37E-03    0.42E-07
   0      8    10.205     9.606    0.16E-03    0.26E-03    0.31E-07
 Optimization of the real space projectors (new method)

 maximal supplied QI-value         = 18.90
 optimisation between [QCUT,QGAM] = [ 10.20, 20.41] = [ 29.16,116.64] Ry 
 Optimized for a Real-space Cutoff    1.26 Angstroem

   l    n(q)    QCUT    max X(q) W(low)/X(q) W(high)/X(q)  e(spline) 
   1      7    10.205     2.974    0.63E-04    0.14E-03    0.13E-06
   1      7    10.205     4.279    0.11E-03    0.45E-03    0.24E-06
   0      8    10.205    16.381    0.44E-03    0.15E-03    0.55E-07
   0      8    10.205     5.611    0.31E-03    0.11E-03    0.40E-07
   2      7    10.205     4.652    0.50E-03    0.47E-03    0.57E-07
 Optimization of the real space projectors (new method)

 maximal supplied QI-value         = 16.25
 optimisation between [QCUT,QGAM] = [ 10.24, 20.48] = [ 29.35,117.42] Ry 
 Optimized for a Real-space Cutoff    1.34 Angstroem

   l    n(q)    QCUT    max X(q) W(low)/X(q) W(high)/X(q)  e(spline) 
   1      8    10.239     3.658    0.23E-03    0.30E-03    0.98E-07
   1      8    10.239     5.612    0.32E-03    0.65E-03    0.21E-06
   2      7    10.239    55.373    0.42E-03    0.45E-03    0.65E-07
   2      7    10.239    50.863    0.43E-03    0.48E-03    0.67E-07
   0      8    10.239    79.536    0.11E-03    0.21E-03    0.56E-07
   0      8    10.239    38.668    0.96E-04    0.19E-03    0.52E-07
 Optimization of the real space projectors (new method)

 maximal supplied QI-value         = 24.76
 optimisation between [QCUT,QGAM] = [ 10.15, 20.30] = [ 28.85,115.39] Ry 
 Optimized for a Real-space Cutoff    1.38 Angstroem

   l    n(q)    QCUT    max X(q) W(low)/X(q) W(high)/X(q)  e(spline) 
   0      8    10.150    20.381    0.22E-03    0.32E-03    0.29E-06
   0      8    10.150    15.268    0.23E-03    0.35E-03    0.30E-06
   1      8    10.150     5.964    0.46E-03    0.53E-03    0.21E-06
   1      8    10.150     5.382    0.38E-03    0.45E-03    0.19E-06
  PAW_PBE Na_pv 19Sep2006               :
 energy of atom  1       EATOM= -766.0439
 kinetic energy error for atom=    0.0103 (will be added to EATOM!!)
  PAW_PBE Mg_pv 13Apr2007               :
 energy of atom  2       EATOM=-1056.7344
 kinetic energy error for atom=    0.0820 (will be added to EATOM!!)
  PAW_PBE Mn_pv 02Aug2007               :
 energy of atom  3       EATOM=-2025.2664
 kinetic energy error for atom=    0.0284 (will be added to EATOM!!)
  PAW_PBE O 08Apr2002                   :
 energy of atom  4       EATOM= -432.3788
 kinetic energy error for atom=    0.1156 (will be added to EATOM!!)
 
 
 POSCAR: Na Mg Mn  O                             
  positions in cartesian coordinates
  No initial velocities read in

 METAGGA = SCAN     LMAXTAU =  6    LMIXTAU =  F

 exchange correlation table for  LEXCH =        8
   RHO(1)=    0.500       N(1)  =     2000
   RHO(2)=  100.500       N(2)  =     4000

 VTST: version 3.2, (02/03/18)

 CHAIN: initializing optimizer
 
 OPT: Using VASP Dynamics algorithm
 CHAIN: Read ICHAIN            0
 
 POSCAR: Na Mg Mn  O                             
  positions in cartesian coordinates
  No initial velocities read in
 


--------------------------------------------------------------------------------------------------------


 ion  position               nearest neighbor table
   1  0.800  0.122  0.249-  62 2.31  53 2.32
   2  0.596  0.081  0.765-  49 2.27  59 2.35  29 2.80  31 2.95
   3  0.224  0.890  0.756-  70 2.29  73 2.33  47 2.35  36 2.95
   4  0.272  0.247  0.745-  48 2.34
   5  0.065  0.739  0.249-  75 2.25  66 2.29
   6  0.432  0.943  0.240-  42 2.20  51 2.27  79 2.29  29 2.96
   7  0.648  0.392  0.759-  49 2.19  46 2.29  71 2.33
   8  0.071  0.528  0.758-  60 2.15  57 2.28  37 2.80  39 2.91
   9  0.417  0.380  0.244-  43 2.31  41 2.33  50 2.35
  10  0.254  0.555  0.251-  64 2.22  78 2.37
  11  0.762  0.402  0.241-  53 2.31  62 2.35
  12  0.803  0.759  0.736-  69 2.25  68 2.32  72 2.37  71 2.37
  13  0.415  0.620  0.744-  80 2.26  85 2.33  83 2.37
  14  0.917  0.090  0.743-  56 2.23  61 2.37
  15  0.072  0.073  0.242-  54 2.26  63 2.35  41 2.38  25 2.82  27 2.94
  16  0.638  0.758  0.256-  74 2.21  65 2.35
  17  0.768  0.418  0.997-  66 1.96  60 1.96  53 1.98  43 2.09  71 2.12  49 2.13  37 2.80  34 2.81

  18  0.428  0.254  0.492-  52 2.01  44 2.05  51 2.05  46 2.06  50 2.10  45 2.11  35 2.78  27 2.83
                            36 2.85
  19  0.251  0.402  0.000-  55 1.99  61 2.00  83 2.06  48 2.11  41 2.12  78 2.22  30 2.79
  20  0.942  0.262  0.502-  58 1.98  64 2.02  57 2.04  62 2.09  63 2.11  56 2.21  32 2.81
  21  0.250  0.899  0.012-  77 2.00  67 2.06  73 2.08  42 2.10  47 2.13  84 2.13  37 2.84  38 2.84
                            34 2.84
  22  0.927  0.750  0.487-  74 1.88  76 1.96  75 2.09  68 2.14  69 2.14  70 2.17
  23  0.753  0.900  0.991-  59 1.94  72 2.00  85 2.01  65 2.08  54 2.08  79 2.16  33 2.81
  24  0.433  0.765  0.490-  88 1.95  86 2.04  81 2.04  87 2.12  82 2.15  80 2.15  31 2.77  36 2.81
                            40 2.85
  25  0.088  0.066  0.991-  72 1.83  67 1.85  54 1.91  47 1.94  41 1.98  61 2.02  34 2.82  15 2.82
                            30 2.88  26 2.92
  26  0.425  0.244  0.996-  49 1.88  41 1.92  42 1.93  48 1.94  43 1.96  47 1.99  33 2.89  29 2.90
                            25 2.92
  27  0.103  0.090  0.504-  63 1.90  50 1.91  69 1.92  44 1.93  76 1.96  58 1.96  18 2.83  36 2.89
                            32 2.93  15 2.94  40 2.96
  28  0.764  0.415  0.508-  57 1.79  46 1.89  68 1.91  62 2.00  52 2.02  75 2.09  35 2.85  31 2.87
                            39 2.93
  29  0.596  0.082  0.015-  42 1.89  53 1.90  59 1.95  84 1.95  49 1.98  79 2.00   2 2.80  26 2.90
                            30 2.91  38 2.93   6 2.96
  30  0.930  0.239  0.992-  59 1.89  60 1.90  61 1.91  54 1.94  55 1.95  53 1.98  19 2.79  25 2.88
                            37 2.89  29 2.91
  31  0.598  0.084  0.503-  46 1.90  81 1.95  51 1.96  62 2.00  56 2.01  88 2.05  24 2.77  36 2.84
                            28 2.87  40 2.89   2 2.95
  32  0.267  0.428  0.496-  64 1.83  80 1.88  58 1.94  45 1.94  87 1.96  50 1.99  20 2.81  35 2.85
                            39 2.86  27 2.93
  33  0.592  0.577  0.999-  85 1.87  71 1.90  43 1.92  65 1.96  78 1.98  48 2.02  23 2.81  34 2.88
                            26 2.89  38 2.93
  34  0.924  0.742  0.991-  73 1.88  65 1.88  67 1.89  71 1.94  72 1.95  66 2.00  17 2.81  25 2.82
                            21 2.84  33 2.88  37 2.92
  35  0.595  0.574  0.503-  68 1.84  45 1.88  87 1.90  74 1.90  82 1.99  52 1.99  18 2.78  32 2.85
                            28 2.85  40 2.96
  36  0.270  0.925  0.496-  51 1.89  44 1.89  81 1.93  76 1.94  86 1.94  70 1.99  24 2.81  31 2.84
                            18 2.85  27 2.89  39 2.89   3 2.95
  37  0.090  0.572  0.005-  55 1.87  73 1.92  77 1.93  83 1.93  66 1.93  60 1.99   8 2.80  17 2.80
                            21 2.84  30 2.89  38 2.89  34 2.92
  38  0.423  0.745  0.017-  84 1.90  77 1.94  85 1.96  83 1.96  78 2.00  79 2.05  21 2.84  37 2.89
                            33 2.93  29 2.93
  39  0.102  0.593  0.504-  70 1.79  80 1.87  75 1.90  64 1.93  86 1.98  57 2.03  32 2.86  36 2.89
                             8 2.91  28 2.93
  40  0.762  0.915  0.498-  56 1.86  88 1.87  74 1.88  82 1.92  63 1.93  69 1.95  24 2.85  31 2.89
                            35 2.96  27 2.96
  41  0.256  0.220  0.093-  26 1.92  25 1.98  19 2.12   9 2.33  15 2.38
  42  0.435  0.092  0.094-  29 1.89  26 1.93  21 2.10   6 2.20
  43  0.586  0.412  0.091-  33 1.92  26 1.96  17 2.09   9 2.31
  44  0.262  0.077  0.591-  36 1.89  27 1.93  18 2.05
  45  0.427  0.430  0.595-  35 1.88  32 1.94  18 2.11
  46  0.600  0.249  0.589-  28 1.89  31 1.90  18 2.06   7 2.29
  47  0.258  0.075  0.901-  25 1.94  26 1.99  21 2.13   3 2.35
  48  0.429  0.406  0.898-  26 1.94  33 2.02  19 2.11   4 2.34
  49  0.578  0.230  0.909-  26 1.88  29 1.98  17 2.13   7 2.19   2 2.27
  50  0.244  0.250  0.401-  27 1.91  32 1.99  18 2.10   9 2.35
  51  0.433  0.077  0.404-  36 1.89  31 1.96  18 2.05   6 2.27
  52  0.605  0.419  0.400-  35 1.99  18 2.01  28 2.02
  53  0.770  0.250  0.089-  29 1.90  17 1.98  30 1.98  11 2.31   1 2.32
  54  0.934  0.077  0.085-  25 1.91  30 1.94  23 2.08  15 2.26
  55  0.083  0.407  0.090-  37 1.87  30 1.95  19 1.99
  56  0.756  0.061  0.596-  40 1.86  31 2.01  20 2.21  14 2.23
  57  0.920  0.425  0.594-  28 1.79  39 2.03  20 2.04   8 2.28
  58  0.112  0.262  0.594-  32 1.94  27 1.96  20 1.98
  59  0.754  0.077  0.918-  30 1.89  23 1.94  29 1.95   2 2.35
  60  0.928  0.402  0.907-  30 1.90  17 1.96  37 1.99   8 2.15
  61  0.088  0.239  0.898-  30 1.91  19 2.00  25 2.02  14 2.37
  62  0.761  0.252  0.403-  28 2.00  31 2.00  20 2.09   1 2.31  11 2.35
  63  0.935  0.074  0.412-  27 1.90  40 1.93  20 2.11  15 2.35
  64  0.116  0.437  0.412-  32 1.83  39 1.93  20 2.02  10 2.22
  65  0.768  0.733  0.090-  34 1.88  33 1.96  23 2.08  16 2.35
  66  0.930  0.581  0.094-  37 1.93  17 1.96  34 2.00   5 2.29
  67  0.066  0.907  0.088-  25 1.85  34 1.89  21 2.06
  68  0.748  0.572  0.592-  35 1.84  28 1.91  22 2.14  12 2.32
  69  0.933  0.932  0.591-  27 1.92  40 1.95  22 2.14  12 2.25
  70  0.110  0.748  0.589-  39 1.79  36 1.99  22 2.17   3 2.29
  71  0.751  0.590  0.899-  33 1.90  34 1.94  17 2.12   7 2.33  12 2.37
  72  0.933  0.914  0.903-  25 1.83  34 1.95  23 2.00  12 2.37
  73  0.079  0.725  0.910-  34 1.88  37 1.92  21 2.08   3 2.33
  74  0.753  0.744  0.419-  40 1.88  22 1.88  35 1.90  16 2.21
  75  0.943  0.573  0.400-  39 1.90  28 2.09  22 2.09   5 2.25
  76  0.103  0.926  0.410-  36 1.94  27 1.96  22 1.96
  77  0.248  0.727  0.105-  37 1.93  38 1.94  21 2.00
  78  0.440  0.583  0.109-  33 1.98  38 2.00  19 2.22  10 2.37
  79  0.597  0.917  0.115-  29 2.00  38 2.05  23 2.16   6 2.29
  80  0.254  0.577  0.589-  39 1.87  32 1.88  24 2.15  13 2.26
  81  0.428  0.927  0.597-  36 1.93  31 1.95  24 2.04
  82  0.607  0.751  0.593-  40 1.92  35 1.99  24 2.15
  83  0.262  0.589  0.915-  37 1.93  38 1.96  19 2.06  13 2.37
  84  0.442  0.910  0.922-  38 1.90  29 1.95  21 2.13
  85  0.568  0.723  0.914-  33 1.87  38 1.96  23 2.01  13 2.33
  86  0.254  0.758  0.399-  36 1.94  39 1.98  24 2.04
  87  0.445  0.582  0.405-  35 1.90  32 1.96  24 2.12
  88  0.612  0.921  0.403-  40 1.87  24 1.95  31 2.05
 
  LATTYP: Found a hexagonal cell.
 ALAT       =    10.0190000534
 C/A-ratio  =     1.1196726572
  
  Lattice vectors:
  
 A1 = (  10.0190000534,   0.0000000000,   0.0000000000)
 A2 = (  -5.0095000267,   8.6767085668,   0.0000000000)
 A3 = (   0.0000000000,   0.0000000000,  11.2180004120)


Analysis of symmetry for initial positions (statically):
=====================================================================
 Subroutine PRICEL returns:
 Original cell was already a primitive cell.
 

 Routine SETGRP: Setting up the symmetry group for a 
 hexagonal supercell.


 Subroutine GETGRP returns: Found  1 space group operations
 (whereof  1 operations were pure point group operations)
 out of a pool of 24 trial point group operations.


The static configuration has the point symmetry C_1 .


Analysis of symmetry for dynamics (positions and initial velocities):
=====================================================================
 Subroutine PRICEL returns:
 Original cell was already a primitive cell.
 

 Routine SETGRP: Setting up the symmetry group for a 
 hexagonal supercell.


 Subroutine GETGRP returns: Found  1 space group operations
 (whereof  1 operations were pure point group operations)
 out of a pool of 24 trial point group operations.


The dynamic configuration has the point symmetry C_1 .


Analysis of structural, dynamic, and magnetic symmetry:
=====================================================================
 Subroutine PRICEL returns:
 Original cell was already a primitive cell.
 

 Routine SETGRP: Setting up the symmetry group for a 
 hexagonal supercell.


 Subroutine GETGRP returns: Found  1 space group operations
 (whereof  1 operations were pure point group operations)
 out of a pool of 24 trial point group operations.


The magnetic configuration has the point symmetry C_1 .


 Subroutine INISYM returns: Found  1 space group operations
 (whereof  1 operations are pure point group operations),
 and found     1 'primitive' translations

 
 

Automatic generation of k-mesh.
 generate k-points for:    2    2    2
Space group operators:
 irot       det(A)        alpha          n_x          n_y          n_z        tau_x        tau_y        tau_z
    1     1.000000     0.000000     1.000000     0.000000     0.000000     0.000000     0.000000     0.000000
 
 Subroutine IBZKPT returns following result:
 ===========================================
 
 Found      8 irreducible k-points:
 
 Following reciprocal coordinates:
            Coordinates               Weight
  0.000000  0.000000  0.000000      1.000000
  0.500000 -0.000000 -0.000000      1.000000
  0.000000  0.500000  0.000000      1.000000
  0.500000  0.500000 -0.000000      1.000000
  0.000000  0.000000  0.500000      1.000000
  0.500000 -0.000000  0.500000      1.000000
  0.000000  0.500000  0.500000      1.000000
  0.500000  0.500000  0.500000      1.000000
 
 Following cartesian coordinates:
            Coordinates               Weight
  0.000000  0.000000  0.000000      1.000000
  0.049905  0.028813 -0.000000      1.000000
  0.000000  0.057626  0.000000      1.000000
  0.049905  0.086438 -0.000000      1.000000
  0.000000  0.000000  0.044571      1.000000
  0.049905  0.028813  0.044571      1.000000
  0.000000  0.057626  0.044571      1.000000
  0.049905  0.086438  0.044571      1.000000
 


--------------------------------------------------------------------------------------------------------




 Dimension of arrays:
   k-points           NKPTS =      8   k-points in BZ     NKDIM =      8   number of bands    NBANDS=    448
   number of dos      NEDOS =    301   number of ions     NIONS =     88
   non local maximal  LDIM  =      6   non local SUM 2l+1 LMDIM =     18
   total plane-waves  NPLWV = 140000
   max r-space proj   IRMAX =   1632   max aug-charges    IRDMAX=   4555
   dimension x,y,z NGX =    50 NGY =   50 NGZ =   56
   dimension x,y,z NGXF=   100 NGYF=  100 NGZF=  112
   support grid    NGXF=   100 NGYF=  100 NGZF=  112
   ions per type =              16   8  16  48
   NGX,Y,Z   is equivalent  to a cutoff of   8.30,  8.30,  8.30 a.u.
   NGXF,Y,Z  is equivalent  to a cutoff of  16.59, 16.59, 16.60 a.u.

 SYSTEM =  unknown system                          
 POSCAR =  Na Mg Mn  O                             

 Startparameter for this run:
   NWRITE =      2    write-flag & timer
   PREC   = normal    normal or accurate (medium, high low for compatibility)
   ISTART =      0    job   : 0-new  1-cont  2-samecut
   ICHARG =      1    charge: 1-file 2-atom 10-const
   ISPIN  =      2    spin polarized calculation?
   LNONCOLLINEAR =      F non collinear calculations
   LSORBIT =      F    spin-orbit coupling
   INIWAV =      1    electr: 0-lowe 1-rand  2-diag
   LASPH  =      T    aspherical Exc in radial PAW
   METAGGA=      F    non-selfconsistent MetaGGA calc.

 Electronic Relaxation 1
   ENCUT  =  400.0 eV  29.40 Ry    5.42 a.u.  16.34 16.34 18.29*2*pi/ulx,y,z
   ENINI  =  400.0     initial cutoff
   ENAUG  =  758.8 eV  augmentation charge cutoff
   NELM   =    200;   NELMIN=  6; NELMDL=-12     # of ELM steps 
   EDIFF  = 0.1E-04   stopping-criterion for ELM
   LREAL  =      T    real-space projection
   NLSPLINE    = F    spline interpolate recip. space projectors
   LCOMPAT=      F    compatible to vasp.4.4
   GGA_COMPAT  = T    GGA compatible to vasp.4.4-vasp.4.6
   LMAXPAW     = -100 max onsite density
   LMAXMIX     =    4 max onsite mixed and CHGCAR
   VOSKOWN=      0    Vosko Wilk Nusair interpolation
   ROPT   =   -0.00050  -0.00050  -0.00050  -0.00050
 Ionic relaxation
   EDIFFG = 0.1E-03   stopping-criterion for IOM
   NSW    =      1    number of steps for IOM
   NBLOCK =      1;   KBLOCK =      1    inner block; outer block 
   IBRION =     -1    ionic relax: 0-MD 1-quasi-New 2-CG
   NFREE  =      0    steps in history (QN), initial steepest desc. (CG)
   ISIF   =      2    stress and relaxation
   IWAVPR =     10    prediction:  0-non 1-charg 2-wave 3-comb
   ISYM   =      2    0-nonsym 1-usesym 2-fastsym
   LCORR  =      T    Harris-Foulkes like correction to forces

   POTIM  = 0.5000    time-step for ionic-motion
   TEIN   =    0.0    initial temperature
   TEBEG  =    0.0;   TEEND  =   0.0 temperature during run
   SMASS  =  -3.00    Nose mass-parameter (am)
   estimated Nose-frequenzy (Omega)   =  0.10E-29 period in steps =****** mass=  -0.229E-26a.u.
   SCALEE = 1.0000    scale energy and forces
   NPACO  =    256;   APACO  = 16.0  distance and # of slots for P.C.
   PSTRESS=    0.0 pullay stress

  Mass of Ions in am
   POMASS =  22.99 24.30 54.94 16.00
  Ionic Valenz
   ZVAL   =   7.00  8.00 13.00  6.00
  Atomic Wigner-Seitz radii
   RWIGS  =  -1.00 -1.00 -1.00 -1.00
  virtual crystal weights 
   VCA    =   1.00  1.00  1.00  1.00
   NELECT =     672.0000    total number of electrons
   NUPDOWN=      48.0000    fix difference up-down

 DOS related values:
   EMIN   =  10.00;   EMAX   =-10.00  energy-range for DOS
   EFERMI =   0.00
   ISMEAR =     0;   SIGMA  =   0.05  broadening in eV -4-tet -1-fermi 0-gaus

 Electronic relaxation 2 (details)
   IALGO  =     48    algorithm
   LDIAG  =      T    sub-space diagonalisation (order eigenvalues)
   LSUBROT=      F    optimize rotation matrix (better conditioning)
   TURBO    =      0    0=normal 1=particle mesh
   IRESTART =      0    0=no restart 2=restart with 2 vectors
   NREBOOT  =      0    no. of reboots
   NMIN     =      0    reboot dimension
   EREF     =   0.00    reference energy to select bands
   IMIX   =      4    mixing-type and parameters
     AMIX     =   0.40;   BMIX     =  1.00
     AMIX_MAG =   1.60;   BMIX_MAG =  1.00
     AMIN     =   0.10
     WC   =   100.;   INIMIX=   1;  MIXPRE=   1;  MAXMIX= -45

 Intra band minimization:
   WEIMIN = 0.0000     energy-eigenvalue tresh-hold
   EBREAK =  0.56E-08  absolut break condition
   DEPER  =   0.30     relativ break condition  

   TIME   =   0.40     timestep for ELM

  volume/ion in A,a.u.               =      11.08        74.78
  Fermi-wavevector in a.u.,A,eV,Ry     =   1.445993  2.732531 28.448379  2.090897
  Thomas-Fermi vector in A             =   2.564112
 
 Write flags
   LWAVE        =      F    write WAVECAR
   LDOWNSAMPLE  =      F    k-point downsampling of WAVECAR
   LCHARG       =      F    write CHGCAR
   LVTOT        =      F    write LOCPOT, total local potential
   LVHAR        =      F    write LOCPOT, Hartree potential only
   LELF         =      F    write electronic localiz. function (ELF)
   LORBIT       =     11    0 simple, 1 ext, 2 COOP (PROOUT), +10 PAW based schemes


 Dipole corrections
   LMONO  =      F    monopole corrections only (constant potential shift)
   LDIPOL =      F    correct potential (dipole corrections)
   IDIPOL =      0    1-x, 2-y, 3-z, 4-all directions 
   EPSILON=  1.0000000 bulk dielectric constant

 Exchange correlation treatment:
   GGA     =    --    GGA type
   LEXCH   =     8    internal setting for exchange type
   VOSKOWN=      0    Vosko Wilk Nusair interpolation
   LHFCALC =     F    Hartree Fock is set to
   LHFONE  =     F    Hartree Fock one center treatment
   AEXX    =    0.0000 exact exchange contribution

 Linear response parameters
   LEPSILON=     F    determine dielectric tensor
   LRPA    =     F    only Hartree local field effects (RPA)
   LNABLA  =     F    use nabla operator in PAW spheres
   LVEL    =     F    velocity operator in full k-point grid
   LINTERFAST=   F  fast interpolation
   KINTER  =     0    interpolate to denser k-point grid
   CSHIFT  =0.1000    complex shift for real part using Kramers Kronig
   OMEGAMAX=  -1.0    maximum frequency
   DEG_THRESHOLD= 0.2000000E-02 threshold for treating states as degnerate
   RTIME   =   -0.100 relaxation time in fs
  (WPLASMAI=    0.000 imaginary part of plasma frequency in eV, 0.658/RTIME)
   DFIELD  = 0.0000000 0.0000000 0.0000000 field for delta impulse in time
 
 Orbital magnetization related:
   ORBITALMAG=     F  switch on orbital magnetization
   LCHIMAG   =     F  perturbation theory with respect to B field
   DQ        =  0.001000  dq finite difference perturbation B field
   LLRAUG    =     F  two centre corrections for induced B field



--------------------------------------------------------------------------------------------------------


 Static calculation
 charge density and potential will be updated during run
 spin polarized calculation
 RMM-DIIS sequential band-by-band
 perform sub-space diagonalisation
    before iterative eigenvector-optimisation
 modified Broyden-mixing scheme, WC =      100.0
 initial mixing is a Kerker type mixing with AMIX =  0.4000 and BMIX =      1.0000
 Hartree-type preconditioning will be used
 using additional bands          112
 real space projection scheme for non local part
 use partial core corrections
 calculate Harris-corrections to forces 
   (improved forces if not selfconsistent)
 use gradient corrections 
 use of overlap-Matrix (Vanderbilt PP)
 Gauss-broadening in eV      SIGMA  =   0.05


--------------------------------------------------------------------------------------------------------


  energy-cutoff  :      400.00
  volume of cell :      975.20
      direct lattice vectors                 reciprocal lattice vectors
    10.019000053  0.000000000  0.000000000     0.099810360  0.057625538 -0.000000000
    -5.009500027  8.676708567  0.000000000     0.000000000  0.115251076  0.000000000
     0.000000000  0.000000000 11.218000412     0.000000000  0.000000000  0.089142446

  length of vectors
    10.019000053 10.019000053 11.218000412     0.115251076  0.115251076  0.089142446


 
 k-points in units of 2pi/SCALE and weight: read from INCAR                         
   0.00000000  0.00000000  0.00000000       0.125
   0.04990518  0.02881277 -0.00000000       0.125
   0.00000000  0.05762554  0.00000000       0.125
   0.04990518  0.08643831 -0.00000000       0.125
   0.00000000  0.00000000  0.04457122       0.125
   0.04990518  0.02881277  0.04457122       0.125
   0.00000000  0.05762554  0.04457122       0.125
   0.04990518  0.08643831  0.04457122       0.125
 
 k-points in reciprocal lattice and weights: read from INCAR                         
   0.00000000  0.00000000  0.00000000       0.125
   0.50000000 -0.00000000 -0.00000000       0.125
   0.00000000  0.50000000  0.00000000       0.125
   0.50000000  0.50000000 -0.00000000       0.125
   0.00000000  0.00000000  0.50000000       0.125
   0.50000000 -0.00000000  0.50000000       0.125
   0.00000000  0.50000000  0.50000000       0.125
   0.50000000  0.50000000  0.50000000       0.125
 
 position of ions in fractional coordinates (direct lattice) 
   0.80004685  0.12172259  0.24874308
   0.59570201  0.08055458  0.76526294
   0.22371375  0.89012239  0.75647795
   0.27232992  0.24710522  0.74459437
   0.06511208  0.73912524  0.24949188
   0.43158082  0.94336266  0.24012925
   0.64817075  0.39229919  0.75896770
   0.07050302  0.52753167  0.75817077
   0.41703449  0.37963243  0.24368514
   0.25381499  0.55450091  0.25103761
   0.76205316  0.40209816  0.24074611
   0.80333751  0.75924512  0.73567656
   0.41472920  0.62041564  0.74441342
   0.91720943  0.08995330  0.74347831
   0.07223938  0.07301452  0.24213317
   0.63786119  0.75832343  0.25580495
   0.76820098  0.41771946  0.99675944
   0.42843144  0.25402029  0.49249151
   0.25109580  0.40182749  0.00012476
   0.94249152  0.26229416  0.50190228
   0.25019993  0.89861725  0.01233437
   0.92716526  0.74958954  0.48709305
   0.75306126  0.90015585  0.99088830
   0.43337469  0.76502166  0.49019075
   0.08828756  0.06607706  0.99122980
   0.42513475  0.24396348  0.99573637
   0.10263535  0.09025404  0.50358618
   0.76425056  0.41512055  0.50797021
   0.59626660  0.08237011  0.01467775
   0.92999461  0.23914483  0.99238720
   0.59791614  0.08422433  0.50255124
   0.26655961  0.42767715  0.49596896
   0.59199779  0.57653775  0.99928552
   0.92411489  0.74154847  0.99145982
   0.59455034  0.57419700  0.50346138
   0.27036801  0.92541313  0.49630859
   0.09022364  0.57182167  0.00500955
   0.42292654  0.74452541  0.01741442
   0.10228806  0.59276856  0.50363878
   0.76162886  0.91478582  0.49778925
   0.25625881  0.22011918  0.09293457
   0.43518581  0.09154139  0.09407916
   0.58559909  0.41182898  0.09126939
   0.26188875  0.07748346  0.59117309
   0.42680445  0.43008359  0.59537348
   0.60031992  0.24861271  0.58887233
   0.25765582  0.07461896  0.90127470
   0.42934755  0.40563193  0.89801209
   0.57814268  0.23035463  0.90875376
   0.24412992  0.25007640  0.40063022
   0.43336635  0.07734055  0.40424673
   0.60544102  0.41934796  0.39955427
   0.76979290  0.25019165  0.08859217
   0.93437492  0.07731757  0.08471849
   0.08316235  0.40742062  0.08984667
   0.75602302  0.06121462  0.59617666
   0.91971171  0.42495492  0.59376981
   0.11175474  0.26228840  0.59364947
   0.75432893  0.07657881  0.91759669
   0.92758146  0.40234727  0.90714919
   0.08823864  0.23864118  0.89783381
   0.76077637  0.25226040  0.40251291
   0.93543883  0.07411352  0.41152165
   0.11571802  0.43727296  0.41164823
   0.76811806  0.73316396  0.09025049
   0.92985178  0.58058191  0.09378855
   0.06648208  0.90653039  0.08795703
   0.74788470  0.57224810  0.59228202
   0.93314680  0.93162746  0.59136029
   0.11013431  0.74822151  0.58878942
   0.75146932  0.58979162  0.89917094
   0.93342428  0.91350193  0.90305755
   0.07852434  0.72480595  0.90993935
   0.75274400  0.74448392  0.41920127
   0.94348272  0.57348705  0.40021036
   0.10254607  0.92553529  0.40990282
   0.24770981  0.72718128  0.10478873
   0.44036607  0.58263453  0.10862007
   0.59663792  0.91664943  0.11452130
   0.25375105  0.57713359  0.58930199
   0.42814633  0.92709233  0.59680155
   0.60674150  0.75095181  0.59288909
   0.26150271  0.58874053  0.91465499
   0.44245977  0.90985077  0.92152787
   0.56823634  0.72300227  0.91379030
   0.25415624  0.75764674  0.39851755
   0.44462218  0.58161686  0.40484399
   0.61190876  0.92081922  0.40250935
 
 position of ions in cartesian coordinates  (Angst):
   7.40590011  1.05615140  2.79040000
   5.56480027  0.69894860  8.58472000
  -2.21768003  7.72333257  8.48617000
   1.49059989  2.14406000  8.35286000
  -3.05028997  6.41317430  2.79880000
  -0.40176700  8.18528287  2.69377000
   4.52880000  3.40386573  8.51410000
  -1.93630013  4.57723857  8.50516000
   2.27649987  3.29395997  2.73366000
  -0.23479992  4.81124283  2.81614000
   5.62069992  3.48888857  2.70069000
   4.24520016  6.58774860  8.25282000
   1.04719968  5.38316573  8.35083000
   8.73890029  0.78049857  8.34034000
   0.35800013  0.63352570  2.71625000
   2.59191005  6.57975140  2.86962000
   5.60404000  3.62443000 11.18164781
   3.01994000  2.20406000  5.52477000
   0.50277400  3.48654000  0.00139959
   8.12886000  2.27585000  5.63034000
  -1.99487000  7.79704000  0.13836700
   5.53420000  6.50397000  5.46421000
   3.03559000  7.81039000 11.11578541
   0.50960500  6.63787000  5.49896000
   0.55353997  0.57333143 11.11961631
   3.03729000  2.11680000 11.17017101
   0.57617600  0.78310800  5.64923000
   5.57748000  3.60188000  5.69841000
   5.56136203  0.71470143  0.16465500
   8.11962000  2.07499000 11.13260000
   5.56860000  0.73079000  5.63762000
   0.52821200  3.71083000  5.56378000
   3.04306000  5.00245000 11.20998542
   5.54392000  6.43420000 11.12219671
   3.08036000  4.98214000  5.64783000
  -1.92704000  8.02954000  5.56759000
  -1.96059000  4.96153000  0.05619710
   0.50760100  6.46003000  0.19535500
  -1.94465000  5.14328000  5.64982000
   3.04814000  7.93733000  5.58420000
   1.46477000  1.90991000  1.04254000
   3.90155000  0.79427800  1.05538000
   3.80406000  3.57332000  1.02386000
   2.23571003  0.67230143  6.63178000
   2.12165000  3.73171000  6.67890000
   4.76918000  2.15714000  6.60597000
   2.20765000  0.64744700 10.11050000
   2.26962000  3.51955000 10.07390000
   4.63845000  1.99872000 10.19440000
   1.19318000  2.16984000  4.49427000
   3.95446003  0.67106143  4.53484000
   3.96519000  3.63856000  4.48220000
   6.45922000  2.17084000  0.99382700
   8.97418000  0.67086200  0.95037200
  -1.20777005  3.53507000  1.00790000
   7.26794003  0.53114143  6.68791000
   7.08578000  3.68721000  6.66091000
  -0.19426300  2.27580000  6.65956000
   7.17400000  0.66445200 10.29360000
   7.27788000  3.49105000 10.17640000
  -0.31141005  2.07062000 10.07190000
   6.35852000  2.18879000  4.51539000
   9.00089003  0.64306143  4.61645000
  -1.03114000  3.79409000  4.61787000
   4.02299000  6.36145000  1.01243000
   6.40776000  5.03754000  1.05212000
  -3.87518005  7.86570000  0.98670200
   4.62638000  4.96523000  6.64422000
   4.68221000  8.08346000  6.63388000
  -2.64478000  6.49210000  6.60504000
   4.57441000  5.11745000 10.08690000
   4.77579000  7.92619000 10.13050000
  -2.84418005  6.28893000 10.20770000
   3.81225000  6.45967000  4.70260000
   6.57987000  4.97598000  4.48956000
  -3.60906000  8.03060000  4.59829000
  -1.16101000  6.30954000  1.17552000
   1.49332000  5.05535000  1.21850000
   1.38576000  7.95350000  1.28470000
  -0.34881900  5.00762000  6.61079000
  -0.35467100  8.04411000  6.69492000
   2.31705000  6.51579000  6.65103000
  -0.32930000  5.10833000 10.26060000
  -0.12489300  7.89451000 10.33770000
   2.07128000  6.27328000 10.25090000
  -1.24904000  6.57388000  4.47057000
   1.54106000  5.04652000  4.54154000
   1.51787000  7.98968000  4.51535000
 


--------------------------------------------------------------------------------------------------------


 k-point  1 :   0.0000 0.0000 0.0000  plane waves:   17725
 k-point  2 :   0.5000-0.0000-0.0000  plane waves:   17736
 k-point  3 :   0.0000 0.5000 0.0000  plane waves:   17736
 k-point  4 :   0.5000 0.5000-0.0000  plane waves:   17736
 k-point  5 :   0.0000 0.0000 0.5000  plane waves:   17676
 k-point  6 :   0.5000-0.0000 0.5000  plane waves:   17700
 k-point  7 :   0.0000 0.5000 0.5000  plane waves:   17700
 k-point  8 :   0.5000 0.5000 0.5000  plane waves:   17700

 maximum and minimum number of plane-waves per node :     17736    17676

 maximum number of plane-waves:     17736
 maximum index in each direction: 
   IXMAX=   16   IYMAX=   16   IZMAX=   18
   IXMIN=  -16   IYMIN=  -16   IZMIN=  -18


 serial   3D FFT for wavefunctions
 parallel 3D FFT for charge:
    minimum data exchange during FFTs selected (reduces bandwidth)


 total amount of memory used by VASP MPI-rank0    88184. kBytes
=======================================================================

   base      :      30000. kBytes
   nonlr-proj:      13675. kBytes
   fftplans  :        992. kBytes
   grid      :      21513. kBytes
   one-center:       2737. kBytes
   wavefun   :      19267. kBytes
 
     INWAV:  cpu time    0.0000: real time    0.0001
 Broyden mixing: mesh for mixing (old mesh)
   NGX = 33   NGY = 33   NGZ = 37
  (NGX  =100   NGY  =100   NGZ  =112)
  gives a total of  40293 points

 initial charge density was supplied:
 charge density of overlapping atoms calculated
 number of electron     672.0000000 magnetization      48.0000000
 keeping initial charge density in first step


--------------------------------------------------------------------------------------------------------


 Maximum index for non-local projection operator         1551
 Maximum index for augmentation-charges          170 (set IRDMAX)


--------------------------------------------------------------------------------------------------------


 First call to EWALD:  gamma=   0.179
 Maximum number of real-space cells 3x 3x 2
 Maximum number of reciprocal cells 3x 3x 3

    FEWALD:  cpu time    0.0027: real time    0.0033


--------------------------------------- Iteration      1(   1)  ---------------------------------------


    POTLOK:  cpu time    0.2058: real time    0.2074
    SETDIJ:  cpu time    3.1206: real time    3.1230
    EDDIAG:  cpu time    3.8121: real time    3.8236
  RMM-DIIS:  cpu time    6.7932: real time    6.8274
    ORTHCH:  cpu time    1.1705: real time    1.1741
       DOS:  cpu time    0.0022: real time    0.0022
    --------------------------------------------
      LOOP:  cpu time   15.1044: real time   15.1578

 eigenvalue-minimisations  :  7168
 total energy-change (2. order) : 0.1867644E+04  (-0.3590475E+05)
 number of electron     672.0000000 magnetization      48.0000000
 augmentation part      672.0000000 magnetization      48.0000000

 Free energy of the ion-electron system (eV)
  ---------------------------------------------------
  alpha Z        PSCENC =      2652.81237852
  Ewald energy   TEWEN  =    -42087.23807775
  -Hartree energ DENC   =    -25540.77212782
  -exchange      EXHF   =         0.00000000
  -V(xc)+E(xc)   XCENC  =      3605.14046278
  PAW double counting   =     55594.23204139   -59034.67079123
  entropy T*S    EENTRO =        -0.05239231
  eigenvalues    EBANDS =     -7184.00596362
  atomic energy  EATOM  =     73862.19814772
  Solvation  Ediel_sol  =         0.00000000
  ---------------------------------------------------
  free energy    TOTEN  =      1867.64367767 eV

  energy without entropy =     1867.69606998  energy(sigma->0) =     1867.66987382


--------------------------------------------------------------------------------------------------------




--------------------------------------- Iteration      1(   2)  ---------------------------------------


    EDDIAG:  cpu time    3.8094: real time    3.8174
  RMM-DIIS:  cpu time    6.8075: real time    6.8230
    ORTHCH:  cpu time    1.1679: real time    1.1718
       DOS:  cpu time    0.0016: real time    0.0016
    --------------------------------------------
      LOOP:  cpu time   11.7864: real time   11.8139

 eigenvalue-minimisations  :  7168
 total energy-change (2. order) :-0.2716754E+04  (-0.8676801E+04)
 number of electron     672.0000000 magnetization      48.0000000
 augmentation part      672.0000000 magnetization      48.0000000

 Free energy of the ion-electron system (eV)
  ---------------------------------------------------
  alpha Z        PSCENC =      2652.81237852
  Ewald energy   TEWEN  =    -42087.23807775
  -Hartree energ DENC   =    -25540.77212782
  -exchange      EXHF   =         0.00000000
  -V(xc)+E(xc)   XCENC  =      3605.14046278
  PAW double counting   =     55594.23204139   -59034.67079123
  entropy T*S    EENTRO =        -0.05901593
  eigenvalues    EBANDS =     -9900.75314712
  atomic energy  EATOM  =     73862.19814772
  Solvation  Ediel_sol  =         0.00000000
  ---------------------------------------------------
  free energy    TOTEN  =      -849.11012944 eV

  energy without entropy =     -849.05111352  energy(sigma->0) =     -849.08062148


--------------------------------------------------------------------------------------------------------




--------------------------------------- Iteration      1(   3)  ---------------------------------------


    EDDIAG:  cpu time    3.8585: real time    3.8637
  RMM-DIIS:  cpu time    6.7962: real time    6.8045
    ORTHCH:  cpu time    1.1745: real time    1.1770
       DOS:  cpu time    0.0015: real time    0.0015
    --------------------------------------------
      LOOP:  cpu time   11.8308: real time   11.8467

 eigenvalue-minimisations  :  7168
 total energy-change (2. order) : 0.3147274E+03  (-0.1554792E+04)
 number of electron     672.0000000 magnetization      48.0000000
 augmentation part      672.0000000 magnetization      48.0000000

 Free energy of the ion-electron system (eV)
  ---------------------------------------------------
  alpha Z        PSCENC =      2652.81237852
  Ewald energy   TEWEN  =    -42087.23807775
  -Hartree energ DENC   =    -25540.77212782
  -exchange      EXHF   =         0.00000000
  -V(xc)+E(xc)   XCENC  =      3605.14046278
  PAW double counting   =     55594.23204139   -59034.67079123
  entropy T*S    EENTRO =        -0.03639336
  eigenvalues    EBANDS =     -9586.04838812
  atomic energy  EATOM  =     73862.19814772
  Solvation  Ediel_sol  =         0.00000000
  ---------------------------------------------------
  free energy    TOTEN  =      -534.38274788 eV

  energy without entropy =     -534.34635451  energy(sigma->0) =     -534.36455119


--------------------------------------------------------------------------------------------------------




--------------------------------------- Iteration      1(   4)  ---------------------------------------


    EDDIAG:  cpu time    3.8707: real time    3.8835
  RMM-DIIS:  cpu time    6.8202: real time    6.8236
    ORTHCH:  cpu time    1.1960: real time    1.1991
       DOS:  cpu time    0.0011: real time    0.0011
    --------------------------------------------
      LOOP:  cpu time   11.8881: real time   11.9074

 eigenvalue-minimisations  :  7168
 total energy-change (2. order) :-0.5230510E+03  (-0.5076456E+03)
 number of electron     672.0000000 magnetization      48.0000000
 augmentation part      672.0000000 magnetization      48.0000000

 Free energy of the ion-electron system (eV)
  ---------------------------------------------------
  alpha Z        PSCENC =      2652.81237852
  Ewald energy   TEWEN  =    -42087.23807775
  -Hartree energ DENC   =    -25540.77212782
  -exchange      EXHF   =         0.00000000
  -V(xc)+E(xc)   XCENC  =      3605.14046278
  PAW double counting   =     55594.23204139   -59034.67079123
  entropy T*S    EENTRO =        -0.00000001
  eigenvalues    EBANDS =    -10109.13577739
  atomic energy  EATOM  =     73862.19814772
  Solvation  Ediel_sol  =         0.00000000
  ---------------------------------------------------
  free energy    TOTEN  =     -1057.43374379 eV

  energy without entropy =    -1057.43374378  energy(sigma->0) =    -1057.43374378


--------------------------------------------------------------------------------------------------------




--------------------------------------- Iteration      1(   5)  ---------------------------------------


    EDDIAG:  cpu time    3.8507: real time    3.8558
  RMM-DIIS:  cpu time    6.8094: real time    6.8130
    ORTHCH:  cpu time    1.2068: real time    1.2093
       DOS:  cpu time    0.0010: real time    0.0010
    --------------------------------------------
      LOOP:  cpu time   11.8679: real time   11.8791

 eigenvalue-minimisations  :  7168
 total energy-change (2. order) :-0.1486072E+03  (-0.2135930E+03)
 number of electron     672.0000000 magnetization      48.0000000
 augmentation part      672.0000000 magnetization      48.0000000

 Free energy of the ion-electron system (eV)
  ---------------------------------------------------
  alpha Z        PSCENC =      2652.81237852
  Ewald energy   TEWEN  =    -42087.23807775
  -Hartree energ DENC   =    -25540.77212782
  -exchange      EXHF   =         0.00000000
  -V(xc)+E(xc)   XCENC  =      3605.14046278
  PAW double counting   =     55594.23204139   -59034.67079123
  entropy T*S    EENTRO =        -0.00000000
  eigenvalues    EBANDS =    -10257.74295798
  atomic energy  EATOM  =     73862.19814772
  Solvation  Ediel_sol  =         0.00000000
  ---------------------------------------------------
  free energy    TOTEN  =     -1206.04092437 eV

  energy without entropy =    -1206.04092437  energy(sigma->0) =    -1206.04092437


--------------------------------------------------------------------------------------------------------




--------------------------------------- Iteration      1(   6)  ---------------------------------------


    EDDIAG:  cpu time    3.8558: real time    3.8595
  RMM-DIIS:  cpu time    6.7658: real time    6.7985
    ORTHCH:  cpu time    1.1737: real time    1.1760
       DOS:  cpu time    0.0012: real time    0.0012
    --------------------------------------------
      LOOP:  cpu time   11.7965: real time   11.8353

 eigenvalue-minimisations  :  7168
 total energy-change (2. order) :-0.2151701E+02  (-0.1156656E+03)
 number of electron     672.0000000 magnetization      48.0000000
 augmentation part      672.0000000 magnetization      48.0000000

 Free energy of the ion-electron system (eV)
  ---------------------------------------------------
  alpha Z        PSCENC =      2652.81237852
  Ewald energy   TEWEN  =    -42087.23807775
  -Hartree energ DENC   =    -25540.77212782
  -exchange      EXHF   =         0.00000000
  -V(xc)+E(xc)   XCENC  =      3605.14046278
  PAW double counting   =     55594.23204139   -59034.67079123
  entropy T*S    EENTRO =        -0.00000000
  eigenvalues    EBANDS =    -10279.25997096
  atomic energy  EATOM  =     73862.19814772
  Solvation  Ediel_sol  =         0.00000000
  ---------------------------------------------------
  free energy    TOTEN  =     -1227.55793736 eV

  energy without entropy =    -1227.55793736  energy(sigma->0) =    -1227.55793736


--------------------------------------------------------------------------------------------------------




--------------------------------------- Iteration      1(   7)  ---------------------------------------


    EDDIAG:  cpu time    3.8670: real time    3.8705
  RMM-DIIS:  cpu time    6.8197: real time    6.8249
    ORTHCH:  cpu time    1.1769: real time    1.1797
       DOS:  cpu time    0.0012: real time    0.0012
    --------------------------------------------
      LOOP:  cpu time   11.8649: real time   11.8763

 eigenvalue-minimisations  :  7168
 total energy-change (2. order) :-0.6639147E+01  (-0.7633025E+02)
 number of electron     672.0000000 magnetization      48.0000000
 augmentation part      672.0000000 magnetization      48.0000000

 Free energy of the ion-electron system (eV)
  ---------------------------------------------------
  alpha Z        PSCENC =      2652.81237852
  Ewald energy   TEWEN  =    -42087.23807775
  -Hartree energ DENC   =    -25540.77212782
  -exchange      EXHF   =         0.00000000
  -V(xc)+E(xc)   XCENC  =      3605.14046278
  PAW double counting   =     55594.23204139   -59034.67079123
  entropy T*S    EENTRO =        -0.00000000
  eigenvalues    EBANDS =    -10285.89911757
  atomic energy  EATOM  =     73862.19814772
  Solvation  Ediel_sol  =         0.00000000
  ---------------------------------------------------
  free energy    TOTEN  =     -1234.19708397 eV

  energy without entropy =    -1234.19708397  energy(sigma->0) =    -1234.19708397


--------------------------------------------------------------------------------------------------------




--------------------------------------- Iteration      1(   8)  ---------------------------------------


    EDDIAG:  cpu time    3.8563: real time    3.8590
  RMM-DIIS:  cpu time    6.8113: real time    6.8168
    ORTHCH:  cpu time    1.1675: real time    1.1699
       DOS:  cpu time    0.0012: real time    0.0012
    --------------------------------------------
      LOOP:  cpu time   11.8362: real time   11.8468

 eigenvalue-minimisations  :  7168
 total energy-change (2. order) : 0.4716973E+01  (-0.5273669E+02)
 number of electron     672.0000000 magnetization      48.0000000
 augmentation part      672.0000000 magnetization      48.0000000

 Free energy of the ion-electron system (eV)
  ---------------------------------------------------
  alpha Z        PSCENC =      2652.81237852
  Ewald energy   TEWEN  =    -42087.23807775
  -Hartree energ DENC   =    -25540.77212782
  -exchange      EXHF   =         0.00000000
  -V(xc)+E(xc)   XCENC  =      3605.14046278
  PAW double counting   =     55594.23204139   -59034.67079123
  entropy T*S    EENTRO =        -0.00000304
  eigenvalues    EBANDS =    -10281.18214160
  atomic energy  EATOM  =     73862.19814772
  Solvation  Ediel_sol  =         0.00000000
  ---------------------------------------------------
  free energy    TOTEN  =     -1229.48011104 eV

  energy without entropy =    -1229.48010799  energy(sigma->0) =    -1229.48010951


--------------------------------------------------------------------------------------------------------




--------------------------------------- Iteration      1(   9)  ---------------------------------------


    EDDIAG:  cpu time    3.8674: real time    3.8778
  RMM-DIIS:  cpu time   14.2675: real time   14.2772
    ORTHCH:  cpu time    1.1692: real time    1.1715
       DOS:  cpu time    0.0012: real time    0.0012
    --------------------------------------------
      LOOP:  cpu time   19.3054: real time   19.3277

 eigenvalue-minimisations  : 20249
 total energy-change (2. order) : 0.1803621E+02  (-0.2358504E+02)
 number of electron     672.0000000 magnetization      48.0000000
 augmentation part      672.0000000 magnetization      48.0000000

 Free energy of the ion-electron system (eV)
  ---------------------------------------------------
  alpha Z        PSCENC =      2652.81237852
  Ewald energy   TEWEN  =    -42087.23807775
  -Hartree energ DENC   =    -25540.77212782
  -exchange      EXHF   =         0.00000000
  -V(xc)+E(xc)   XCENC  =      3605.14046278
  PAW double counting   =     55594.23204139   -59034.67079123
  entropy T*S    EENTRO =        -0.00000000
  eigenvalues    EBANDS =    -10263.14593555
  atomic energy  EATOM  =     73862.19814772
  Solvation  Ediel_sol  =         0.00000000
  ---------------------------------------------------
  free energy    TOTEN  =     -1211.44390194 eV

  energy without entropy =    -1211.44390194  energy(sigma->0) =    -1211.44390194


--------------------------------------------------------------------------------------------------------




--------------------------------------- Iteration      1(  10)  ---------------------------------------


    EDDIAG:  cpu time    3.8431: real time    3.8459
  RMM-DIIS:  cpu time   15.6037: real time   15.6265
    ORTHCH:  cpu time    1.1770: real time    1.1793
       DOS:  cpu time    0.0011: real time    0.0011
    --------------------------------------------
      LOOP:  cpu time   20.6249: real time   20.6528

 eigenvalue-minimisations  : 20275
 total energy-change (2. order) :-0.3084875E+01  (-0.1032258E+01)
 number of electron     672.0000000 magnetization      48.0000000
 augmentation part      672.0000000 magnetization      48.0000000

 Free energy of the ion-electron system (eV)
  ---------------------------------------------------
  alpha Z        PSCENC =      2652.81237852
  Ewald energy   TEWEN  =    -42087.23807775
  -Hartree energ DENC   =    -25540.77212782
  -exchange      EXHF   =         0.00000000
  -V(xc)+E(xc)   XCENC  =      3605.14046278
  PAW double counting   =     55594.23204139   -59034.67079123
  entropy T*S    EENTRO =        -0.00000003
  eigenvalues    EBANDS =    -10266.23081044
  atomic energy  EATOM  =     73862.19814772
  Solvation  Ediel_sol  =         0.00000000
  ---------------------------------------------------
  free energy    TOTEN  =     -1214.52877686 eV

  energy without entropy =    -1214.52877683  energy(sigma->0) =    -1214.52877685


--------------------------------------------------------------------------------------------------------




--------------------------------------- Iteration      1(  11)  ---------------------------------------


    EDDIAG:  cpu time    3.9064: real time    3.9124
  RMM-DIIS:  cpu time   15.0830: real time   15.0907
    ORTHCH:  cpu time    1.1769: real time    1.1795
       DOS:  cpu time    0.0011: real time    0.0011
    --------------------------------------------
      LOOP:  cpu time   20.1673: real time   20.1836

 eigenvalue-minimisations  : 21672
 total energy-change (2. order) : 0.1037004E+00  (-0.9559709E-01)
 number of electron     672.0000000 magnetization      48.0000000
 augmentation part      672.0000000 magnetization      48.0000000

 Free energy of the ion-electron system (eV)
  ---------------------------------------------------
  alpha Z        PSCENC =      2652.81237852
  Ewald energy   TEWEN  =    -42087.23807775
  -Hartree energ DENC   =    -25540.77212782
  -exchange      EXHF   =         0.00000000
  -V(xc)+E(xc)   XCENC  =      3605.14046278
  PAW double counting   =     55594.23204139   -59034.67079123
  entropy T*S    EENTRO =        -0.00000003
  eigenvalues    EBANDS =    -10266.12711002
  atomic energy  EATOM  =     73862.19814772
  Solvation  Ediel_sol  =         0.00000000
  ---------------------------------------------------
  free energy    TOTEN  =     -1214.42507644 eV

  energy without entropy =    -1214.42507641  energy(sigma->0) =    -1214.42507643


--------------------------------------------------------------------------------------------------------




--------------------------------------- Iteration      1(  12)  ---------------------------------------


    EDDIAG:  cpu time    3.8162: real time    3.8451
  RMM-DIIS:  cpu time   16.1856: real time   16.1961
    ORTHCH:  cpu time    1.1751: real time    1.1774
       DOS:  cpu time    0.0013: real time    0.0013
    CHARGE:  cpu time    1.3775: real time    1.3784
    MIXING:  cpu time    0.0013: real time    0.0014
    --------------------------------------------
      LOOP:  cpu time   22.5571: real time   22.5997

 eigenvalue-minimisations  : 22812
 total energy-change (2. order) : 0.6697280E-02  (-0.6763753E-02)
 number of electron     672.0000377 magnetization      48.0000015
 augmentation part      238.9339008 magnetization      29.0069228

 Broyden mixing:
  rms(total) = 0.12420E+02    rms(broyden)= 0.12411E+02
  rms(prec ) = 0.14309E+02
  weight for this iteration     100.00

 Free energy of the ion-electron system (eV)
  ---------------------------------------------------
  alpha Z        PSCENC =      2652.81237852
  Ewald energy   TEWEN  =    -42087.23807775
  -Hartree energ DENC   =    -25540.77212782
  -exchange      EXHF   =         0.00000000
  -V(xc)+E(xc)   XCENC  =      3605.14046278
  PAW double counting   =     55594.23204139   -59034.67079123
  entropy T*S    EENTRO =        -0.00000003
  eigenvalues    EBANDS =    -10266.12041274
  atomic energy  EATOM  =     73862.19814772
  Solvation  Ediel_sol  =         0.00000000
  ---------------------------------------------------
  free energy    TOTEN  =     -1214.41837916 eV

  energy without entropy =    -1214.41837913  energy(sigma->0) =    -1214.41837915


--------------------------------------------------------------------------------------------------------




--------------------------------------- Iteration      1(  13)  ---------------------------------------


    POTLOK:  cpu time    0.1975: real time    0.1984
    SETDIJ:  cpu time    3.2956: real time    3.2963
    EDDIAG:  cpu time    3.8447: real time    3.8597
  RMM-DIIS:  cpu time   13.2726: real time   13.2992
    ORTHCH:  cpu time    1.1806: real time    1.1841
       DOS:  cpu time    0.0021: real time    0.0021
    CHARGE:  cpu time    1.3789: real time    1.3796
    MIXING:  cpu time    0.0008: real time    0.0009
    --------------------------------------------
      LOOP:  cpu time   23.1727: real time   23.2202

 eigenvalue-minimisations  : 17329
 total energy-change (2. order) : 0.2223561E+03  (-0.1396895E+03)
 number of electron     672.0000322 magnetization      48.0000023
 augmentation part      269.6240372 magnetization      26.1339373

 Broyden mixing:
  rms(total) = 0.14191E+02    rms(broyden)= 0.14188E+02
  rms(prec ) = 0.16024E+02
  weight for this iteration     100.00

 eigenvalues of (default mixing * dielectric matrix)
  average eigenvalue GAMMA=   0.3126
  0.3126

 Free energy of the ion-electron system (eV)
  ---------------------------------------------------
  alpha Z        PSCENC =      2652.81237852
  Ewald energy   TEWEN  =    -42087.23807775
  -Hartree energ DENC   =    -24858.87281341
  -exchange      EXHF   =         0.00000000
  -V(xc)+E(xc)   XCENC  =      3694.90533675
  PAW double counting   =     59766.93676488   -63191.47457326
  entropy T*S    EENTRO =        -0.06095126
  eigenvalues    EBANDS =    -10831.26852404
  atomic energy  EATOM  =     73862.19814772
  Solvation  Ediel_sol  =         0.00000000
  ---------------------------------------------------
  free energy    TOTEN  =      -992.06231184 eV

  energy without entropy =     -992.00136058  energy(sigma->0) =     -992.03183621


--------------------------------------------------------------------------------------------------------




--------------------------------------- Iteration      1(  14)  ---------------------------------------


    POTLOK:  cpu time    0.2029: real time    0.2030
    SETDIJ:  cpu time    3.2873: real time    3.2880
    EDDIAG:  cpu time    3.8550: real time    3.8578
  RMM-DIIS:  cpu time   13.5060: real time   13.5399
    ORTHCH:  cpu time    1.1877: real time    1.1900
       DOS:  cpu time    0.0015: real time    0.0015
    CHARGE:  cpu time    1.3795: real time    1.3800
    MIXING:  cpu time    0.0007: real time    0.0007
    --------------------------------------------
      LOOP:  cpu time   23.4206: real time   23.4609

 eigenvalue-minimisations  : 17749
 total energy-change (2. order) : 0.7715944E+02  (-0.1913634E+02)
 number of electron     672.0000361 magnetization      48.0000036
 augmentation part      246.5241728 magnetization      32.1536728

 Broyden mixing:
  rms(total) = 0.51850E+01    rms(broyden)= 0.51804E+01
  rms(prec ) = 0.56328E+01
  weight for this iteration     100.00

 eigenvalues of (default mixing * dielectric matrix)
  average eigenvalue GAMMA=   0.7212
  1.0864  0.3560

 Free energy of the ion-electron system (eV)
  ---------------------------------------------------
  alpha Z        PSCENC =      2652.81237852
  Ewald energy   TEWEN  =    -42087.23807775
  -Hartree energ DENC   =    -25472.08178837
  -exchange      EXHF   =         0.00000000
  -V(xc)+E(xc)   XCENC  =      3671.97148064
  PAW double counting   =     63137.73790174   -66618.96681627
  entropy T*S    EENTRO =        -0.00000000
  eigenvalues    EBANDS =    -10061.33609663
  atomic energy  EATOM  =     73862.19814772
  Solvation  Ediel_sol  =         0.00000000
  ---------------------------------------------------
  free energy    TOTEN  =      -914.90287040 eV

  energy without entropy =     -914.90287040  energy(sigma->0) =     -914.90287040


--------------------------------------------------------------------------------------------------------




--------------------------------------- Iteration      1(  15)  ---------------------------------------


    POTLOK:  cpu time    0.2030: real time    0.2049
    SETDIJ:  cpu time    3.2879: real time    3.2887
    EDDIAG:  cpu time    3.8414: real time    3.8476
  RMM-DIIS:  cpu time   13.5464: real time   13.5542
    ORTHCH:  cpu time    1.1747: real time    1.1844
       DOS:  cpu time    0.0071: real time    0.0106
    CHARGE:  cpu time    1.3939: real time    1.3946
    MIXING:  cpu time    0.0007: real time    0.0007
    --------------------------------------------
      LOOP:  cpu time   23.4552: real time   23.4858

 eigenvalue-minimisations  : 18361
 total energy-change (2. order) : 0.1410202E+02  (-0.2419606E+01)
 number of electron     672.0000353 magnetization      48.0000042
 augmentation part      249.7017655 magnetization      33.8254491

 Broyden mixing:
  rms(total) = 0.22156E+01    rms(broyden)= 0.22152E+01
  rms(prec ) = 0.23022E+01
  weight for this iteration     100.00

 eigenvalues of (default mixing * dielectric matrix)
  average eigenvalue GAMMA=   0.9104
  1.6156  0.3791  0.7366

 Free energy of the ion-electron system (eV)
  ---------------------------------------------------
  alpha Z        PSCENC =      2652.81237852
  Ewald energy   TEWEN  =    -42087.23807775
  -Hartree energ DENC   =    -25385.55921952
  -exchange      EXHF   =         0.00000000
  -V(xc)+E(xc)   XCENC  =      3704.94274489
  PAW double counting   =     67130.68220960   -70651.86289597
  entropy T*S    EENTRO =        -0.00000000
  eigenvalues    EBANDS =    -10126.77613785
  atomic energy  EATOM  =     73862.19814772
  Solvation  Ediel_sol  =         0.00000000
  ---------------------------------------------------
  free energy    TOTEN  =      -900.80085037 eV

  energy without entropy =     -900.80085037  energy(sigma->0) =     -900.80085037


--------------------------------------------------------------------------------------------------------




--------------------------------------- Iteration      1(  16)  ---------------------------------------


    POTLOK:  cpu time    0.2046: real time    0.2048
    SETDIJ:  cpu time    3.3230: real time    3.3238
    EDDIAG:  cpu time    3.8315: real time    3.8343
  RMM-DIIS:  cpu time   13.4374: real time   13.4467
    ORTHCH:  cpu time    1.1705: real time    1.1730
       DOS:  cpu time    0.0010: real time    0.0010
    CHARGE:  cpu time    1.3813: real time    1.3817
    MIXING:  cpu time    0.0009: real time    0.0009
    --------------------------------------------
      LOOP:  cpu time   23.3502: real time   23.3662

 eigenvalue-minimisations  : 17577
 total energy-change (2. order) :-0.1363145E+01  (-0.7109197E+00)
 number of electron     672.0000355 magnetization      48.0000044
 augmentation part      251.0595398 magnetization      33.9471517

 Broyden mixing:
  rms(total) = 0.15396E+01    rms(broyden)= 0.15391E+01
  rms(prec ) = 0.16279E+01
  weight for this iteration     100.00

 eigenvalues of (default mixing * dielectric matrix)
  average eigenvalue GAMMA=   0.9549
  2.0416  0.8910  0.3847  0.5024

 Free energy of the ion-electron system (eV)
  ---------------------------------------------------
  alpha Z        PSCENC =      2652.81237852
  Ewald energy   TEWEN  =    -42087.23807775
  -Hartree energ DENC   =    -25338.61849510
  -exchange      EXHF   =         0.00000000
  -V(xc)+E(xc)   XCENC  =      3705.76440397
  PAW double counting   =     69864.12953186   -73413.45552563
  entropy T*S    EENTRO =        -0.00000000
  eigenvalues    EBANDS =    -10147.75635849
  atomic energy  EATOM  =     73862.19814772
  Solvation  Ediel_sol  =         0.00000000
  ---------------------------------------------------
  free energy    TOTEN  =      -902.16399489 eV

  energy without entropy =     -902.16399489  energy(sigma->0) =     -902.16399489


--------------------------------------------------------------------------------------------------------




--------------------------------------- Iteration      1(  17)  ---------------------------------------


    POTLOK:  cpu time    0.2111: real time    0.2112
    SETDIJ:  cpu time    3.3271: real time    3.3296
    EDDIAG:  cpu time    3.8810: real time    3.9075
  RMM-DIIS:  cpu time   14.0915: real time   14.1005
    ORTHCH:  cpu time    1.1671: real time    1.1701
       DOS:  cpu time    0.0010: real time    0.0010
    CHARGE:  cpu time    1.3781: real time    1.3786
    MIXING:  cpu time    0.0017: real time    0.0017
    --------------------------------------------
      LOOP:  cpu time   24.0586: real time   24.1002

 eigenvalue-minimisations  : 18529
 total energy-change (2. order) : 0.1201092E+00  (-0.1020093E+00)
 number of electron     672.0000353 magnetization      48.0000044
 augmentation part      251.1015644 magnetization      33.9557608

 Broyden mixing:
  rms(total) = 0.81026E+00    rms(broyden)= 0.81004E+00
  rms(prec ) = 0.91782E+00
  weight for this iteration     100.00

 eigenvalues of (default mixing * dielectric matrix)
  average eigenvalue GAMMA=   0.9747
  2.1981  1.0912  0.3740  0.6768  0.5337

 Free energy of the ion-electron system (eV)
  ---------------------------------------------------
  alpha Z        PSCENC =      2652.81237852
  Ewald energy   TEWEN  =    -42087.23807775
  -Hartree energ DENC   =    -25327.89726287
  -exchange      EXHF   =         0.00000000
  -V(xc)+E(xc)   XCENC  =      3703.62031428
  PAW double counting   =     70837.56478727   -74396.51334132
  entropy T*S    EENTRO =        -0.00000000
  eigenvalues    EBANDS =    -10146.59083157
  atomic energy  EATOM  =     73862.19814772
  Solvation  Ediel_sol  =         0.00000000
  ---------------------------------------------------
  free energy    TOTEN  =      -902.04388572 eV

  energy without entropy =     -902.04388572  energy(sigma->0) =     -902.04388572


--------------------------------------------------------------------------------------------------------




--------------------------------------- Iteration      1(  18)  ---------------------------------------


    POTLOK:  cpu time    0.2006: real time    0.2007
    SETDIJ:  cpu time    3.3004: real time    3.3010
    EDDIAG:  cpu time    3.8455: real time    3.8496
  RMM-DIIS:  cpu time   13.2604: real time   13.3770
    ORTHCH:  cpu time    1.2081: real time    1.2123
       DOS:  cpu time    0.0014: real time    0.0014
    CHARGE:  cpu time    1.3759: real time    1.3792
    MIXING:  cpu time    0.0011: real time    0.0011
    --------------------------------------------
      LOOP:  cpu time   23.1935: real time   23.3224

 eigenvalue-minimisations  : 17789
 total energy-change (2. order) : 0.4363056E+00  (-0.7231196E-01)
 number of electron     672.0000355 magnetization      48.0000044
 augmentation part      250.6042094 magnetization      33.9274455

 Broyden mixing:
  rms(total) = 0.31689E+00    rms(broyden)= 0.31666E+00
  rms(prec ) = 0.33661E+00
  weight for this iteration     100.00

 eigenvalues of (default mixing * dielectric matrix)
  average eigenvalue GAMMA=   1.0144
  2.4576  1.3581  0.8540  0.5850  0.3760  0.4556

 Free energy of the ion-electron system (eV)
[...]
   4      -0.801    -0.700     1.501     0.118     0.381    -0.277
   5      -0.739    -0.806     1.545    -0.110     0.377     0.272
   6      -0.897    -0.774     1.671     0.059    -0.517     0.192
   7      -0.747    -0.619     1.366    -0.118    -0.397    -0.116
   8      -0.994    -0.903     1.897    -0.036    -0.023    -0.117
   9      -0.876    -0.618     1.494     0.018    -0.424     0.185
  10      -0.774    -0.929     1.703    -0.023     0.050    -0.540
  11      -0.645    -0.587     1.231    -0.011    -0.051     0.028
  12      -0.819    -0.557     1.375     0.121     0.459    -0.107
  13      -0.545    -0.900     1.445    -0.045     0.077     0.448
  14      -0.639    -0.893     1.532    -0.039     0.064     0.486
  15      -0.876    -0.951     1.826    -0.037     0.030     0.031
  16      -0.897    -0.708     1.605    -0.033     0.388     0.226
  17       1.615     1.404    -3.019    -0.031     0.027    -0.091
  18       1.346     1.535    -2.880    -0.038     0.001     0.009
  19       1.535     1.249    -2.784    -0.088    -0.111     0.210
  20       1.516     1.349    -2.865     0.006    -0.080     0.006
  21       1.488     1.401    -2.889     0.039     0.297    -0.045
  22       1.684     1.275    -2.959     0.143    -0.013    -0.062
  23       1.395     1.574    -2.969    -0.048    -0.189    -0.018
  24       1.343     1.513    -2.856     0.046    -0.105    -0.026
  25       0.331    -0.026    -0.306    -1.226     0.211     0.651
  26      -0.449     0.623    -0.173    -0.131     0.802     0.961
  27      -0.026    -1.137     1.163    -0.125    -0.534     0.230
  28      -2.220     1.189     1.031    -0.953    -0.976    -1.131
  29      -2.534    -0.148     2.682    -0.906    -0.460     0.232
  30      -1.389    -1.918     3.307     0.261     0.439    -0.260
  31      -0.494     0.244     0.249     0.999     0.557     0.345
  32      -1.078     0.997     0.081     0.006    -0.099     0.286
  33       0.065     1.126    -1.191     0.875    -0.249     0.829
  34      -0.185     0.512    -0.327     0.284     0.387    -0.411
  35      -1.015     0.423     0.592    -0.749    -0.549     0.530
  36      -0.058     0.123    -0.065    -0.599     0.138    -1.176
  37      -1.277    -0.167     1.444     0.796    -0.140     0.008
  38       0.280     0.423    -0.703     0.618     0.284     0.413
  39       0.701     0.313    -1.014     0.783    -1.354    -1.787
  40      -0.247    -1.007     1.254    -0.298    -0.509    -0.491
  41      -1.515     2.466    -0.951    -5.593     2.935    -2.622
  42      -6.445     3.326     3.119     3.172     3.102     5.402
  43       5.630    -6.109     0.479    -1.406    -4.468    -0.120
  44      -3.681     2.495     1.186     5.305    -1.353    -4.556
  45      -3.526     4.081    -0.555    -4.669    -0.902     4.261
  46       3.311    -7.048     3.737    -0.446     5.204    -1.177
  47      -2.785     1.291     1.494    -5.058     2.918    -3.897
  48       5.013    -5.468     0.455     1.318    -4.700     0.825
  49      -2.674     3.008    -0.334     4.874     0.857     4.029
  50       6.325    -5.608    -0.717     0.682     3.444     1.488
  51      -3.492     3.676    -0.185    -6.211    -2.449     3.925
  52      -1.029     2.618    -1.589     4.554    -1.580    -4.264
  53      -3.667    -0.135     3.802    -4.115     2.472    -4.459
  54      -1.554     1.228     0.326     4.827     2.242     4.159
  55       5.328    -6.187     0.860     2.532    -4.846    -0.615
  56      -3.269     4.014    -0.746     5.014    -2.047    -3.498
  57      -5.585     2.131     3.454    -4.633    -3.937     3.617
  58       4.829    -5.176     0.347     1.523     3.976     0.338
  59      -2.049    -0.081     2.130    -4.518     2.987    -3.610
  60       2.990    -5.464     2.474     0.718    -5.492    -0.973
  61      -4.482     1.759     2.723     2.803     4.009     3.715
  62       5.132    -4.177    -0.955    -1.672     4.391     0.553
  63      -2.373     2.150     0.223    -5.373    -3.788     3.450
  64      -5.951     4.498     1.452     4.519    -4.288    -4.740
  65      -1.893     2.694    -0.802    -7.443     3.299    -4.917
  66      -3.621     3.052     0.569     4.971     2.769     4.528
  67       6.963    -5.739    -1.223     0.379    -3.448     0.613
  68      -4.938     1.364     3.574     4.795    -2.988    -4.401
  69      -3.218     1.499     1.719    -4.959    -2.071     3.256
  70       5.759    -6.804     1.045     1.496     3.705    -1.753
  71      -4.771     4.071     0.700    -4.834     2.464    -3.465
  72       3.279    -5.914     2.634    -0.405    -5.249    -0.734
  73      -4.536     3.157     1.380     4.736     1.153     4.353
  74       3.084    -6.629     3.544     1.152     3.725     0.916
  75      -0.675     3.831    -3.156    -4.667    -2.220     1.794
  76      -4.625     1.826     2.799     2.791    -1.792    -5.310
  77      -2.790     1.205     1.584    -4.248     1.804    -3.200
  78      -2.845     3.068    -0.223     5.472     1.955     3.836
  79       3.608    -5.785     2.177    -0.261    -5.574     0.393
  80      -3.664     3.196     0.468     6.295    -1.244    -5.479
  81      -2.066     1.648     0.419    -4.672    -2.891     5.256
  82       5.162    -5.741     0.579     1.401     5.656     0.795
  83      -1.766     1.630     0.136    -5.188     2.221    -4.442
  84       7.475    -6.428    -1.047     0.719    -4.248     1.153
  85      -2.770     3.956    -1.186     6.878     3.265     2.974
  86       5.322    -4.401    -0.921     0.232     3.576     0.512
  87      -3.643     3.174     0.469    -4.180    -1.639     4.063
  88      -2.373     2.557    -0.183     4.218    -2.137    -3.419
 ---------------------------------------------------------------------


 Total hyperfine coupling parameters after diagonalization (MHz)
 (convention: |A_zz| > |A_xx| > |A_yy|)
 ----------------------------------------------------------------------
  ion      A_xx      A_yy      A_zz     asymmetry (A_yy - A_xx)/ A_zz 
 ----------------------------------------------------------------------
   1       1.390     0.983     3.541      -0.115
   2       0.159    -0.008     2.873      -0.058
   3       1.476     1.167     3.321      -0.093
   4       1.471     1.126     3.684      -0.094
   5       2.245     1.942     4.541      -0.067
   6       1.278     0.995     3.811      -0.074
   7       2.027     1.691     4.022      -0.084
   8       0.425     0.312     3.222      -0.035
   9       1.642     1.310     3.849      -0.086
  10       1.804     1.542     4.389      -0.060
  11       0.674     0.612     2.492      -0.025
  12       2.419     1.970     4.401      -0.102
  13       2.210     1.759     4.280      -0.105
  14       2.311     1.950     4.572      -0.079
  15       0.515     0.409     3.203      -0.033
  16       1.926     1.663     4.321      -0.061
  17      13.848     9.426    14.066      -0.314
  18      13.011     8.793    13.215      -0.319
  19      12.657     8.628    12.992      -0.310
  20      14.595    10.380    14.763      -0.286
  21      14.929    10.628    15.058      -0.286
  22      14.757    10.566    15.256      -0.275
  23      14.741    10.373    14.936      -0.292
  24      12.688     8.496    12.880      -0.325
  25      95.857    94.406    97.286      -0.015
  26      95.030    93.548    96.297      -0.015
  27      95.007    94.072    96.631      -0.010
  28      97.008    93.506    98.623      -0.036
  29      97.465    94.496   100.116      -0.030
  30      95.484    94.729   100.144      -0.008
  31     103.173   101.987   104.524      -0.011
  32      95.861    94.765    96.931      -0.011
  33      95.791    94.287    97.663      -0.015
  34      99.077    98.108    99.642      -0.010
  35      93.848    92.466    95.239      -0.015
  36      97.285    96.216    98.863      -0.011
  37      97.275    95.332    98.481      -0.020
  38      98.435    97.853    99.809      -0.006
  39      94.934    92.724    97.789      -0.023
  40      92.266    91.191    93.935      -0.011
  41       4.169     0.855    14.595      -0.227
  42       5.488     0.014    17.502      -0.313
  43       5.185     0.781    15.440      -0.285
  44       6.955     1.615    17.035      -0.313
  45       7.806     4.135    18.473      -0.199
  46       5.273    -0.263    15.732      -0.352
  47       5.290     1.091    15.524      -0.270
  48       5.854     1.744    15.788      -0.260
  49       3.109    -0.861    12.735      -0.312
  50       5.514     1.285    15.154      -0.279
  51       7.247     2.558    19.117      -0.245
  52       5.108     3.100    15.803      -0.127
  53       4.554     0.069    14.785      -0.303
  54       4.972     2.110    15.236      -0.188
  55       7.502     2.845    18.427      -0.253
  56       6.398     3.087    17.293      -0.191
  57       8.048     0.639    17.777      -0.417
  58       4.427     0.921    13.668      -0.256
  59       5.645     1.849    15.122      -0.251
  60       2.827    -0.005    13.910      -0.204
  61       6.395     1.411    15.754      -0.316
  62       3.647     0.921    13.624      -0.200
  63       2.635    -1.269    13.698      -0.285
  64       7.404     0.938    19.634      -0.329
  65       4.722     1.039    19.566      -0.188
  66       2.840    -0.722    14.596      -0.244
  67       5.612     2.061    16.172      -0.220
  68       7.081     1.031    17.656      -0.343
  69       3.480    -1.922    11.729      -0.461
  70      10.453     3.082    18.481      -0.399
  71       5.902     0.323    15.790      -0.353
  72       6.026     2.063    16.372      -0.242
  73       8.899     3.384    18.550      -0.297
  74       5.684    -0.694    13.295      -0.480
  75       3.429     1.618    13.703      -0.132
  76       2.335    -0.572    13.535      -0.215
  77       6.951     2.557    14.642      -0.300
  78       4.519     0.724    15.308      -0.248
  79       3.860     0.778    15.108      -0.204
  80       6.450     0.703    18.562      -0.310
  81       5.460     3.704    18.069      -0.097
  82      -2.412     0.281    12.654       0.213
  83       3.090     0.016    14.056      -0.219
  84       6.471     1.960    18.066      -0.250
  85       4.678    -0.125    17.117      -0.281
  86       3.074     1.062    12.513      -0.161
  87       5.894     2.385    15.806      -0.222
  88       5.278     2.856    14.840      -0.163
 ---------------------------------------------------------------------



--------------------------------------------------------------------------------------------------------


 stress matrix after NEB project (eV)
    -45.99053     -0.86236      2.46329
     -0.86976    -52.10519     -2.07349
      2.46325     -2.06021    -67.18479
  FORCES: max atom, RMS     3.004420    1.213553
  FORCE total and by dimension   11.384138    2.964229
  Stress total and by dimension   96.778378   67.184790
     LOOP+:  cpu time  643.4540: real time  644.6102
    4ORBIT:  cpu time    0.0000: real time    0.0000
 


 total charge     
 
# of ion       s       p       d       tot
------------------------------------------
    1        0.048   5.989   0.000   6.037
    2        0.048   5.992   0.000   6.040
    3        0.047   5.989   0.000   6.036
    4        0.049   5.992   0.000   6.041
    5        0.050   5.993   0.000   6.043
    6        0.055   5.999   0.000   6.054
    7        0.052   5.995   0.000   6.047
    8        0.052   5.996   0.000   6.048
    9        0.049   5.992   0.000   6.041
   10        0.051   5.994   0.000   6.045
   11        0.048   5.991   0.000   6.039
   12        0.051   5.993   0.000   6.045
   13        0.047   5.989   0.000   6.036
   14        0.051   5.993   0.000   6.043
   15        0.051   5.995   0.000   6.046
   16        0.051   5.994   0.000   6.045
   17        0.157   6.141   0.094   6.392
   18        0.149   6.128   0.084   6.362
   19        0.147   6.125   0.081   6.354
   20        0.146   6.124   0.081   6.350
   21        0.147   6.123   0.079   6.350
   22        0.153   6.132   0.087   6.372
   23        0.153   6.135   0.089   6.376
   24        0.148   6.127   0.083   6.358
   25        0.381   6.465   4.848  11.694
   26        0.367   6.439   4.803  11.609
   27        0.372   6.448   4.816  11.636
   28        0.371   6.440   4.831  11.642
   29        0.367   6.434   4.810  11.611
   30        0.371   6.446   4.814  11.630
   31        0.349   6.397   4.780  11.526
   32        0.378   6.460   4.842  11.681
   33        0.368   6.440   4.812  11.620
   34        0.376   6.460   4.838  11.675
   35        0.384   6.473   4.845  11.701
   36        0.373   6.448   4.827  11.647
   37        0.376   6.457   4.834  11.667
   38        0.352   6.405   4.783  11.541
   39        0.385   6.478   4.865  11.728
   40        0.389   6.485   4.853  11.727
   41        1.597   3.490   0.000   5.088
   42        1.601   3.498   0.000   5.099
   43        1.600   3.489   0.000   5.089
   44        1.598   3.508   0.000   5.107
   45        1.598   3.505   0.000   5.103
   46        1.600   3.511   0.000   5.111
   47        1.597   3.480   0.000   5.077
   48        1.597   3.469   0.000   5.066
   49        1.598   3.517   0.000   5.115
   50        1.597   3.490   0.000   5.087
   51        1.605   3.480   0.000   5.085
   52        1.598   3.475   0.000   5.072
   53        1.600   3.521   0.000   5.120
   54        1.600   3.506   0.000   5.106
   55        1.602   3.503   0.000   5.105
   56        1.599   3.490   0.000   5.088
   57        1.602   3.511   0.000   5.113
   58        1.598   3.502   0.000   5.100
   59        1.599   3.532   0.000   5.130
   60        1.601   3.511   0.000   5.112
   61        1.598   3.496   0.000   5.094
   62        1.598   3.466   0.000   5.064
   63        1.597   3.507   0.000   5.104
   64        1.605   3.529   0.000   5.134
   65        1.605   3.474   0.000   5.079
   66        1.601   3.503   0.000   5.104
   67        1.603   3.521   0.000   5.123
   68        1.600   3.521   0.000   5.121
   69        1.597   3.507   0.000   5.104
   70        1.601   3.509   0.000   5.110
   71        1.598   3.505   0.000   5.103
   72        1.599   3.530   0.000   5.129
   73        1.598   3.521   0.000   5.119
   74        1.602   3.559   0.000   5.161
   75        1.599   3.476   0.000   5.075
   76        1.598   3.504   0.000   5.102
   77        1.595   3.522   0.000   5.117
   78        1.594   3.473   0.000   5.067
   79        1.595   3.462   0.000   5.057
   80        1.600   3.523   0.000   5.123
   81        1.601   3.479   0.000   5.080
   82        1.599   3.476   0.000   5.075
   83        1.600   3.490   0.000   5.089
   84        1.602   3.477   0.000   5.078
   85        1.603   3.502   0.000   5.104
   86        1.596   3.493   0.000   5.089
   87        1.596   3.501   0.000   5.098
   88        1.597   3.516   0.000   5.113
--------------------------------------------------
tot         84.723 416.122  77.879 578.724
 


 magnetization (x)
 
# of ion       s       p       d       tot
------------------------------------------
    1        0.001  -0.000   0.000   0.001
    2        0.001   0.000   0.000   0.001
    3        0.002   0.001   0.000   0.002
    4        0.002  -0.000   0.000   0.002
    5        0.002   0.000   0.000   0.002
    6        0.001  -0.000   0.000   0.001
    7        0.002   0.000   0.000   0.002
    8        0.001   0.001   0.000   0.001
    9        0.002   0.000   0.000   0.002
   10        0.002   0.000   0.000   0.002
   11        0.001   0.000   0.000   0.001
   12        0.002   0.000   0.000   0.003
   13        0.002   0.001   0.000   0.003
   14        0.002   0.000   0.000   0.002
   15        0.001   0.001   0.000   0.002
   16        0.002   0.000   0.000   0.002
   17        0.007   0.003   0.002   0.012
   18        0.007   0.002   0.001   0.009
   19        0.006   0.002   0.001   0.009
   20        0.007   0.002   0.001   0.011
   21        0.008   0.002   0.001   0.011
   22        0.008   0.003   0.001   0.012
   23        0.007   0.003   0.001   0.011
   24        0.007   0.002   0.001   0.010
   25        0.015   0.030   2.735   2.780
   26        0.015   0.029   2.772   2.816
   27        0.015   0.030   2.760   2.805
   28        0.015   0.028   2.749   2.792
   29        0.015   0.029   2.770   2.815
   30        0.015   0.030   2.768   2.813
   31        0.016   0.028   2.826   2.871
   32        0.015   0.030   2.749   2.794
   33        0.015   0.029   2.771   2.816
   34        0.016   0.032   2.742   2.790
   35        0.015   0.030   2.746   2.790
   36        0.016   0.030   2.760   2.806
   37        0.016   0.030   2.757   2.803
   38        0.015   0.029   2.808   2.852
   39        0.015   0.031   2.716   2.762
   40        0.014   0.031   2.727   2.773
   41        0.002   0.030   0.000   0.032
   42        0.002   0.039   0.000   0.041
   43        0.002   0.027   0.000   0.029
   44        0.002   0.045   0.000   0.047
   45        0.002   0.057   0.000   0.060
   46        0.002   0.031   0.000   0.033
   47        0.002   0.026   0.000   0.028
   48        0.002   0.030   0.000   0.032
   49        0.001   0.020   0.000   0.021
   50        0.002   0.033   0.000   0.035
   51        0.003   0.033   0.000   0.035
   52        0.002   0.025   0.000   0.027
   53        0.002   0.028   0.000   0.029
   54        0.002   0.029   0.000   0.031
   55        0.003   0.045   0.000   0.048
   56        0.002   0.039   0.000   0.041
   57        0.002   0.053   0.000   0.055
   58        0.002   0.015   0.000   0.017
   59        0.002   0.034   0.000   0.036
   60        0.002   0.017   0.000   0.018
   61        0.002   0.035   0.000   0.037
   62        0.002   0.007   0.000   0.009
   63        0.001   0.021   0.000   0.023
   64        0.002   0.054   0.000   0.057
   65        0.002   0.027   0.000   0.029
   66        0.002   0.012   0.000   0.013
   67        0.002   0.037   0.000   0.039
   68        0.002   0.053   0.000   0.055
   69        0.001   0.020   0.000   0.021
   70        0.002   0.064   0.000   0.067
   71        0.002   0.036   0.000   0.038
   72        0.002   0.044   0.000   0.046
   73        0.002   0.060   0.000   0.063
   74        0.001   0.038   0.000   0.039
   75        0.002   0.011   0.000   0.013
   76        0.001   0.016   0.000   0.018
   77        0.002   0.034   0.000   0.036
   78        0.002   0.025   0.000   0.027
   79        0.002   0.014   0.000   0.016
   80        0.002   0.052   0.000   0.054
   81        0.002   0.032   0.000   0.035
   82        0.001   0.001   0.000   0.002
   83        0.002   0.011   0.000   0.013
   84        0.002   0.031   0.000   0.033
   85        0.002   0.027   0.000   0.029
   86        0.002   0.013   0.000   0.014
   87        0.002   0.038   0.000   0.040
   88        0.002   0.028   0.000   0.030
--------------------------------------------------
tot          0.421   1.998  44.168  46.587
 

 total amount of memory used by VASP MPI-rank0    88184. kBytes
=======================================================================

   base      :      30000. kBytes
   nonlr-proj:      13675. kBytes
   fftplans  :        992. kBytes
   grid      :      21513. kBytes
   one-center:       2737. kBytes
   wavefun   :      19267. kBytes
 
  
  
 General timing and accounting informations for this job:
 ========================================================
  
                  Total CPU time used (sec):      662.658
                            User time (sec):      656.924
                          System time (sec):        5.734
                         Elapsed time (sec):      666.673
  
                   Maximum memory used (kb):      182508.
                   Average memory used (kb):           0.
  
                          Minor page faults:       324807
                          Major page faults:            0
                 Voluntary context switches:         3595
