 vasp.5.4.4.18Apr17-6-g9f103f2a35 (build Dec 02 2020 12:53:39) complex          
  
 executed on             LinuxIFC date 2021.07.31  11:45:13
 running on  112 total cores
 distrk:  each k-point on  112 cores,    1 groups
 distr:  one band on NCORES_PER_BAND=   1 cores,  112 groups


--------------------------------------------------------------------------------------------------------


 INCAR:
 POTCAR:    PAW_PBE Na_pv 19Sep2006               
 POTCAR:    PAW_PBE Mg_pv 13Apr2007               
 POTCAR:    PAW_PBE Mn_pv 02Aug2007               
 POTCAR:    PAW_PBE O 08Apr2002                   

 ----------------------------------------------------------------------------- 
|                                                                             |
|           W    W    AA    RRRRR   N    N  II  N    N   GGGG   !!!           |
|           W    W   A  A   R    R  NN   N  II  NN   N  G    G  !!!           |
|           W    W  A    A  R    R  N N  N  II  N N  N  G       !!!           |
|           W WW W  AAAAAA  RRRRR   N  N N  II  N  N N  G  GGG   !            |
|           WW  WW  A    A  R   R   N   NN  II  N   NN  G    G                |
|           W    W  A    A  R    R  N    N  II  N    N   GGGG   !!!           |
|                                                                             |
|      For optimal performance we recommend to set                            |
|        NCORE= 4 - approx SQRT( number of cores)                             |
|      NCORE specifies how many cores store one orbital (NPAR=cpu/NCORE).     |
|      This setting can  greatly improve the performance of VASP for DFT.     |
|      The default,   NCORE=1            might be grossly inefficient         |
|      on modern multi-core architectures or massively parallel machines.     |
|      Do your own testing !!!!                                               |
|      Unfortunately you need to use the default for GW and RPA calculations. |
|      (for HF NCORE is supported but not extensively tested yet)             |
|                                                                             |
 ----------------------------------------------------------------------------- 

 POTCAR:    PAW_PBE Na_pv 19Sep2006               
   VRHFIN =Na: p6s1                                                             
   LEXCH  = PE                                                                  
   EATOM  =   766.0439 eV,   56.3026 Ry                                         
                                                                                
   TITEL  = PAW_PBE Na_pv 19Sep2006                                             
   LULTRA =        F    use ultrasoft PP ?                                      
   IUNSCR =        1    unscreen: 0-lin 1-nonlin 2-no                           
   RPACOR =    1.800    partial core radius                                     
   POMASS =   22.990; ZVAL   =    7.000    mass and valenz                      
   RCORE  =    2.200    outmost cutoff radius                                   
   RWIGS  =    2.200; RWIGS  =    1.164    wigner-seitz radius (au A)           
   ENMAX  =  259.561; ENMIN  =  194.671 eV                                      
   ICORE  =        2    local potential                                         
   LCOR   =        T    correct aug charges                                     
   LPAW   =        T    paw PP                                                  
   EAUG   =  368.056                                                            
   DEXC   =    0.000                                                            
   RMAX   =    2.245    core radius for proj-oper                               
   RAUG   =    1.300    factor for augmentation sphere                          
   RDEP   =    2.259    radius for radial grids                                 
   RDEPT  =    1.738    core radius for aug-charge                              
                                                                                
   Atomic configuration                                                         
    5 entries                                                                   
     n  l   j            E        occ.                                          
     1  0  0.50     -1033.6933   2.0000                                         
     2  0  0.50       -56.7526   2.0000                                         
     2  1  1.50       -28.6721   6.0000                                         
     3  0  0.50        -2.7440   1.0000                                         
     3  2  1.50        -1.3606   0.0000                                         
   Description                                                                  
     l       E           TYP  RCUT    TYP  RCUT                                 
     1    -28.6720912     23  2.000                                             
     1      6.8029130     23  2.000                                             
     0     -2.7439560     23  2.200                                             
     0     34.0145650     23  2.200                                             
     2     -1.3605826     23  2.200                                             
  local pseudopotential read in
  partial core-charges read in
  partial kinetic energy density read in
  atomic valenz-charges read in
  non local Contribution for L=           1  read in
    real space projection operators read in
  non local Contribution for L=           1  read in
    real space projection operators read in
  non local Contribution for L=           0  read in
    real space projection operators read in
  non local Contribution for L=           0  read in
    real space projection operators read in
    PAW grid and wavefunctions read in
 
   number of l-projection  operators is LMAX  =           4
   number of lm-projection operators is LMMAX =           8
 
 POTCAR:    PAW_PBE Mg_pv 13Apr2007               
   VRHFIN =Mg: p6s2                                                             
   LEXCH  = PE                                                                  
   EATOM  =  1056.7344 eV,   77.6678 Ry                                         
                                                                                
   TITEL  = PAW_PBE Mg_pv 13Apr2007                                             
   LULTRA =        F    use ultrasoft PP ?                                      
   IUNSCR =        1    unscreen: 0-lin 1-nonlin 2-no                           
   RPACOR =    1.500    partial core radius                                     
   POMASS =   24.305; ZVAL   =    8.000    mass and valenz                      
   RCORE  =    2.000    outmost cutoff radius                                   
   RWIGS  =    2.000; RWIGS  =    1.058    wigner-seitz radius (au A)           
   ENMAX  =  403.929; ENMIN  =  302.947 eV                                      
   RCLOC  =    1.506    cutoff for local pot                                    
   LCOR   =        T    correct aug charges                                     
   LPAW   =        T    paw PP                                                  
   EAUG   =  758.780                                                            
   DEXC   =    0.000                                                            
   RMAX   =    2.045    core radius for proj-oper                               
   RAUG   =    1.300    factor for augmentation sphere                          
   RDEP   =    2.025    radius for radial grids                                 
   RDEPT  =    1.557    core radius for aug-charge                              
                                                                                
   Atomic configuration                                                         
    5 entries                                                                   
     n  l   j            E        occ.                                          
     1  0  0.50     -1259.6230   2.0000                                         
     2  0  0.50       -79.8442   2.0000                                         
     2  1  1.50       -46.6121   6.0000                                         
     3  0  0.50        -4.7055   2.0000                                         
     3  2  1.50        -1.3606   0.0000                                         
   Description                                                                  
     l       E           TYP  RCUT    TYP  RCUT                                 
     1    -46.6121073     23  1.600                                             
     1      2.7211652     23  1.600                                             
     0     -4.7054661     23  2.000                                             
     0     61.2262170     23  2.000                                             
     2     -1.3605826     23  2.000                                             
  local pseudopotential read in
  partial core-charges read in
  partial kinetic energy density read in
  atomic valenz-charges read in
  non local Contribution for L=           1  read in
    real space projection operators read in
  non local Contribution for L=           1  read in
    real space projection operators read in
  non local Contribution for L=           0  read in
    real space projection operators read in
  non local Contribution for L=           0  read in
    real space projection operators read in
  non local Contribution for L=           2  read in
    real space projection operators read in
    PAW grid and wavefunctions read in
 
   number of l-projection  operators is LMAX  =           5
   number of lm-projection operators is LMMAX =          13
 
 POTCAR:    PAW_PBE Mn_pv 02Aug2007               
   VRHFIN =Mn: 3p4s3d                                                           
   LEXCH  = PE                                                                  
   EATOM  =  2025.2664 eV,  148.8529 Ry                                         
                                                                                
   TITEL  = PAW_PBE Mn_pv 02Aug2007                                             
   LULTRA =        F    use ultrasoft PP ?                                      
   IUNSCR =        1    unscreen: 0-lin 1-nonlin 2-no                           
   RPACOR =    2.080    partial core radius                                     
   POMASS =   54.938; ZVAL   =   13.000    mass and valenz                      
   RCORE  =    2.300    outmost cutoff radius                                   
   RWIGS  =    2.500; RWIGS  =    1.323    wigner-seitz radius (au A)           
   ENMAX  =  269.864; ENMIN  =  202.398 eV                                      
   ICORE  =        3    local potential                                         
   LCOR   =        T    correct aug charges                                     
   LPAW   =        T    paw PP                                                  
   EAUG   =  569.085                                                            
   DEXC   =    0.000                                                            
   RMAX   =    2.343    core radius for proj-oper                               
   RAUG   =    1.300    factor for augmentation sphere                          
   RDEP   =    2.338    radius for radial grids                                 
   RDEPT  =    1.798    core radius for aug-charge                              
                                                                                
   Atomic configuration                                                         
    8 entries                                                                   
     n  l   j            E        occ.                                          
     1  0  0.50     -6424.8287   2.0000                                         
     2  0  0.50      -739.1154   2.0000                                         
     2  1  1.50      -625.3949   6.0000                                         
     3  0  0.50       -81.6100   2.0000                                         
     3  1  1.50       -50.4667   6.0000                                         
     3  2  2.50        -3.3745   6.0000                                         
     4  0  0.50        -4.1331   1.0000                                         
     4  3  2.50        -1.3606   0.0000                                         
   Description                                                                  
     l       E           TYP  RCUT    TYP  RCUT                                 
     1    -50.4666628     23  2.000                                             
     1     -1.3605826     23  2.000                                             
     2     -3.3744729     23  2.300                                             
     2     -4.7350555     23  2.300                                             
     0     -4.1331431     23  2.300                                             
     0      7.6656591     23  2.300                                             
     3      9.5240782     23  2.300                                             
  local pseudopotential read in
  partial core-charges read in
  partial kinetic energy density read in
  atomic valenz-charges read in
  non local Contribution for L=           1  read in
    real space projection operators read in
  non local Contribution for L=           1  read in
    real space projection operators read in
  non local Contribution for L=           2  read in
    real space projection operators read in
  non local Contribution for L=           2  read in
    real space projection operators read in
  non local Contribution for L=           0  read in
    real space projection operators read in
  non local Contribution for L=           0  read in
    real space projection operators read in
    PAW grid and wavefunctions read in
 
   number of l-projection  operators is LMAX  =           6
   number of lm-projection operators is LMMAX =          18
 
 POTCAR:    PAW_PBE O 08Apr2002                   
   VRHFIN =O: s2p4                                                              
   LEXCH  = PE                                                                  
   EATOM  =   432.3788 eV,   31.7789 Ry                                         
                                                                                
   TITEL  = PAW_PBE O 08Apr2002                                                 
   LULTRA =        F    use ultrasoft PP ?                                      
   IUNSCR =        1    unscreen: 0-lin 1-nonlin 2-no                           
   RPACOR =    1.200    partial core radius                                     
   POMASS =   16.000; ZVAL   =    6.000    mass and valenz                      
   RCORE  =    1.520    outmost cutoff radius                                   
   RWIGS  =    1.550; RWIGS  =    0.820    wigner-seitz radius (au A)           
   ENMAX  =  400.000; ENMIN  =  300.000 eV                                      
   ICORE  =        2    local potential                                         
   LCOR   =        T    correct aug charges                                     
   LPAW   =        T    paw PP                                                  
   EAUG   =  605.392                                                            
   DEXC   =    0.000                                                            
   RMAX   =    1.553    core radius for proj-oper                               
   RAUG   =    1.300    factor for augmentation sphere                          
   RDEP   =    1.550    radius for radial grids                                 
   RDEPT  =    1.329    core radius for aug-charge                              
                                                                                
   Atomic configuration                                                         
    4 entries                                                                   
     n  l   j            E        occ.                                          
     1  0  0.50      -514.6923   2.0000                                         
     2  0  0.50       -23.9615   2.0000                                         
     2  1  0.50        -9.0305   4.0000                                         
     3  2  1.50        -9.5241   0.0000                                         
   Description                                                                  
     l       E           TYP  RCUT    TYP  RCUT                                 
     0    -23.9615318     23  1.200                                             
     0     -9.5240782     23  1.200                                             
     1     -9.0304911     23  1.520                                             
     1      8.1634956     23  1.520                                             
     2     -9.5240782      7  1.500                                             
  local pseudopotential read in
  partial core-charges read in
  partial kinetic energy density read in
  kinetic energy density of atom read in
  atomic valenz-charges read in
  non local Contribution for L=           0  read in
    real space projection operators read in
  non local Contribution for L=           0  read in
    real space projection operators read in
  non local Contribution for L=           1  read in
    real space projection operators read in
  non local Contribution for L=           1  read in
    real space projection operators read in
    PAW grid and wavefunctions read in
 
   number of l-projection  operators is LMAX  =           4
   number of lm-projection operators is LMMAX =           8
 
 Optimization of the real space projectors (new method)

 maximal supplied QI-value         = 17.01
 optimisation between [QCUT,QGAM] = [ 10.20, 20.41] = [ 29.16,116.64] Ry 
 Optimized for a Real-space Cutoff    1.30 Angstroem

   l    n(q)    QCUT    max X(q) W(low)/X(q) W(high)/X(q)  e(spline) 
   1      7    10.205     4.940    0.23E-03    0.84E-03    0.11E-06
   1      7    10.205     6.253    0.40E-03    0.13E-02    0.18E-06
   0      8    10.205    37.438    0.23E-03    0.37E-03    0.42E-07
   0      8    10.205     9.606    0.16E-03    0.26E-03    0.31E-07
 Optimization of the real space projectors (new method)

 maximal supplied QI-value         = 18.90
 optimisation between [QCUT,QGAM] = [ 10.20, 20.41] = [ 29.16,116.64] Ry 
 Optimized for a Real-space Cutoff    1.26 Angstroem

   l    n(q)    QCUT    max X(q) W(low)/X(q) W(high)/X(q)  e(spline) 
   1      7    10.205     2.974    0.63E-04    0.14E-03    0.13E-06
   1      7    10.205     4.279    0.11E-03    0.45E-03    0.24E-06
   0      8    10.205    16.381    0.44E-03    0.15E-03    0.55E-07
   0      8    10.205     5.611    0.31E-03    0.11E-03    0.40E-07
   2      7    10.205     4.652    0.50E-03    0.47E-03    0.57E-07
 Optimization of the real space projectors (new method)

 maximal supplied QI-value         = 16.25
 optimisation between [QCUT,QGAM] = [ 10.24, 20.48] = [ 29.35,117.42] Ry 
 Optimized for a Real-space Cutoff    1.34 Angstroem

   l    n(q)    QCUT    max X(q) W(low)/X(q) W(high)/X(q)  e(spline) 
   1      8    10.239     3.658    0.23E-03    0.30E-03    0.98E-07
   1      8    10.239     5.612    0.32E-03    0.65E-03    0.21E-06
   2      7    10.239    55.373    0.42E-03    0.45E-03    0.65E-07
   2      7    10.239    50.863    0.43E-03    0.48E-03    0.67E-07
   0      8    10.239    79.536    0.11E-03    0.21E-03    0.56E-07
   0      8    10.239    38.668    0.96E-04    0.19E-03    0.52E-07
 Optimization of the real space projectors (new method)

 maximal supplied QI-value         = 24.76
 optimisation between [QCUT,QGAM] = [ 10.15, 20.30] = [ 28.85,115.39] Ry 
 Optimized for a Real-space Cutoff    1.38 Angstroem

   l    n(q)    QCUT    max X(q) W(low)/X(q) W(high)/X(q)  e(spline) 
   0      8    10.150    20.381    0.22E-03    0.32E-03    0.29E-06
   0      8    10.150    15.268    0.23E-03    0.35E-03    0.30E-06
   1      8    10.150     5.964    0.46E-03    0.53E-03    0.21E-06
   1      8    10.150     5.382    0.38E-03    0.45E-03    0.19E-06
  PAW_PBE Na_pv 19Sep2006               :
 energy of atom  1       EATOM= -766.0439
 kinetic energy error for atom=    0.0103 (will be added to EATOM!!)
  PAW_PBE Mg_pv 13Apr2007               :
 energy of atom  2       EATOM=-1056.7344
 kinetic energy error for atom=    0.0820 (will be added to EATOM!!)
  PAW_PBE Mn_pv 02Aug2007               :
 energy of atom  3       EATOM=-2025.2664
 kinetic energy error for atom=    0.0284 (will be added to EATOM!!)
  PAW_PBE O 08Apr2002                   :
 energy of atom  4       EATOM= -432.3788
 kinetic energy error for atom=    0.1156 (will be added to EATOM!!)
 
 
 POSCAR: Na Mg Mn  O                             
  positions in cartesian coordinates
  No initial velocities read in

 METAGGA = SCAN     LMAXTAU =  6    LMIXTAU =  F

 exchange correlation table for  LEXCH =        8
   RHO(1)=    0.500       N(1)  =     2000
   RHO(2)=  100.500       N(2)  =     4000

 VTST: version 3.2, (02/03/18)

 CHAIN: initializing optimizer
 
 OPT: Using VASP Dynamics algorithm
 CHAIN: Read ICHAIN            0
 
 POSCAR: Na Mg Mn  O                             
  positions in cartesian coordinates
  No initial velocities read in
 


--------------------------------------------------------------------------------------------------------


 ion  position               nearest neighbor table
   1  0.990  0.565  0.251-  75 2.24  55 2.29  66 2.33  39 2.84  37 2.86
   2  0.204  0.796  0.753-  81 2.25  84 2.31  36 2.97
   3  0.500  0.358  0.750-  49 2.10  46 2.35
   4  0.310  0.547  0.745-  80 2.15  48 2.29  83 2.35
   5  0.858  0.842  0.259-  76 2.24  67 2.24  74 2.28
   6  0.217  0.071  0.256-  42 2.24  51 2.27
   7  0.550  0.081  0.754-  59 2.27  46 2.31  84 2.36  29 2.86
   8  0.695  0.785  0.746-  69 2.24  82 2.30  72 2.37
   9  0.697  0.050  0.249-  54 2.32  88 2.37  63 2.37
  10  0.353  0.850  0.262-  88 2.25  77 2.35  79 2.36  86 2.37
  11  0.559  0.286  0.248-  52 2.28  53 2.29  62 2.32
  12  0.860  0.590  0.757-  73 2.31  71 2.34
  13  0.039  0.059  0.760-  47 2.15  72 2.31  25 2.81  27 2.93
  14  0.969  0.345  0.747-  57 2.28  61 2.28  58 2.32
  15  0.071  0.299  0.242-  41 2.21  64 2.21
  16  0.496  0.594  0.240-  78 2.26  87 2.28  43 2.34  33 2.83
  17  0.689  0.433  0.005-  49 2.02  43 2.06  66 2.06  60 2.08  53 2.11  71 2.12  34 2.85
  18  0.353  0.212  0.509-  44 1.99  50 2.04  46 2.07  52 2.10  45 2.11  51 2.19  36 2.84
  19  0.192  0.428  0.003-  78 1.99  55 2.08  41 2.08  83 2.09  48 2.10  61 2.14  33 2.82
  20  0.854  0.226  0.494-  64 1.99  56 2.04  57 2.05  62 2.07  58 2.12  63 2.13  39 2.78  28 2.85

  21  0.189  0.931  0.003-  42 2.06  73 2.06  47 2.07  67 2.10  84 2.11  77 2.11  25 2.83  26 2.84
                            29 2.85
  22  0.851  0.722  0.502-  70 1.96  74 1.98  75 2.02  76 2.08  69 2.08  68 2.13
  23  0.689  0.925  1.000-  72 2.00  65 2.03  79 2.07  59 2.07  85 2.10  54 2.20  38 2.84
  24  0.345  0.711  0.495-  81 1.96  80 2.01  87 2.02  86 2.04  82 2.08  88 2.10  32 2.78  39 2.80

  25  0.022  0.089  0.008-  67 1.83  41 1.88  54 1.89  61 1.92  47 1.93  72 1.99  13 2.81  21 2.83
                            34 2.85  26 2.91  30 2.97
  26  0.357  0.258  0.003-  42 1.89  47 1.89  49 1.90  43 1.95  41 1.97  48 2.04  29 2.83  21 2.84
                            25 2.91  33 2.91
  27  0.018  0.054  0.500-  69 1.90  63 1.90  76 1.90  50 1.93  44 1.95  58 1.96  36 2.89  32 2.91
                            13 2.93  40 2.93
  28  0.687  0.388  0.501-  46 1.89  52 1.89  75 1.90  57 1.90  62 1.97  68 2.04  20 2.85  35 2.85
                            39 2.91  31 2.99
  29  0.517  0.093  0.006-  79 1.87  84 1.89  42 1.89  59 1.93  53 1.95  49 1.99  26 2.83  38 2.84
                            21 2.85   7 2.86  30 2.92
  30  0.853  0.263  0.009-  53 1.85  59 1.86  54 1.89  61 1.90  55 1.91  60 1.92  37 2.88  29 2.92
                            25 2.97
  31  0.517  0.044  0.489-  56 1.88  51 1.89  88 1.91  62 1.97  81 2.01  46 2.07  40 2.81  36 2.91
                            28 2.99
  32  0.193  0.390  0.500-  87 1.83  45 1.88  50 1.90  80 1.92  64 2.00  58 2.04  24 2.78  39 2.84
                            35 2.85  27 2.91
  33  0.516  0.593  0.989-  78 1.89  48 1.90  85 1.94  65 1.97  43 1.98  71 2.02  19 2.82  16 2.83
                            38 2.84  26 2.91  34 2.94
  34  0.854  0.761  0.996-  71 1.87  72 1.89  73 1.91  66 1.91  67 1.94  65 1.98  17 2.85  25 2.85
                            37 2.88  33 2.94
  35  0.521  0.551  0.508-  68 1.86  45 1.86  82 1.87  52 1.89  87 2.01  74 2.01  32 2.85  28 2.85
                            40 2.91
  36  0.182  0.885  0.504-  70 1.85  44 1.85  51 1.93  81 1.93  86 1.95  76 1.96  18 2.84  27 2.89
                            31 2.91  39 2.94   2 2.97
  37  0.020  0.595  0.997-  66 1.83  55 1.90  60 1.90  83 1.95  77 1.98  73 2.03   1 2.86  34 2.88
                            30 2.88  38 2.97
  38  0.362  0.766  0.992-  78 1.87  85 1.90  79 1.92  84 1.94  77 1.94  83 2.03  29 2.84  23 2.84
                            33 2.84  37 2.97
  39  0.023  0.547  0.501-  86 1.86  64 1.87  80 1.88  57 1.97  75 1.99  70 2.03  20 2.78  24 2.80
                             1 2.84  32 2.84  28 2.91  36 2.94
  40  0.681  0.885  0.493-  88 1.83  82 1.88  56 1.89  74 1.92  69 1.96  63 1.97  31 2.81  35 2.91
                            27 2.93
  41  0.185  0.245  0.097-  25 1.88  26 1.97  19 2.08  15 2.21
  42  0.366  0.107  0.097-  26 1.89  29 1.89  21 2.06   6 2.24
  43  0.510  0.433  0.096-  26 1.95  33 1.98  17 2.06  16 2.34
  44  0.175  0.038  0.592-  36 1.85  27 1.95  18 1.99
  45  0.354  0.400  0.594-  35 1.86  32 1.88  18 2.11
  46  0.541  0.224  0.595-  28 1.89  18 2.07  31 2.07   7 2.31   3 2.35
  47  0.190  0.110  0.911-  26 1.89  25 1.93  21 2.07  13 2.15
  48  0.364  0.428  0.897-  33 1.90  26 2.04  19 2.10   4 2.29
  49  0.517  0.260  0.911-  26 1.90  29 1.99  17 2.02   3 2.10
  50  0.185  0.223  0.414-  32 1.90  27 1.93  18 2.04
  51  0.347  0.026  0.402-  31 1.89  36 1.93  18 2.19   6 2.27
  52  0.531  0.398  0.415-  35 1.89  28 1.89  18 2.10  11 2.28
  53  0.691  0.250  0.097-  30 1.85  29 1.95  17 2.11  11 2.29
  54  0.877  0.116  0.098-  25 1.89  30 1.89  23 2.20   9 2.32
  55  0.014  0.435  0.092-  37 1.90  30 1.91  19 2.08   1 2.29
  56  0.674  0.044  0.579-  31 1.88  40 1.89  20 2.04
  57  0.848  0.393  0.596-  28 1.90  39 1.97  20 2.05  14 2.28
  58  0.025  0.218  0.600-  27 1.96  32 2.04  20 2.12  14 2.32
  59  0.693  0.113  0.919-  30 1.86  29 1.93  23 2.07   7 2.27
  60  0.863  0.425  0.911-  37 1.90  30 1.92  17 2.08
  61  0.000  0.239  0.917-  30 1.90  25 1.92  19 2.14  14 2.28
  62  0.675  0.222  0.399-  31 1.97  28 1.97  20 2.07  11 2.32
  63  0.857  0.043  0.402-  27 1.90  40 1.97  20 2.13   9 2.37
  64  0.028  0.396  0.405-  39 1.87  20 1.99  32 2.00  15 2.21
  65  0.681  0.746  0.091-  33 1.97  34 1.98  23 2.03
  66  0.877  0.612  0.087-  37 1.83  34 1.91  17 2.06   1 2.33
  67  0.004  0.927  0.094-  25 1.83  34 1.94  21 2.10   5 2.24
  68  0.670  0.546  0.605-  35 1.86  28 2.04  22 2.13
  69  0.851  0.904  0.592-  27 1.90  40 1.96  22 2.08   8 2.24
  70  0.023  0.725  0.588-  36 1.85  22 1.96  39 2.03
  71  0.699  0.612  0.898-  34 1.87  33 2.02  17 2.12  12 2.34
  72  0.859  0.925  0.907-  34 1.89  25 1.99  23 2.00  13 2.31   8 2.37
  73  0.015  0.764  0.901-  34 1.91  37 2.03  21 2.06  12 2.31
  74  0.684  0.720  0.408-  40 1.92  22 1.98  35 2.01   5 2.28
  75  0.851  0.547  0.413-  28 1.90  39 1.99  22 2.02   1 2.24
  76  0.028  0.900  0.407-  27 1.90  36 1.96  22 2.08   5 2.24
  77  0.197  0.749  0.092-  38 1.94  37 1.98  21 2.11  10 2.35
  78  0.367  0.611  0.080-  38 1.87  33 1.89  19 1.99  16 2.26
  79  0.511  0.929  0.090-  29 1.87  38 1.92  23 2.07  10 2.36
  80  0.177  0.542  0.593-  39 1.88  32 1.92  24 2.01   4 2.15
  81  0.348  0.878  0.587-  36 1.93  24 1.96  31 2.01   2 2.25
  82  0.532  0.721  0.585-  35 1.87  40 1.88  24 2.08   8 2.30
  83  0.183  0.597  0.900-  37 1.95  38 2.03  19 2.09   4 2.35
  84  0.372  0.938  0.905-  29 1.89  38 1.94  21 2.11   2 2.31   7 2.36
  85  0.512  0.754  0.896-  38 1.90  33 1.94  23 2.10
  86  0.166  0.713  0.411-  39 1.86  36 1.95  24 2.04  10 2.37
  87  0.349  0.536  0.408-  32 1.83  35 2.01  24 2.02  16 2.28
  88  0.531  0.888  0.402-  40 1.83  31 1.91  24 2.10  10 2.25   9 2.37
 
  LATTYP: Found a hexagonal cell.
 ALAT       =    10.0190000534
 C/A-ratio  =     1.1196726572
  
  Lattice vectors:
  
 A1 = (  10.0190000534,   0.0000000000,   0.0000000000)
 A2 = (  -5.0095000267,   8.6767085668,   0.0000000000)
 A3 = (   0.0000000000,   0.0000000000,  11.2180004120)


Analysis of symmetry for initial positions (statically):
=====================================================================
 Subroutine PRICEL returns:
 Original cell was already a primitive cell.
 

 Routine SETGRP: Setting up the symmetry group for a 
 hexagonal supercell.


 Subroutine GETGRP returns: Found  1 space group operations
 (whereof  1 operations were pure point group operations)
 out of a pool of 24 trial point group operations.


The static configuration has the point symmetry C_1 .


Analysis of symmetry for dynamics (positions and initial velocities):
=====================================================================
 Subroutine PRICEL returns:
 Original cell was already a primitive cell.
 

 Routine SETGRP: Setting up the symmetry group for a 
 hexagonal supercell.


 Subroutine GETGRP returns: Found  1 space group operations
 (whereof  1 operations were pure point group operations)
 out of a pool of 24 trial point group operations.


The dynamic configuration has the point symmetry C_1 .


Analysis of structural, dynamic, and magnetic symmetry:
=====================================================================
 Subroutine PRICEL returns:
 Original cell was already a primitive cell.
 

 Routine SETGRP: Setting up the symmetry group for a 
 hexagonal supercell.


 Subroutine GETGRP returns: Found  1 space group operations
 (whereof  1 operations were pure point group operations)
 out of a pool of 24 trial point group operations.


The magnetic configuration has the point symmetry C_1 .


 Subroutine INISYM returns: Found  1 space group operations
 (whereof  1 operations are pure point group operations),
 and found     1 'primitive' translations

 
 

Automatic generation of k-mesh.
 generate k-points for:    2    2    2
Space group operators:
 irot       det(A)        alpha          n_x          n_y          n_z        tau_x        tau_y        tau_z
    1     1.000000     0.000000     1.000000     0.000000     0.000000     0.000000     0.000000     0.000000
 
 Subroutine IBZKPT returns following result:
 ===========================================
 
 Found      8 irreducible k-points:
 
 Following reciprocal coordinates:
            Coordinates               Weight
  0.000000  0.000000  0.000000      1.000000
  0.500000 -0.000000 -0.000000      1.000000
  0.000000  0.500000  0.000000      1.000000
  0.500000  0.500000 -0.000000      1.000000
  0.000000  0.000000  0.500000      1.000000
  0.500000 -0.000000  0.500000      1.000000
  0.000000  0.500000  0.500000      1.000000
  0.500000  0.500000  0.500000      1.000000
 
 Following cartesian coordinates:
            Coordinates               Weight
  0.000000  0.000000  0.000000      1.000000
  0.049905  0.028813 -0.000000      1.000000
  0.000000  0.057626  0.000000      1.000000
  0.049905  0.086438 -0.000000      1.000000
  0.000000  0.000000  0.044571      1.000000
  0.049905  0.028813  0.044571      1.000000
  0.000000  0.057626  0.044571      1.000000
  0.049905  0.086438  0.044571      1.000000
 


--------------------------------------------------------------------------------------------------------




 Dimension of arrays:
   k-points           NKPTS =      8   k-points in BZ     NKDIM =      8   number of bands    NBANDS=    448
   number of dos      NEDOS =    301   number of ions     NIONS =     88
   non local maximal  LDIM  =      6   non local SUM 2l+1 LMDIM =     18
   total plane-waves  NPLWV = 140000
   max r-space proj   IRMAX =   1632   max aug-charges    IRDMAX=   4555
   dimension x,y,z NGX =    50 NGY =   50 NGZ =   56
   dimension x,y,z NGXF=   100 NGYF=  100 NGZF=  112
   support grid    NGXF=   100 NGYF=  100 NGZF=  112
   ions per type =              16   8  16  48
   NGX,Y,Z   is equivalent  to a cutoff of   8.30,  8.30,  8.30 a.u.
   NGXF,Y,Z  is equivalent  to a cutoff of  16.59, 16.59, 16.60 a.u.

 SYSTEM =  unknown system                          
 POSCAR =  Na Mg Mn  O                             

 Startparameter for this run:
   NWRITE =      2    write-flag & timer
   PREC   = normal    normal or accurate (medium, high low for compatibility)
   ISTART =      0    job   : 0-new  1-cont  2-samecut
   ICHARG =      1    charge: 1-file 2-atom 10-const
   ISPIN  =      2    spin polarized calculation?
   LNONCOLLINEAR =      F non collinear calculations
   LSORBIT =      F    spin-orbit coupling
   INIWAV =      1    electr: 0-lowe 1-rand  2-diag
   LASPH  =      T    aspherical Exc in radial PAW
   METAGGA=      F    non-selfconsistent MetaGGA calc.

 Electronic Relaxation 1
   ENCUT  =  400.0 eV  29.40 Ry    5.42 a.u.  16.34 16.34 18.29*2*pi/ulx,y,z
   ENINI  =  400.0     initial cutoff
   ENAUG  =  758.8 eV  augmentation charge cutoff
   NELM   =    200;   NELMIN=  6; NELMDL=-12     # of ELM steps 
   EDIFF  = 0.1E-04   stopping-criterion for ELM
   LREAL  =      T    real-space projection
   NLSPLINE    = F    spline interpolate recip. space projectors
   LCOMPAT=      F    compatible to vasp.4.4
   GGA_COMPAT  = T    GGA compatible to vasp.4.4-vasp.4.6
   LMAXPAW     = -100 max onsite density
   LMAXMIX     =    4 max onsite mixed and CHGCAR
   VOSKOWN=      0    Vosko Wilk Nusair interpolation
   ROPT   =   -0.00050  -0.00050  -0.00050  -0.00050
 Ionic relaxation
   EDIFFG = 0.1E-03   stopping-criterion for IOM
   NSW    =      1    number of steps for IOM
   NBLOCK =      1;   KBLOCK =      1    inner block; outer block 
   IBRION =     -1    ionic relax: 0-MD 1-quasi-New 2-CG
   NFREE  =      0    steps in history (QN), initial steepest desc. (CG)
   ISIF   =      2    stress and relaxation
   IWAVPR =     10    prediction:  0-non 1-charg 2-wave 3-comb
   ISYM   =      2    0-nonsym 1-usesym 2-fastsym
   LCORR  =      T    Harris-Foulkes like correction to forces

   POTIM  = 0.5000    time-step for ionic-motion
   TEIN   =    0.0    initial temperature
   TEBEG  =    0.0;   TEEND  =   0.0 temperature during run
   SMASS  =  -3.00    Nose mass-parameter (am)
   estimated Nose-frequenzy (Omega)   =  0.10E-29 period in steps =****** mass=  -0.229E-26a.u.
   SCALEE = 1.0000    scale energy and forces
   NPACO  =    256;   APACO  = 16.0  distance and # of slots for P.C.
   PSTRESS=    0.0 pullay stress

  Mass of Ions in am
   POMASS =  22.99 24.30 54.94 16.00
  Ionic Valenz
   ZVAL   =   7.00  8.00 13.00  6.00
  Atomic Wigner-Seitz radii
   RWIGS  =  -1.00 -1.00 -1.00 -1.00
  virtual crystal weights 
   VCA    =   1.00  1.00  1.00  1.00
   NELECT =     672.0000    total number of electrons
   NUPDOWN=      48.0000    fix difference up-down

 DOS related values:
   EMIN   =  10.00;   EMAX   =-10.00  energy-range for DOS
   EFERMI =   0.00
   ISMEAR =     0;   SIGMA  =   0.05  broadening in eV -4-tet -1-fermi 0-gaus

 Electronic relaxation 2 (details)
   IALGO  =     48    algorithm
   LDIAG  =      T    sub-space diagonalisation (order eigenvalues)
   LSUBROT=      F    optimize rotation matrix (better conditioning)
   TURBO    =      0    0=normal 1=particle mesh
   IRESTART =      0    0=no restart 2=restart with 2 vectors
   NREBOOT  =      0    no. of reboots
   NMIN     =      0    reboot dimension
   EREF     =   0.00    reference energy to select bands
   IMIX   =      4    mixing-type and parameters
     AMIX     =   0.40;   BMIX     =  1.00
     AMIX_MAG =   1.60;   BMIX_MAG =  1.00
     AMIN     =   0.10
     WC   =   100.;   INIMIX=   1;  MIXPRE=   1;  MAXMIX= -45

 Intra band minimization:
   WEIMIN = 0.0000     energy-eigenvalue tresh-hold
   EBREAK =  0.56E-08  absolut break condition
   DEPER  =   0.30     relativ break condition  

   TIME   =   0.40     timestep for ELM

  volume/ion in A,a.u.               =      11.08        74.78
  Fermi-wavevector in a.u.,A,eV,Ry     =   1.445993  2.732531 28.448379  2.090897
  Thomas-Fermi vector in A             =   2.564112
 
 Write flags
   LWAVE        =      F    write WAVECAR
   LDOWNSAMPLE  =      F    k-point downsampling of WAVECAR
   LCHARG       =      F    write CHGCAR
   LVTOT        =      F    write LOCPOT, total local potential
   LVHAR        =      F    write LOCPOT, Hartree potential only
   LELF         =      F    write electronic localiz. function (ELF)
   LORBIT       =     11    0 simple, 1 ext, 2 COOP (PROOUT), +10 PAW based schemes


 Dipole corrections
   LMONO  =      F    monopole corrections only (constant potential shift)
   LDIPOL =      F    correct potential (dipole corrections)
   IDIPOL =      0    1-x, 2-y, 3-z, 4-all directions 
   EPSILON=  1.0000000 bulk dielectric constant

 Exchange correlation treatment:
   GGA     =    --    GGA type
   LEXCH   =     8    internal setting for exchange type
   VOSKOWN=      0    Vosko Wilk Nusair interpolation
   LHFCALC =     F    Hartree Fock is set to
   LHFONE  =     F    Hartree Fock one center treatment
   AEXX    =    0.0000 exact exchange contribution

 Linear response parameters
   LEPSILON=     F    determine dielectric tensor
   LRPA    =     F    only Hartree local field effects (RPA)
   LNABLA  =     F    use nabla operator in PAW spheres
   LVEL    =     F    velocity operator in full k-point grid
   LINTERFAST=   F  fast interpolation
   KINTER  =     0    interpolate to denser k-point grid
   CSHIFT  =0.1000    complex shift for real part using Kramers Kronig
   OMEGAMAX=  -1.0    maximum frequency
   DEG_THRESHOLD= 0.2000000E-02 threshold for treating states as degnerate
   RTIME   =   -0.100 relaxation time in fs
  (WPLASMAI=    0.000 imaginary part of plasma frequency in eV, 0.658/RTIME)
   DFIELD  = 0.0000000 0.0000000 0.0000000 field for delta impulse in time
 
 Orbital magnetization related:
   ORBITALMAG=     F  switch on orbital magnetization
   LCHIMAG   =     F  perturbation theory with respect to B field
   DQ        =  0.001000  dq finite difference perturbation B field
   LLRAUG    =     F  two centre corrections for induced B field



--------------------------------------------------------------------------------------------------------


 Static calculation
 charge density and potential will be updated during run
 spin polarized calculation
 RMM-DIIS sequential band-by-band
 perform sub-space diagonalisation
    before iterative eigenvector-optimisation
 modified Broyden-mixing scheme, WC =      100.0
 initial mixing is a Kerker type mixing with AMIX =  0.4000 and BMIX =      1.0000
 Hartree-type preconditioning will be used
 using additional bands          112
 real space projection scheme for non local part
 use partial core corrections
 calculate Harris-corrections to forces 
   (improved forces if not selfconsistent)
 use gradient corrections 
 use of overlap-Matrix (Vanderbilt PP)
 Gauss-broadening in eV      SIGMA  =   0.05


--------------------------------------------------------------------------------------------------------


  energy-cutoff  :      400.00
  volume of cell :      975.20
      direct lattice vectors                 reciprocal lattice vectors
    10.019000053  0.000000000  0.000000000     0.099810360  0.057625538 -0.000000000
    -5.009500027  8.676708567  0.000000000     0.000000000  0.115251076  0.000000000
     0.000000000  0.000000000 11.218000412     0.000000000  0.000000000  0.089142446

  length of vectors
    10.019000053 10.019000053 11.218000412     0.115251076  0.115251076  0.089142446


 
 k-points in units of 2pi/SCALE and weight: read from INCAR                         
   0.00000000  0.00000000  0.00000000       0.125
   0.04990518  0.02881277 -0.00000000       0.125
   0.00000000  0.05762554  0.00000000       0.125
   0.04990518  0.08643831 -0.00000000       0.125
   0.00000000  0.00000000  0.04457122       0.125
   0.04990518  0.02881277  0.04457122       0.125
   0.00000000  0.05762554  0.04457122       0.125
   0.04990518  0.08643831  0.04457122       0.125
 
 k-points in reciprocal lattice and weights: read from INCAR                         
   0.00000000  0.00000000  0.00000000       0.125
   0.50000000 -0.00000000 -0.00000000       0.125
   0.00000000  0.50000000  0.00000000       0.125
   0.50000000  0.50000000 -0.00000000       0.125
   0.00000000  0.00000000  0.50000000       0.125
   0.50000000 -0.00000000  0.50000000       0.125
   0.00000000  0.50000000  0.50000000       0.125
   0.50000000  0.50000000  0.50000000       0.125
 
 position of ions in fractional coordinates (direct lattice) 
   0.99019128  0.56501181  0.25101532
   0.20396217  0.79632632  0.75325902
   0.49960073  0.35771826  0.74996342
   0.31000547  0.54675012  0.74500621
   0.85825780  0.84172372  0.25850596
   0.21697408  0.07148086  0.25644321
   0.54975733  0.08114960  0.75353001
   0.69519024  0.78465139  0.74588070
   0.69706154  0.04989713  0.24909252
   0.35324627  0.84966452  0.26172579
   0.55858624  0.28592985  0.24819129
   0.85968457  0.58989913  0.75737384
   0.03893984  0.05889577  0.75998749
   0.96856608  0.34499718  0.74717148
   0.07087222  0.29930507  0.24215813
   0.49614964  0.59413378  0.24026118
   0.68876466  0.43271247  0.00522098
   0.35285916  0.21184070  0.50871455
   0.19208708  0.42777511  0.00311103
   0.85386531  0.22622749  0.49435102
   0.18895407  0.93068586  0.00307922
   0.85128780  0.72235802  0.50224548
   0.68900149  0.92522527  0.99976946
   0.34533881  0.71055400  0.49534764
   0.02158781  0.08917223  0.00806021
   0.35685297  0.25823732  0.00269157
   0.01790406  0.05413412  0.49963361
   0.68726819  0.38797085  0.50123282
   0.51719229  0.09292596  0.00631519
   0.85342920  0.26310553  0.00871809
   0.51654921  0.04405161  0.48868335
   0.19307797  0.38978951  0.50006149
   0.51596504  0.59309587  0.98855001
   0.85415938  0.76095676  0.99550480
   0.52137254  0.55056822  0.50811105
   0.18198720  0.88495654  0.50441075
   0.01999293  0.59506320  0.99703290
   0.36175545  0.76621336  0.99174488
   0.02284387  0.54683754  0.50076750
   0.68054772  0.88477444  0.49292920
   0.18461570  0.24484054  0.09664378
   0.36566876  0.10675822  0.09708950
   0.50980098  0.43276894  0.09552594
   0.17451500  0.03838223  0.59159652
   0.35397070  0.40036380  0.59366195
   0.54056002  0.22383488  0.59517737
   0.19036716  0.11013646  0.91063466
   0.36415300  0.42773708  0.89674627
   0.51704103  0.26040404  0.91066140
   0.18468813  0.22252447  0.41398287
   0.34723596  0.02586827  0.40170617
   0.53053022  0.39813600  0.41536279
   0.69108897  0.25029652  0.09678730
   0.87731626  0.11594604  0.09812087
   0.01356744  0.43464062  0.09195043
   0.67444391  0.04420472  0.57892314
   0.84756204  0.39313986  0.59564002
   0.02537345  0.21839157  0.60009982
   0.69274799  0.11322531  0.91892491
   0.86317259  0.42546087  0.91081295
   0.00002163  0.23913100  0.91707966
   0.67450545  0.22187446  0.39918166
   0.85715851  0.04251744  0.40198340
   0.02760365  0.39621937  0.40516401
   0.68143655  0.74630258  0.09085398
   0.87724555  0.61235317  0.08687119
   0.00439342  0.92662096  0.09422267
   0.67013954  0.54580259  0.60472364
   0.85102816  0.90411242  0.59150827
   0.02268731  0.72478175  0.58797288
   0.69907014  0.61178037  0.89848455
   0.85946430  0.92457986  0.90710462
   0.01459254  0.76381729  0.90098053
   0.68369692  0.71999191  0.40772061
   0.85085860  0.54735848  0.41266089
   0.02811598  0.90041402  0.40682473
   0.19682299  0.74946392  0.09232929
   0.36711050  0.61073044  0.08048226
   0.51074175  0.92860097  0.09042877
   0.17698481  0.54186561  0.59294792
   0.34783484  0.87822242  0.58715723
   0.53171091  0.72056125  0.58536814
   0.18259120  0.59688417  0.89971471
   0.37168496  0.93791787  0.90495629
   0.51150470  0.75411430  0.89589941
   0.16607159  0.71310336  0.41079603
   0.34860203  0.53615146  0.40798358
   0.53058445  0.88823428  0.40152076
 
 position of ions in cartesian coordinates  (Angst):
   7.09029981  4.90244283  2.81589000
  -1.94569976  6.90949143  8.45006000
   3.21351005  3.10381713  8.41309000
   0.36700013  4.74399143  8.35748000
   4.38226997  7.30339143  2.89992000
   1.81577997  0.62021857  2.87678000
   5.10149981  0.70411143  8.45310000
   3.03439992  6.80819143  8.36729000
   6.73389997  0.43294283  2.79432000
  -0.71722003  7.37229143  2.93604000
   4.16411000  2.48093000  2.78421000
   5.65808005  5.11838287  8.49622000
   0.09509987  0.51102143  8.52554000
   7.97580021  2.99344000  8.38177000
  -0.78929995  2.59698287  2.71653000
   1.99461003  5.15512570  2.69525000
   4.73306000  3.75452000  0.05856900
   2.47408000  1.83808000  5.70676000
  -0.21841900  3.71168000  0.03489959
   7.42159000  1.96291000  5.54563000
  -2.76914000  8.07529000  0.03454270
   4.91040000  6.26769000  5.63419000
   2.26819000  8.02791000 11.21541417
  -0.09957070  6.16527000  5.55681000
  -0.23042003  0.77372143  0.09041940
   2.28167000  2.24065000  0.03019400
  -0.09180410  0.46970600  5.60489000
   4.94220000  3.36631000  5.62283000
   4.71623703  0.80629143  0.07084380
   7.23248000  2.28289000  0.09779959
   4.95463000  0.38222300  5.48205000
  -0.01820240  3.38209000  5.60969000
   2.19834000  5.14612000 11.08955441
   4.74581000  6.60260000 11.16757321
   2.46556000  4.77712000  5.69999000
  -2.60986000  7.67851000  5.65848000
  -2.78066000  5.16319000 11.18471551
  -0.21391800  6.64821000 11.12539451
  -2.51051000  4.74475000  5.61761000
   2.38613000  7.67693000  5.52968000
   0.62313600  2.12441000  1.08415000
   3.12883000  0.92631000  1.08915000
   2.93974000  3.75501000  1.07161000
   1.55619003  0.33303143  6.63653000
   1.54081000  3.47384000  6.65970000
   4.29457000  1.94215000  6.67670000
   1.35556000  0.95562200 10.21550000
   1.50570000  3.71135000 10.05970000
   3.87574000  2.25945000 10.21580000
   0.73565400  1.93078000  4.64406000
   3.34937003  0.22445143  4.50634000
   3.32092000  3.45451000  4.65954000
   5.67016000  2.17175000  1.08576000
   8.20900000  1.00603000  1.10072000
  -2.04140005  3.77125000  1.03150000
   6.53581003  0.38355143  6.49436000
   6.52229000  3.41116000  6.68189000
  -0.83981600  1.89492000  6.73192000
   6.37344000  0.98242300 10.30850000
   6.51678000  3.69160000 10.21750000
  -1.19771005  2.07487000 10.28780000
   5.64639000  1.92514000  4.47802000
   8.37488003  0.36891143  4.50945000
  -1.70830000  3.43788000  4.54513000
   3.08871000  6.47545000  1.01920000
   5.72154000  5.31321000  0.97452100
  -4.59789005  8.04002000  1.05699000
   3.97993000  4.73577000  6.78379000
   3.99730000  7.84472000  6.63554000
  -3.40349000  6.28872000  6.59588000
   3.93927000  5.30824000 10.07920000
   3.97929000  8.02231000 10.17590000
  -3.68014005  6.62742000 10.10720000
   3.24316000  6.24716000  4.57381000
   5.78276000  4.74927000  4.62923000
  -4.22893000  7.81263000  4.56376000
  -1.78247000  6.50288000  1.03575000
   0.61862600  5.29913000  0.90285000
   0.46529500  8.05720000  1.01443000
  -0.94126500  4.70161000  6.65169000
  -0.91449800  7.62008000  6.58673000
   1.71756000  6.25210000  6.56666000
  -1.16071000  5.17899000 10.09300000
  -0.97458800  8.13804000 10.15180000
   1.34703000  6.54323000 10.05020000
  -1.90842000  6.18739000  4.60831000
   0.80679300  4.65203000  4.57676000
   0.86631600  7.70695000  4.50426000
 


--------------------------------------------------------------------------------------------------------


 k-point  1 :   0.0000 0.0000 0.0000  plane waves:   17725
 k-point  2 :   0.5000-0.0000-0.0000  plane waves:   17736
 k-point  3 :   0.0000 0.5000 0.0000  plane waves:   17736
 k-point  4 :   0.5000 0.5000-0.0000  plane waves:   17736
 k-point  5 :   0.0000 0.0000 0.5000  plane waves:   17676
 k-point  6 :   0.5000-0.0000 0.5000  plane waves:   17700
 k-point  7 :   0.0000 0.5000 0.5000  plane waves:   17700
 k-point  8 :   0.5000 0.5000 0.5000  plane waves:   17700

 maximum and minimum number of plane-waves per node :     17736    17676

 maximum number of plane-waves:     17736
 maximum index in each direction: 
   IXMAX=   16   IYMAX=   16   IZMAX=   18
   IXMIN=  -16   IYMIN=  -16   IZMIN=  -18


 serial   3D FFT for wavefunctions
 parallel 3D FFT for charge:
    minimum data exchange during FFTs selected (reduces bandwidth)


 total amount of memory used by VASP MPI-rank0    88193. kBytes
=======================================================================

   base      :      30000. kBytes
   nonlr-proj:      13684. kBytes
   fftplans  :        992. kBytes
   grid      :      21513. kBytes
   one-center:       2737. kBytes
   wavefun   :      19267. kBytes
 
     INWAV:  cpu time    0.0000: real time    0.0001
 Broyden mixing: mesh for mixing (old mesh)
   NGX = 33   NGY = 33   NGZ = 37
  (NGX  =100   NGY  =100   NGZ  =112)
  gives a total of  40293 points

 initial charge density was supplied:
 charge density of overlapping atoms calculated
 number of electron     672.0000000 magnetization      48.0000000
 keeping initial charge density in first step


--------------------------------------------------------------------------------------------------------


 Maximum index for non-local projection operator         1555
 Maximum index for augmentation-charges          280 (set IRDMAX)


--------------------------------------------------------------------------------------------------------


 First call to EWALD:  gamma=   0.179
 Maximum number of real-space cells 3x 3x 2
 Maximum number of reciprocal cells 3x 3x 3

    FEWALD:  cpu time    0.0024: real time    0.0030


--------------------------------------- Iteration      1(   1)  ---------------------------------------


    POTLOK:  cpu time    0.2030: real time    0.2041
    SETDIJ:  cpu time    3.1212: real time    3.1219
    EDDIAG:  cpu time    3.7099: real time    3.7149
  RMM-DIIS:  cpu time    6.5899: real time    6.5934
    ORTHCH:  cpu time    1.1534: real time    1.1557
       DOS:  cpu time    0.0020: real time    0.0022
    --------------------------------------------
      LOOP:  cpu time   14.7794: real time   14.7922

 eigenvalue-minimisations  :  7168
 total energy-change (2. order) : 0.1870174E+04  (-0.3592556E+05)
 number of electron     672.0000000 magnetization      48.0000000
 augmentation part      672.0000000 magnetization      48.0000000

 Free energy of the ion-electron system (eV)
  ---------------------------------------------------
  alpha Z        PSCENC =      2652.81237852
  Ewald energy   TEWEN  =    -41847.64551100
  -Hartree energ DENC   =    -25766.99138095
  -exchange      EXHF   =         0.00000000
  -V(xc)+E(xc)   XCENC  =      3606.15545803
  PAW double counting   =     55594.23204139   -59034.67079123
  entropy T*S    EENTRO =        -0.05065657
  eigenvalues    EBANDS =     -7195.86613986
  atomic energy  EATOM  =     73862.19814772
  Solvation  Ediel_sol  =         0.00000000
  ---------------------------------------------------
  free energy    TOTEN  =      1870.17354603 eV

  energy without entropy =     1870.22420261  energy(sigma->0) =     1870.19887432


--------------------------------------------------------------------------------------------------------




--------------------------------------- Iteration      1(   2)  ---------------------------------------


    EDDIAG:  cpu time    3.7248: real time    3.7275
  RMM-DIIS:  cpu time    6.6269: real time    6.6301
    ORTHCH:  cpu time    1.1496: real time    1.1521
       DOS:  cpu time    0.0014: real time    0.0014
    --------------------------------------------
      LOOP:  cpu time   11.5028: real time   11.5111

 eigenvalue-minimisations  :  7168
 total energy-change (2. order) :-0.2711626E+04  (-0.8686799E+04)
 number of electron     672.0000000 magnetization      48.0000000
 augmentation part      672.0000000 magnetization      48.0000000

 Free energy of the ion-electron system (eV)
  ---------------------------------------------------
  alpha Z        PSCENC =      2652.81237852
  Ewald energy   TEWEN  =    -41847.64551100
  -Hartree energ DENC   =    -25766.99138095
  -exchange      EXHF   =         0.00000000
  -V(xc)+E(xc)   XCENC  =      3606.15545803
  PAW double counting   =     55594.23204139   -59034.67079123
  entropy T*S    EENTRO =        -0.03021141
  eigenvalues    EBANDS =     -9907.51221972
  atomic energy  EATOM  =     73862.19814772
  Solvation  Ediel_sol  =         0.00000000
  ---------------------------------------------------
  free energy    TOTEN  =      -841.45208866 eV

  energy without entropy =     -841.42187725  energy(sigma->0) =     -841.43698296


--------------------------------------------------------------------------------------------------------




--------------------------------------- Iteration      1(   3)  ---------------------------------------


    EDDIAG:  cpu time    3.7815: real time    3.8470
  RMM-DIIS:  cpu time    6.6149: real time    6.6181
    ORTHCH:  cpu time    1.1515: real time    1.1541
       DOS:  cpu time    0.0015: real time    0.0015
    --------------------------------------------
      LOOP:  cpu time   11.5493: real time   11.6207

 eigenvalue-minimisations  :  7168
 total energy-change (2. order) : 0.3077693E+03  (-0.1561854E+04)
 number of electron     672.0000000 magnetization      48.0000000
 augmentation part      672.0000000 magnetization      48.0000000

 Free energy of the ion-electron system (eV)
  ---------------------------------------------------
  alpha Z        PSCENC =      2652.81237852
  Ewald energy   TEWEN  =    -41847.64551100
  -Hartree energ DENC   =    -25766.99138095
  -exchange      EXHF   =         0.00000000
  -V(xc)+E(xc)   XCENC  =      3606.15545803
  PAW double counting   =     55594.23204139   -59034.67079123
  entropy T*S    EENTRO =        -0.04149741
  eigenvalues    EBANDS =     -9599.73166285
  atomic energy  EATOM  =     73862.19814772
  Solvation  Ediel_sol  =         0.00000000
  ---------------------------------------------------
  free energy    TOTEN  =      -533.68281779 eV

  energy without entropy =     -533.64132038  energy(sigma->0) =     -533.66206909


--------------------------------------------------------------------------------------------------------




--------------------------------------- Iteration      1(   4)  ---------------------------------------


    EDDIAG:  cpu time    3.7617: real time    3.7657
  RMM-DIIS:  cpu time    6.6044: real time    6.6074
    ORTHCH:  cpu time    1.1538: real time    1.1562
       DOS:  cpu time    0.0012: real time    0.0012
    --------------------------------------------
      LOOP:  cpu time   11.5211: real time   11.5304

 eigenvalue-minimisations  :  7168
 total energy-change (2. order) :-0.5242879E+03  (-0.5076322E+03)
 number of electron     672.0000000 magnetization      48.0000000
 augmentation part      672.0000000 magnetization      48.0000000

 Free energy of the ion-electron system (eV)
  ---------------------------------------------------
  alpha Z        PSCENC =      2652.81237852
  Ewald energy   TEWEN  =    -41847.64551100
  -Hartree energ DENC   =    -25766.99138095
  -exchange      EXHF   =         0.00000000
  -V(xc)+E(xc)   XCENC  =      3606.15545803
  PAW double counting   =     55594.23204139   -59034.67079123
  entropy T*S    EENTRO =        -0.00000270
  eigenvalues    EBANDS =    -10124.06101387
  atomic energy  EATOM  =     73862.19814772
  Solvation  Ediel_sol  =         0.00000000
  ---------------------------------------------------
  free energy    TOTEN  =     -1057.97067410 eV

  energy without entropy =    -1057.97067140  energy(sigma->0) =    -1057.97067275


--------------------------------------------------------------------------------------------------------




--------------------------------------- Iteration      1(   5)  ---------------------------------------


    EDDIAG:  cpu time    3.7670: real time    3.7717
  RMM-DIIS:  cpu time    6.6201: real time    6.6496
    ORTHCH:  cpu time    1.1542: real time    1.1564
       DOS:  cpu time    0.0012: real time    0.0012
    --------------------------------------------
      LOOP:  cpu time   11.5424: real time   11.5790

 eigenvalue-minimisations  :  7168
 total energy-change (2. order) :-0.1477419E+03  (-0.2136110E+03)
 number of electron     672.0000000 magnetization      48.0000000
 augmentation part      672.0000000 magnetization      48.0000000

 Free energy of the ion-electron system (eV)
  ---------------------------------------------------
  alpha Z        PSCENC =      2652.81237852
  Ewald energy   TEWEN  =    -41847.64551100
  -Hartree energ DENC   =    -25766.99138095
  -exchange      EXHF   =         0.00000000
  -V(xc)+E(xc)   XCENC  =      3606.15545803
  PAW double counting   =     55594.23204139   -59034.67079123
  entropy T*S    EENTRO =        -0.00000000
  eigenvalues    EBANDS =    -10271.80292352
  atomic energy  EATOM  =     73862.19814772
  Solvation  Ediel_sol  =         0.00000000
  ---------------------------------------------------
  free energy    TOTEN  =     -1205.71258105 eV

  energy without entropy =    -1205.71258105  energy(sigma->0) =    -1205.71258105


--------------------------------------------------------------------------------------------------------




--------------------------------------- Iteration      1(   6)  ---------------------------------------


    EDDIAG:  cpu time    3.8207: real time    3.8233
  RMM-DIIS:  cpu time    6.6056: real time    6.6093
    ORTHCH:  cpu time    1.1579: real time    1.1602
       DOS:  cpu time    0.0011: real time    0.0011
    --------------------------------------------
      LOOP:  cpu time   11.5852: real time   11.5939

 eigenvalue-minimisations  :  7168
 total energy-change (2. order) :-0.2146827E+02  (-0.1156181E+03)
 number of electron     672.0000000 magnetization      48.0000000
 augmentation part      672.0000000 magnetization      48.0000000

 Free energy of the ion-electron system (eV)
  ---------------------------------------------------
  alpha Z        PSCENC =      2652.81237852
  Ewald energy   TEWEN  =    -41847.64551100
  -Hartree energ DENC   =    -25766.99138095
  -exchange      EXHF   =         0.00000000
  -V(xc)+E(xc)   XCENC  =      3606.15545803
  PAW double counting   =     55594.23204139   -59034.67079123
  entropy T*S    EENTRO =        -0.00000000
  eigenvalues    EBANDS =    -10293.27119477
  atomic energy  EATOM  =     73862.19814772
  Solvation  Ediel_sol  =         0.00000000
  ---------------------------------------------------
  free energy    TOTEN  =     -1227.18085230 eV

  energy without entropy =    -1227.18085230  energy(sigma->0) =    -1227.18085230


--------------------------------------------------------------------------------------------------------




--------------------------------------- Iteration      1(   7)  ---------------------------------------


    EDDIAG:  cpu time    3.7856: real time    3.7882
  RMM-DIIS:  cpu time    6.6205: real time    6.6251
    ORTHCH:  cpu time    1.1620: real time    1.1642
       DOS:  cpu time    0.0012: real time    0.0012
    --------------------------------------------
      LOOP:  cpu time   11.5694: real time   11.5788

 eigenvalue-minimisations  :  7168
 total energy-change (2. order) :-0.6813135E+01  (-0.7629186E+02)
 number of electron     672.0000000 magnetization      48.0000000
 augmentation part      672.0000000 magnetization      48.0000000

 Free energy of the ion-electron system (eV)
  ---------------------------------------------------
  alpha Z        PSCENC =      2652.81237852
  Ewald energy   TEWEN  =    -41847.64551100
  -Hartree energ DENC   =    -25766.99138095
  -exchange      EXHF   =         0.00000000
  -V(xc)+E(xc)   XCENC  =      3606.15545803
  PAW double counting   =     55594.23204139   -59034.67079123
  entropy T*S    EENTRO =        -0.00000000
  eigenvalues    EBANDS =    -10300.08432968
  atomic energy  EATOM  =     73862.19814772
  Solvation  Ediel_sol  =         0.00000000
  ---------------------------------------------------
  free energy    TOTEN  =     -1233.99398721 eV

  energy without entropy =    -1233.99398721  energy(sigma->0) =    -1233.99398721


--------------------------------------------------------------------------------------------------------




--------------------------------------- Iteration      1(   8)  ---------------------------------------


    EDDIAG:  cpu time    3.7639: real time    3.8013
  RMM-DIIS:  cpu time    6.5955: real time    6.6013
    ORTHCH:  cpu time    1.1580: real time    1.1607
       DOS:  cpu time    0.0012: real time    0.0012
    --------------------------------------------
      LOOP:  cpu time   11.5186: real time   11.5645

 eigenvalue-minimisations  :  7168
 total energy-change (2. order) : 0.4712911E+01  (-0.5260536E+02)
 number of electron     672.0000000 magnetization      48.0000000
 augmentation part      672.0000000 magnetization      48.0000000

 Free energy of the ion-electron system (eV)
  ---------------------------------------------------
  alpha Z        PSCENC =      2652.81237852
  Ewald energy   TEWEN  =    -41847.64551100
  -Hartree energ DENC   =    -25766.99138095
  -exchange      EXHF   =         0.00000000
  -V(xc)+E(xc)   XCENC  =      3606.15545803
  PAW double counting   =     55594.23204139   -59034.67079123
  entropy T*S    EENTRO =        -0.00000000
  eigenvalues    EBANDS =    -10295.37141916
  atomic energy  EATOM  =     73862.19814772
  Solvation  Ediel_sol  =         0.00000000
  ---------------------------------------------------
  free energy    TOTEN  =     -1229.28107669 eV

  energy without entropy =    -1229.28107669  energy(sigma->0) =    -1229.28107669


--------------------------------------------------------------------------------------------------------




--------------------------------------- Iteration      1(   9)  ---------------------------------------


    EDDIAG:  cpu time    3.7354: real time    3.7401
  RMM-DIIS:  cpu time   13.8096: real time   13.8173
    ORTHCH:  cpu time    1.1471: real time    1.1495
       DOS:  cpu time    0.0010: real time    0.0010
    --------------------------------------------
      LOOP:  cpu time   18.6931: real time   18.7080

 eigenvalue-minimisations  : 20208
 total energy-change (2. order) : 0.1784707E+02  (-0.2352310E+02)
 number of electron     672.0000000 magnetization      48.0000000
 augmentation part      672.0000000 magnetization      48.0000000

 Free energy of the ion-electron system (eV)
  ---------------------------------------------------
  alpha Z        PSCENC =      2652.81237852
  Ewald energy   TEWEN  =    -41847.64551100
  -Hartree energ DENC   =    -25766.99138095
  -exchange      EXHF   =         0.00000000
  -V(xc)+E(xc)   XCENC  =      3606.15545803
  PAW double counting   =     55594.23204139   -59034.67079123
  entropy T*S    EENTRO =        -0.00000000
  eigenvalues    EBANDS =    -10277.52435229
  atomic energy  EATOM  =     73862.19814772
  Solvation  Ediel_sol  =         0.00000000
  ---------------------------------------------------
  free energy    TOTEN  =     -1211.43400981 eV

  energy without entropy =    -1211.43400981  energy(sigma->0) =    -1211.43400981


--------------------------------------------------------------------------------------------------------




--------------------------------------- Iteration      1(  10)  ---------------------------------------


    EDDIAG:  cpu time    3.7422: real time    3.7650
  RMM-DIIS:  cpu time   15.7260: real time   15.7344
    ORTHCH:  cpu time    1.1568: real time    1.1591
       DOS:  cpu time    0.0011: real time    0.0011
    --------------------------------------------
      LOOP:  cpu time   20.6261: real time   20.6595

 eigenvalue-minimisations  : 20271
 total energy-change (2. order) :-0.2929167E+01  (-0.1034737E+01)
 number of electron     672.0000000 magnetization      48.0000000
 augmentation part      672.0000000 magnetization      48.0000000

 Free energy of the ion-electron system (eV)
  ---------------------------------------------------
  alpha Z        PSCENC =      2652.81237852
  Ewald energy   TEWEN  =    -41847.64551100
  -Hartree energ DENC   =    -25766.99138095
  -exchange      EXHF   =         0.00000000
  -V(xc)+E(xc)   XCENC  =      3606.15545803
  PAW double counting   =     55594.23204139   -59034.67079123
  entropy T*S    EENTRO =        -0.00000002
  eigenvalues    EBANDS =    -10280.45351965
  atomic energy  EATOM  =     73862.19814772
  Solvation  Ediel_sol  =         0.00000000
  ---------------------------------------------------
  free energy    TOTEN  =     -1214.36317719 eV

  energy without entropy =    -1214.36317718  energy(sigma->0) =    -1214.36317718


--------------------------------------------------------------------------------------------------------




--------------------------------------- Iteration      1(  11)  ---------------------------------------


    EDDIAG:  cpu time    3.7565: real time    3.7601
  RMM-DIIS:  cpu time   15.2090: real time   15.3175
    ORTHCH:  cpu time    1.1542: real time    1.1566
       DOS:  cpu time    0.0011: real time    0.0011
    --------------------------------------------
      LOOP:  cpu time   20.1207: real time   20.2353

 eigenvalue-minimisations  : 21669
 total energy-change (2. order) : 0.1049227E+00  (-0.9607921E-01)
 number of electron     672.0000000 magnetization      48.0000000
 augmentation part      672.0000000 magnetization      48.0000000

 Free energy of the ion-electron system (eV)
  ---------------------------------------------------
  alpha Z        PSCENC =      2652.81237852
  Ewald energy   TEWEN  =    -41847.64551100
  -Hartree energ DENC   =    -25766.99138095
  -exchange      EXHF   =         0.00000000
  -V(xc)+E(xc)   XCENC  =      3606.15545803
  PAW double counting   =     55594.23204139   -59034.67079123
  entropy T*S    EENTRO =        -0.00000001
  eigenvalues    EBANDS =    -10280.34859691
  atomic energy  EATOM  =     73862.19814772
  Solvation  Ediel_sol  =         0.00000000
  ---------------------------------------------------
  free energy    TOTEN  =     -1214.25825445 eV

  energy without entropy =    -1214.25825443  energy(sigma->0) =    -1214.25825444


--------------------------------------------------------------------------------------------------------




--------------------------------------- Iteration      1(  12)  ---------------------------------------


    EDDIAG:  cpu time    3.7467: real time    3.7511
  RMM-DIIS:  cpu time   16.1091: real time   16.1180
    ORTHCH:  cpu time    1.1503: real time    1.1526
       DOS:  cpu time    0.0012: real time    0.0012
    CHARGE:  cpu time    1.3398: real time    1.3547
    MIXING:  cpu time    0.0015: real time    0.0015
    --------------------------------------------
      LOOP:  cpu time   22.3486: real time   22.3792

 eigenvalue-minimisations  : 22888
 total energy-change (2. order) : 0.6785892E-02  (-0.6842235E-02)
 number of electron     671.9999664 magnetization      47.9999963
 augmentation part      239.1123228 magnetization      29.0508337

 Broyden mixing:
  rms(total) = 0.12623E+02    rms(broyden)= 0.12613E+02
  rms(prec ) = 0.14461E+02
  weight for this iteration     100.00

 Free energy of the ion-electron system (eV)
  ---------------------------------------------------
  alpha Z        PSCENC =      2652.81237852
  Ewald energy   TEWEN  =    -41847.64551100
  -Hartree energ DENC   =    -25766.99138095
  -exchange      EXHF   =         0.00000000
  -V(xc)+E(xc)   XCENC  =      3606.15545803
  PAW double counting   =     55594.23204139   -59034.67079123
  entropy T*S    EENTRO =        -0.00000001
  eigenvalues    EBANDS =    -10280.34181102
  atomic energy  EATOM  =     73862.19814772
  Solvation  Ediel_sol  =         0.00000000
  ---------------------------------------------------
  free energy    TOTEN  =     -1214.25146855 eV

  energy without entropy =    -1214.25146854  energy(sigma->0) =    -1214.25146855


--------------------------------------------------------------------------------------------------------




--------------------------------------- Iteration      1(  13)  ---------------------------------------


    POTLOK:  cpu time    0.1985: real time    0.1994
    SETDIJ:  cpu time    3.3024: real time    3.3032
    EDDIAG:  cpu time    3.7860: real time    3.7886
  RMM-DIIS:  cpu time   13.0046: real time   13.0118
    ORTHCH:  cpu time    1.1614: real time    1.1636
       DOS:  cpu time    0.0015: real time    0.0015
    CHARGE:  cpu time    1.3460: real time    1.3467
    MIXING:  cpu time    0.0009: real time    0.0010
    --------------------------------------------
      LOOP:  cpu time   22.8014: real time   22.8159

 eigenvalue-minimisations  : 17315
 total energy-change (2. order) : 0.2256874E+03  (-0.1375235E+03)
 number of electron     671.9999648 magnetization      47.9999956
 augmentation part      268.7911096 magnetization      26.6496338

 Broyden mixing:
  rms(total) = 0.13878E+02    rms(broyden)= 0.13875E+02
  rms(prec ) = 0.15573E+02
  weight for this iteration     100.00

 eigenvalues of (default mixing * dielectric matrix)
  average eigenvalue GAMMA=   0.3197
  0.3197

 Free energy of the ion-electron system (eV)
  ---------------------------------------------------
  alpha Z        PSCENC =      2652.81237852
  Ewald energy   TEWEN  =    -41847.64551100
  -Hartree energ DENC   =    -25099.70094611
  -exchange      EXHF   =         0.00000000
  -V(xc)+E(xc)   XCENC  =      3696.72222351
  PAW double counting   =     59944.94636746   -63370.31267163
  entropy T*S    EENTRO =        -0.09847176
  eigenvalues    EBANDS =    -10827.48562273
  atomic energy  EATOM  =     73862.19814772
  Solvation  Ediel_sol  =         0.00000000
  ---------------------------------------------------
  free energy    TOTEN  =      -988.56410601 eV

  energy without entropy =     -988.46563425  energy(sigma->0) =     -988.51487013


--------------------------------------------------------------------------------------------------------




--------------------------------------- Iteration      1(  14)  ---------------------------------------


    POTLOK:  cpu time    0.2030: real time    0.2041
    SETDIJ:  cpu time    3.2976: real time    3.2996
    EDDIAG:  cpu time    3.7624: real time    3.7757
  RMM-DIIS:  cpu time   13.6202: real time   13.6276
    ORTHCH:  cpu time    1.1602: real time    1.1625
       DOS:  cpu time    0.0010: real time    0.0010
    CHARGE:  cpu time    1.3718: real time    1.3725
    MIXING:  cpu time    0.0008: real time    0.0008
    --------------------------------------------
      LOOP:  cpu time   23.4169: real time   23.4437

 eigenvalue-minimisations  : 17784
 total energy-change (2. order) : 0.7327319E+02  (-0.1835557E+02)
 number of electron     671.9999659 magnetization      47.9999929
 augmentation part      246.6898966 magnetization      32.2193715

 Broyden mixing:
  rms(total) = 0.52832E+01    rms(broyden)= 0.52790E+01
  rms(prec ) = 0.56945E+01
  weight for this iteration     100.00

 eigenvalues of (default mixing * dielectric matrix)
  average eigenvalue GAMMA=   0.7332
  1.1057  0.3606

 Free energy of the ion-electron system (eV)
  ---------------------------------------------------
  alpha Z        PSCENC =      2652.81237852
  Ewald energy   TEWEN  =    -41847.64551100
  -Hartree energ DENC   =    -25708.46489633
  -exchange      EXHF   =         0.00000000
  -V(xc)+E(xc)   XCENC  =      3674.58004582
  PAW double counting   =     63383.43918121   -66865.93715286
  entropy T*S    EENTRO =        -0.00000000
  eigenvalues    EBANDS =    -10066.27310754
  atomic energy  EATOM  =     73862.19814772
  Solvation  Ediel_sol  =         0.00000000
  ---------------------------------------------------
  free energy    TOTEN  =      -915.29091446 eV

  energy without entropy =     -915.29091446  energy(sigma->0) =     -915.29091446


--------------------------------------------------------------------------------------------------------




--------------------------------------- Iteration      1(  15)  ---------------------------------------


    POTLOK:  cpu time    0.1995: real time    0.2004
    SETDIJ:  cpu time    3.2995: real time    3.3003
    EDDIAG:  cpu time    3.7540: real time    3.7563
  RMM-DIIS:  cpu time   13.6805: real time   13.7253
    ORTHCH:  cpu time    1.1624: real time    1.1648
       DOS:  cpu time    0.0013: real time    0.0013
    CHARGE:  cpu time    1.3434: real time    1.3456
    MIXING:  cpu time    0.0007: real time    0.0007
    --------------------------------------------
      LOOP:  cpu time   23.4412: real time   23.4947

 eigenvalue-minimisations  : 18422
 total energy-change (2. order) : 0.1336349E+02  (-0.2028498E+01)
 number of electron     671.9999661 magnetization      47.9999911
 augmentation part      249.6588797 magnetization      33.8026735

 Broyden mixing:
  rms(total) = 0.21673E+01    rms(broyden)= 0.21670E+01
  rms(prec ) = 0.22513E+01
  weight for this iteration     100.00

 eigenvalues of (default mixing * dielectric matrix)
  average eigenvalue GAMMA=   0.9485
  1.7101  0.3875  0.7480

 Free energy of the ion-electron system (eV)
  ---------------------------------------------------
  alpha Z        PSCENC =      2652.81237852
  Ewald energy   TEWEN  =    -41847.64551100
  -Hartree energ DENC   =    -25631.07944117
  -exchange      EXHF   =         0.00000000
  -V(xc)+E(xc)   XCENC  =      3706.98758009
  PAW double counting   =     67519.05281257   -71042.25225123
  entropy T*S    EENTRO =        -0.00000000
  eigenvalues    EBANDS =    -10122.00114068
  atomic energy  EATOM  =     73862.19814772
  Solvation  Ediel_sol  =         0.00000000
  ---------------------------------------------------
  free energy    TOTEN  =      -901.92742518 eV

  energy without entropy =     -901.92742518  energy(sigma->0) =     -901.92742518


--------------------------------------------------------------------------------------------------------




--------------------------------------- Iteration      1(  16)  ---------------------------------------


    POTLOK:  cpu time    0.2062: real time    0.2063
    SETDIJ:  cpu time    3.3331: real time    3.3339
    EDDIAG:  cpu time    3.7639: real time    3.7663
  RMM-DIIS:  cpu time   13.1269: real time   13.1899
    ORTHCH:  cpu time    1.1582: real time    1.1604
       DOS:  cpu time    0.0012: real time    0.0012
    CHARGE:  cpu time    1.3461: real time    1.3467
    MIXING:  cpu time    0.0008: real time    0.0008
    --------------------------------------------
      LOOP:  cpu time   22.9363: real time   23.0057

 eigenvalue-minimisations  : 17416
 total energy-change (2. order) :-0.1478179E+01  (-0.7137509E+00)
 number of electron     671.9999660 magnetization      47.9999905
 augmentation part      251.1652895 magnetization      33.8906271

 Broyden mixing:
  rms(total) = 0.14268E+01    rms(broyden)= 0.14262E+01
  rms(prec ) = 0.15141E+01
  weight for this iteration     100.00

 eigenvalues of (default mixing * dielectric matrix)
  average eigenvalue GAMMA=   0.9733
  2.0786  0.8983  0.3947  0.5214

 Free energy of the ion-electron system (eV)
  ---------------------------------------------------
  alpha Z        PSCENC =      2652.81237852
  Ewald energy   TEWEN  =    -41847.64551100
  -Hartree energ DENC   =    -25580.21404433
  -exchange      EXHF   =         0.00000000
  -V(xc)+E(xc)   XCENC  =      3708.21380945
  PAW double counting   =     70480.18232410   -74033.13649558
  entropy T*S    EENTRO =        -0.00000000
  eigenvalues    EBANDS =    -10145.81621289
  atomic energy  EATOM  =     73862.19814772
  Solvation  Ediel_sol  =         0.00000000
  ---------------------------------------------------
  free energy    TOTEN  =      -903.40560401 eV

  energy without entropy =     -903.40560401  energy(sigma->0) =     -903.40560401


--------------------------------------------------------------------------------------------------------




--------------------------------------- Iteration      1(  17)  ---------------------------------------


    POTLOK:  cpu time    0.2136: real time    0.2143
    SETDIJ:  cpu time    3.3401: real time    3.3408
    EDDIAG:  cpu time    3.7606: real time    3.7649
  RMM-DIIS:  cpu time   13.7650: real time   13.7778
    ORTHCH:  cpu time    1.1578: real time    1.1601
       DOS:  cpu time    0.0012: real time    0.0012
    CHARGE:  cpu time    1.3450: real time    1.3457
    MIXING:  cpu time    0.0015: real time    0.0015
    --------------------------------------------
      LOOP:  cpu time   23.5848: real time   23.6063

 eigenvalue-minimisations  : 18560
 total energy-change (2. order) : 0.1524111E+00  (-0.7031539E-01)
 number of electron     671.9999661 magnetization      47.9999901
 augmentation part      251.0963371 magnetization      33.8837170

 Broyden mixing:
  rms(total) = 0.76519E+00    rms(broyden)= 0.76506E+00
  rms(prec ) = 0.86169E+00
  weight for this iteration     100.00

 eigenvalues of (default mixing * dielectric matrix)
  average eigenvalue GAMMA=   0.9992
  2.2345  1.1250  0.3840  0.6935  0.5588

 Free energy of the ion-electron system (eV)
  ---------------------------------------------------
  alpha Z        PSCENC =      2652.81237852
  Ewald energy   TEWEN  =    -41847.64551100
  -Hartree energ DENC   =    -25571.37838929
  -exchange      EXHF   =         0.00000000
  -V(xc)+E(xc)   XCENC  =      3705.32767560
  PAW double counting   =     71326.66397908   -74887.84671039
  entropy T*S    EENTRO =        -0.00000000
  eigenvalues    EBANDS =    -10143.38476317
  atomic energy  EATOM  =     73862.19814772
  Solvation  Ediel_sol  =         0.00000000
  ---------------------------------------------------
  free energy    TOTEN  =      -903.25319293 eV

  energy without entropy =     -903.25319293  energy(sigma->0) =     -903.25319293


--------------------------------------------------------------------------------------------------------




--------------------------------------- Iteration      1(  18)  ---------------------------------------


    POTLOK:  cpu time    0.2012: real time    0.2013
    SETDIJ:  cpu time    3.3014: real time    3.3197
    EDDIAG:  cpu time    3.7544: real time    3.7569
  RMM-DIIS:  cpu time   13.1963: real time   13.2030
    ORTHCH:  cpu time    1.1682: real time    1.1706
       DOS:  cpu time    0.0011: real time    0.0011
    CHARGE:  cpu time    1.3479: real time    1.3483
    MIXING:  cpu time    0.0008: real time    0.0008
    --------------------------------------------
      LOOP:  cpu time   22.9711: real time   23.0015

 eigenvalue-minimisations  : 17513
 total energy-change (2. order) : 0.3950186E+00  (-0.7404494E-01)
 number of electron     671.9999661 magnetization      47.9999900
 augmentation part      250.6047103 magnetization      33.8486398

 Broyden mixing:
  rms(total) = 0.27731E+00    rms(broyden)= 0.27703E+00
  rms(prec ) = 0.29064E+00
  weight for this iteration     100.00

 eigenvalues of (default mixing * dielectric matrix)
  average eigenvalue GAMMA=   1.0217
  2.4720  1.3685  0.8467  0.5881  0.3857  0.4693

 Free energy of the ion-electron system (eV)
  ---------------------------------------------------
[...]
   4      -0.559    -0.820     1.379     0.023     0.049     0.549
   5      -0.855    -0.637     1.492     0.062    -0.361     0.183
   6      -0.533    -0.836     1.369    -0.016    -0.040    -0.462
   7      -1.038    -0.749     1.787     0.065    -0.158     0.040
   8      -0.859    -0.727     1.586     0.125     0.439    -0.211
   9      -0.608    -0.811     1.419     0.004    -0.048    -0.570
  10      -0.862    -0.663     1.526     0.102    -0.268     0.234
  11      -0.802    -0.665     1.466    -0.080     0.342     0.293
  12      -0.611    -0.791     1.402    -0.042    -0.036     0.493
  13      -1.039    -0.782     1.821     0.052    -0.131    -0.002
  14      -0.741    -0.595     1.336    -0.079    -0.328    -0.230
  15      -0.745    -0.585     1.331    -0.109     0.393     0.386
  16      -0.986    -0.768     1.754    -0.005     0.066    -0.059
  17       1.438     1.459    -2.897     0.166     0.121    -0.138
  18       1.364     1.563    -2.927     0.101    -0.058    -0.015
  19       1.397     1.493    -2.889     0.137    -0.091    -0.179
  20       1.283     1.595    -2.878     0.135    -0.006     0.037
  21       1.520     1.337    -2.857     0.064    -0.046     0.135
  22       1.594     1.336    -2.930     0.015     0.067    -0.009
  23       1.559     1.358    -2.917    -0.151    -0.033     0.192
  24       1.466     1.572    -3.038     0.048    -0.038    -0.087
  25       0.018    -0.376     0.359     0.844    -0.455    -0.311
  26      -0.517     0.944    -0.427    -1.565    -0.341     0.439
  27      -0.905     0.569     0.336    -0.948     0.702    -1.138
  28       0.254     0.145    -0.399    -0.604    -0.545     0.369
  29      -0.532    -0.382     0.914    -0.292     0.010     0.166
  30      -1.677     0.657     1.020     0.275    -0.945    -0.555
  31      -0.913    -0.384     1.297    -0.488    -1.618    -0.738
  32      -0.269     0.177     0.092    -0.073     0.512    -0.378
  33       0.183     0.441    -0.624     0.243     0.123    -0.708
  34      -0.210     0.669    -0.459     0.348    -0.658    -0.144
  35      -0.076    -0.858     0.933    -0.294    -0.297     0.333
  36      -1.380    -0.377     1.757     0.798     0.923     0.853
  37      -0.639    -0.005     0.644     0.724     0.863    -0.160
  38       1.059    -0.768    -0.291     0.652     0.636     0.479
  39      -0.554    -0.799     1.353     0.348     0.268     0.920
  40      -0.494    -0.831     1.326     0.210    -1.005    -0.225
  41      -2.714     0.997     1.718    -4.452     2.595    -4.847
  42      -1.804     1.115     0.690     5.603     1.284     3.633
  43       5.805    -5.357    -0.449     0.831    -3.947     0.089
  44      -3.222     0.841     2.381     5.596    -1.400    -4.607
  45      -3.353     2.153     1.200    -5.423    -3.395     3.991
  46       5.571    -4.289    -1.282    -0.689     2.764    -0.071
  47      -2.794     3.697    -0.903    -7.006     1.162    -3.307
  48       5.894    -6.890     0.997    -0.876    -4.642    -1.576
  49      -3.858     2.581     1.278     2.783     3.490     3.988
  50       4.507    -7.133     2.626    -0.671     4.699    -0.919
  51      -4.235     4.681    -0.446    -3.979    -1.457     3.316
  52      -4.556     4.124     0.432     3.926    -1.397    -4.226
  53      -2.911     1.207     1.704    -5.683     2.465    -4.096
  54      -2.804     2.976    -0.172     6.156     1.999     3.456
  55       4.069    -5.449     1.380     0.949    -4.968     1.882
  56      -3.658     1.905     1.753     5.111    -4.925    -5.163
  57      -3.732     4.258    -0.526    -4.935    -1.922     4.042
  58       4.651    -5.268     0.617    -0.839     5.287    -0.932
  59      -3.553     3.818    -0.264    -5.616     3.254    -4.266
  60       5.697    -6.114     0.417    -1.496    -3.540    -1.291
  61      -3.205     4.496    -1.291     5.423     1.863     3.070
  62       5.562    -6.281     0.719    -0.707     4.077     0.342
  63      -2.866     3.028    -0.162    -4.778    -2.616     2.509
  64      -1.789     1.027     0.763     4.156    -0.489    -5.380
  65      -3.261     3.553    -0.291    -3.721     1.632    -3.838
  66      -4.545     4.089     0.456     5.510     2.951     3.073
  67       6.205    -6.930     0.726     0.288    -3.833     0.364
  68      -4.069     3.574     0.494     4.212    -3.171    -3.527
  69      -2.262     2.996    -0.734    -4.923    -1.380     3.837
  70       2.656    -6.551     3.895    -0.019     5.016     0.953
  71      -2.630     1.801     0.828    -5.556     0.835    -4.325
  72       5.045    -5.463     0.418     1.015    -4.619     0.742
  73      -3.129     1.840     1.289     3.588     3.304     4.138
  74       3.785    -4.230     0.445     2.534     4.767     0.457
  75      -5.113     1.898     3.215    -4.409    -2.547     5.932
  76      -1.755     2.137    -0.383     4.790    -2.780    -3.878
  77      -3.528     3.858    -0.330    -4.991     2.828    -2.905
  78      -2.500     2.519    -0.019     5.877     4.046     3.849
  79       4.931    -5.687     0.757     1.708    -4.656    -0.531
  80      -3.315     3.715    -0.401     3.372    -2.180    -2.936
  81      -5.199     3.180     2.019    -3.032    -0.973     5.192
  82       5.055    -7.044     1.989     1.659     4.203     2.104
  83      -1.872     0.980     0.892    -5.202     1.870    -3.491
  84       5.509    -5.314    -0.194     1.119    -4.299    -1.453
  85      -2.119     0.376     1.743     6.206     3.178     4.547
  86       5.884    -6.171     0.287     0.513     4.096     1.491
  87      -1.748     0.706     1.043    -5.188    -0.940     5.438
  88      -3.153     1.313     1.840     5.606    -2.120    -4.589
 ---------------------------------------------------------------------


 Total hyperfine coupling parameters after diagonalization (MHz)
 (convention: |A_zz| > |A_xx| > |A_yy|)
 ----------------------------------------------------------------------
  ion      A_xx      A_yy      A_zz     asymmetry (A_yy - A_xx)/ A_zz 
 ----------------------------------------------------------------------
   1       0.596     0.377     3.261      -0.067
   2       0.820     0.470     2.975      -0.118
   3       2.316     1.838     4.475      -0.107
   4       1.962     1.572     4.031      -0.097
   5       1.631     1.318     3.814      -0.082
   6       2.680     2.282     4.675      -0.085
   7       0.579     0.253     3.111      -0.105
   8       2.173     1.800     4.503      -0.083
   9       2.071     1.731     4.237      -0.080
  10       2.409     2.083     4.612      -0.071
  11       1.804     1.519     3.989      -0.072
  12       2.001     1.707     4.117      -0.071
  13      -0.146     0.137     2.736       0.103
  14       1.165     0.880     3.137      -0.091
  15       1.783     1.395     3.788      -0.102
  16       0.697     0.479     3.224      -0.068
  17      14.475    10.280    14.800      -0.283
  18      15.077    10.827    15.359      -0.277
  19      14.673    10.474    14.972      -0.280
  20      13.269     9.158    13.682      -0.300
  21      13.750     9.567    13.969      -0.299
  22      13.715     9.449    13.976      -0.305
  23      14.486    10.277    14.847      -0.283
  24      15.406    10.918    15.550      -0.289
  25      94.558    93.561    95.706      -0.010
  26      95.130    94.161    97.740      -0.010
  27      95.018    94.308    97.756      -0.007
  28      93.984    93.658    95.459      -0.003
  29      99.301    98.705   100.407      -0.006
  30      95.611    93.338    97.000      -0.023
  31     101.106    99.086   103.434      -0.020
  32      96.409    95.776    97.140      -0.007
  33      97.485    96.286    98.141      -0.012
  34      93.368    92.248    94.163      -0.012
  35      98.079    97.209    99.289      -0.009
  36      94.154    92.807    97.083      -0.014
  37      96.232    94.474    97.026      -0.018
  38      97.457    96.837    99.510      -0.006
  39      95.372    94.673    97.652      -0.007
  40      97.156    96.942    99.754      -0.002
  41       2.580    -0.477    13.706      -0.223
  42       8.223     2.920    16.757      -0.316
  43       5.072     1.908    15.118      -0.209
  44       7.448     0.961    16.738      -0.388
  45       5.115     0.484    16.234      -0.285
  46       2.887     0.789    11.721      -0.179
  47       7.983     2.535    19.233      -0.283
  48       6.581     0.346    16.505      -0.378
  49       5.268     1.504    14.859      -0.253
  50       6.246     0.234    15.895      -0.378
  51       7.747     4.014    17.563      -0.213
  52       7.741     3.771    18.035      -0.220
  53       5.844     0.546    15.989      -0.331
  54       4.223    -0.533    14.871      -0.320
  55       4.793    -0.343    14.049      -0.366
  56       6.964     3.089    20.837      -0.186
  57       5.967     2.563    17.416      -0.195
  58       2.794     0.372    14.186      -0.171
  59       3.478    -0.325    16.104      -0.236
  60       6.583     0.560    14.845      -0.406
  61       3.885     0.438    15.054      -0.229
  62       3.271    -1.599    12.681      -0.384
  63       5.284     1.044    14.142      -0.300
  64       6.865     1.823    15.638      -0.322
  65       2.983     0.622    12.964      -0.182
  66       8.483     2.298    18.552      -0.333
  67       8.231     2.474    17.618      -0.327
  68       4.952     0.390    14.896      -0.306
  69       4.114     1.132    14.364      -0.208
  70       3.550    -1.425    13.607      -0.366
  71       6.918     1.123    15.933      -0.364
  72       5.261     1.428    15.216      -0.252
  73       3.427     0.718    13.884      -0.195
  74       4.228     1.459    14.287      -0.194
  75       3.490    -0.930    16.407      -0.269
  76       2.945     1.028    14.073      -0.136
  77       4.142    -0.401    14.106      -0.322
  78       4.502     0.565    16.831      -0.234
  79       5.161     1.395    15.519      -0.243
  80       8.057     5.013    16.767      -0.182
  81       4.561     0.489    15.201      -0.268
  82       8.015     1.322    17.303      -0.387
  83       4.364    -0.130    13.117      -0.343
  84       7.208     3.839    17.563      -0.192
  85       7.251     2.233    18.901      -0.265
  86       5.387     0.500    15.152      -0.322
  87       7.437     1.724    17.015      -0.336
  88       6.175     0.811    16.606      -0.323
 ---------------------------------------------------------------------



--------------------------------------------------------------------------------------------------------


 stress matrix after NEB project (eV)
    -42.15620      0.45074      1.54459
      0.44501    -47.73600     -2.34850
      1.50889     -2.36941    -56.60966
  FORCES: max atom, RMS     2.795215    1.098940
  FORCE total and by dimension   10.308973    2.623485
  Stress total and by dimension   85.303681   56.609659
     LOOP+:  cpu time  606.2428: real time  607.3540
    4ORBIT:  cpu time    0.0000: real time    0.0000
 


 total charge     
 
# of ion       s       p       d       tot
------------------------------------------
    1        0.051   5.995   0.000   6.046
    2        0.050   5.992   0.000   6.042
    3        0.054   5.998   0.000   6.052
    4        0.054   5.997   0.000   6.051
    5        0.053   5.996   0.000   6.050
    6        0.050   5.992   0.000   6.042
    7        0.047   5.991   0.000   6.038
    8        0.051   5.994   0.000   6.045
    9        0.050   5.991   0.000   6.041
   10        0.053   5.995   0.000   6.048
   11        0.051   5.993   0.000   6.043
   12        0.050   5.992   0.000   6.042
   13        0.050   5.995   0.000   6.046
   14        0.050   5.992   0.000   6.042
   15        0.052   5.995   0.000   6.046
   16        0.049   5.993   0.000   6.043
   17        0.146   6.123   0.080   6.350
   18        0.145   6.121   0.078   6.344
   19        0.145   6.121   0.079   6.344
   20        0.148   6.126   0.082   6.356
   21        0.145   6.121   0.079   6.345
   22        0.154   6.136   0.090   6.380
   23        0.146   6.123   0.080   6.349
   24        0.154   6.137   0.091   6.383
   25        0.390   6.484   4.864  11.737
   26        0.369   6.440   4.816  11.625
   27        0.375   6.454   4.822  11.650
   28        0.372   6.453   4.820  11.646
   29        0.379   6.463   4.842  11.684
   30        0.395   6.497   4.865  11.757
   31        0.364   6.431   4.814  11.609
   32        0.378   6.458   4.841  11.677
   33        0.365   6.430   4.813  11.609
   34        0.380   6.465   4.837  11.683
   35        0.384   6.471   4.854  11.709
   36        0.383   6.469   4.844  11.695
   37        0.376   6.452   4.833  11.661
   38        0.372   6.450   4.821  11.643
   39        0.376   6.452   4.836  11.664
   40        0.385   6.475   4.848  11.707
   41        1.599   3.508   0.000   5.107
   42        1.599   3.530   0.000   5.129
   43        1.597   3.486   0.000   5.084
   44        1.601   3.512   0.000   5.113
   45        1.601   3.515   0.000   5.116
   46        1.596   3.497   0.000   5.093
   47        1.603   3.502   0.000   5.105
   48        1.599   3.478   0.000   5.078
   49        1.601   3.513   0.000   5.113
   50        1.598   3.507   0.000   5.105
   51        1.596   3.518   0.000   5.114
   52        1.601   3.512   0.000   5.113
   53        1.598   3.515   0.000   5.114
   54        1.598   3.512   0.000   5.110
   55        1.598   3.521   0.000   5.119
   56        1.605   3.499   0.000   5.104
   57        1.598   3.502   0.000   5.101
   58        1.596   3.469   0.000   5.065
   59        1.603   3.507   0.000   5.110
   60        1.599   3.507   0.000   5.106
   61        1.599   3.507   0.000   5.106
   62        1.598   3.479   0.000   5.076
   63        1.596   3.494   0.000   5.090
   64        1.599   3.517   0.000   5.116
   65        1.596   3.492   0.000   5.088
   66        1.602   3.520   0.000   5.123
   67        1.600   3.531   0.000   5.130
   68        1.598   3.488   0.000   5.085
   69        1.598   3.506   0.000   5.104
   70        1.598   3.520   0.000   5.119
   71        1.597   3.497   0.000   5.094
   72        1.599   3.514   0.000   5.113
   73        1.597   3.493   0.000   5.091
   74        1.598   3.509   0.000   5.107
   75        1.601   3.494   0.000   5.095
   76        1.599   3.506   0.000   5.105
   77        1.597   3.478   0.000   5.076
   78        1.605   3.518   0.000   5.123
   79        1.600   3.519   0.000   5.119
   80        1.600   3.538   0.000   5.137
   81        1.599   3.501   0.000   5.100
   82        1.601   3.524   0.000   5.125
   83        1.594   3.480   0.000   5.075
   84        1.599   3.512   0.000   5.111
   85        1.600   3.487   0.000   5.087
   86        1.599   3.522   0.000   5.121
   87        1.601   3.508   0.000   5.109
   88        1.600   3.536   0.000   5.136
--------------------------------------------------
tot         84.799 416.557  78.029 579.385
 


 magnetization (x)
 
# of ion       s       p       d       tot
------------------------------------------
    1        0.001   0.001   0.000   0.002
    2        0.001  -0.000   0.000   0.001
    3        0.002   0.000   0.000   0.003
    4        0.002   0.000   0.000   0.002
    5        0.001   0.000   0.000   0.002
    6        0.002   0.001   0.000   0.003
    7        0.001   0.001   0.000   0.002
    8        0.002   0.000   0.000   0.002
    9        0.002   0.000   0.000   0.002
   10        0.002   0.001   0.000   0.003
   11        0.002   0.000   0.000   0.002
   12        0.002   0.000   0.000   0.002
   13        0.001   0.000   0.000   0.001
   14        0.001   0.000   0.000   0.001
   15        0.002   0.000   0.000   0.002
   16        0.001   0.001   0.000   0.002
   17        0.007   0.002   0.001   0.011
   18        0.008   0.003   0.001   0.012
   19        0.008   0.003   0.001   0.012
   20        0.007   0.002   0.001   0.010
   21        0.007   0.002   0.001   0.010
   22        0.007   0.003   0.001   0.011
   23        0.007   0.002   0.001   0.011
   24        0.008   0.003   0.001   0.011
   25        0.015   0.032   2.719   2.766
   26        0.015   0.029   2.766   2.810
   27        0.015   0.030   2.755   2.801
   28        0.015   0.030   2.751   2.796
   29        0.016   0.031   2.755   2.803
   30        0.015   0.033   2.716   2.763
   31        0.016   0.030   2.789   2.835
   32        0.015   0.029   2.742   2.787
   33        0.015   0.029   2.777   2.822
   34        0.014   0.030   2.748   2.792
   35        0.016   0.031   2.730   2.776
   36        0.014   0.030   2.735   2.779
   37        0.015   0.029   2.756   2.800
   38        0.016   0.030   2.766   2.812
   39        0.015   0.030   2.752   2.797
   40        0.016   0.031   2.741   2.788
   41        0.002   0.022   0.000   0.023
   42        0.002   0.046   0.000   0.049
   43        0.002   0.026   0.000   0.028
   44        0.002   0.049   0.000   0.051
   45        0.002   0.036   0.000   0.038
   46        0.002   0.012   0.000   0.014
   47        0.003   0.046   0.000   0.049
   48        0.002   0.031   0.000   0.033
   49        0.002   0.032   0.000   0.034
   50        0.002   0.037   0.000   0.039
   51        0.002   0.055   0.000   0.057
   52        0.002   0.053   0.000   0.055
   53        0.002   0.041   0.000   0.043
   54        0.002   0.032   0.000   0.033
   55        0.002   0.030   0.000   0.031
   56        0.003   0.052   0.000   0.054
   57        0.002   0.040   0.000   0.042
   58        0.002   0.021   0.000   0.022
   59        0.002   0.025   0.000   0.027
   60        0.002   0.031   0.000   0.033
   61        0.002   0.031   0.000   0.032
   62        0.002   0.002   0.000   0.004
   63        0.002   0.029   0.000   0.031
   64        0.002   0.039   0.000   0.041
   65        0.002   0.014   0.000   0.016
   66        0.002   0.056   0.000   0.059
   67        0.002   0.058   0.000   0.060
   68        0.002   0.029   0.000   0.031
   69        0.002   0.027   0.000   0.029
   70        0.001   0.026   0.000   0.028
   71        0.002   0.039   0.000   0.041
   72        0.002   0.031   0.000   0.033
   73        0.002   0.021   0.000   0.022
   74        0.002   0.023   0.000   0.025
   75        0.002   0.029   0.000   0.031
   76        0.002   0.019   0.000   0.021
   77        0.002   0.020   0.000   0.022
   78        0.002   0.030   0.000   0.032
   79        0.002   0.033   0.000   0.035
   80        0.002   0.049   0.000   0.051
   81        0.002   0.019   0.000   0.021
   82        0.002   0.051   0.000   0.054
   83        0.002   0.015   0.000   0.017
   84        0.002   0.050   0.000   0.053
   85        0.003   0.046   0.000   0.048
   86        0.002   0.033   0.000   0.035
   87        0.002   0.046   0.000   0.048
   88        0.002   0.043   0.000   0.045
--------------------------------------------------
tot          0.425   2.129  44.008  46.562
 

 total amount of memory used by VASP MPI-rank0    88193. kBytes
=======================================================================

   base      :      30000. kBytes
   nonlr-proj:      13684. kBytes
   fftplans  :        992. kBytes
   grid      :      21513. kBytes
   one-center:       2737. kBytes
   wavefun   :      19267. kBytes
 
  
  
 General timing and accounting informations for this job:
 ========================================================
  
                  Total CPU time used (sec):      625.235
                            User time (sec):      619.591
                          System time (sec):        5.644
                         Elapsed time (sec):      628.716
  
                   Maximum memory used (kb):      182092.
                   Average memory used (kb):           0.
  
                          Minor page faults:       314770
                          Major page faults:            0
                 Voluntary context switches:         3594
