 vasp.5.4.4.18Apr17-6-g9f103f2a35 (build Dec 02 2020 12:53:39) complex          
  
 executed on             LinuxIFC date 2021.08.03  13:06:53
 running on  112 total cores
 distrk:  each k-point on  112 cores,    1 groups
 distr:  one band on NCORES_PER_BAND=   1 cores,  112 groups


--------------------------------------------------------------------------------------------------------


 INCAR:
 POTCAR:    PAW_PBE Na_pv 19Sep2006               
 POTCAR:    PAW_PBE Mg_pv 13Apr2007               
 POTCAR:    PAW_PBE Mn_pv 02Aug2007               
 POTCAR:    PAW_PBE O 08Apr2002                   

 ----------------------------------------------------------------------------- 
|                                                                             |
|           W    W    AA    RRRRR   N    N  II  N    N   GGGG   !!!           |
|           W    W   A  A   R    R  NN   N  II  NN   N  G    G  !!!           |
|           W    W  A    A  R    R  N N  N  II  N N  N  G       !!!           |
|           W WW W  AAAAAA  RRRRR   N  N N  II  N  N N  G  GGG   !            |
|           WW  WW  A    A  R   R   N   NN  II  N   NN  G    G                |
|           W    W  A    A  R    R  N    N  II  N    N   GGGG   !!!           |
|                                                                             |
|      For optimal performance we recommend to set                            |
|        NCORE= 4 - approx SQRT( number of cores)                             |
|      NCORE specifies how many cores store one orbital (NPAR=cpu/NCORE).     |
|      This setting can  greatly improve the performance of VASP for DFT.     |
|      The default,   NCORE=1            might be grossly inefficient         |
|      on modern multi-core architectures or massively parallel machines.     |
|      Do your own testing !!!!                                               |
|      Unfortunately you need to use the default for GW and RPA calculations. |
|      (for HF NCORE is supported but not extensively tested yet)             |
|                                                                             |
 ----------------------------------------------------------------------------- 

 POTCAR:    PAW_PBE Na_pv 19Sep2006               
   VRHFIN =Na: p6s1                                                             
   LEXCH  = PE                                                                  
   EATOM  =   766.0439 eV,   56.3026 Ry                                         
                                                                                
   TITEL  = PAW_PBE Na_pv 19Sep2006                                             
   LULTRA =        F    use ultrasoft PP ?                                      
   IUNSCR =        1    unscreen: 0-lin 1-nonlin 2-no                           
   RPACOR =    1.800    partial core radius                                     
   POMASS =   22.990; ZVAL   =    7.000    mass and valenz                      
   RCORE  =    2.200    outmost cutoff radius                                   
   RWIGS  =    2.200; RWIGS  =    1.164    wigner-seitz radius (au A)           
   ENMAX  =  259.561; ENMIN  =  194.671 eV                                      
   ICORE  =        2    local potential                                         
   LCOR   =        T    correct aug charges                                     
   LPAW   =        T    paw PP                                                  
   EAUG   =  368.056                                                            
   DEXC   =    0.000                                                            
   RMAX   =    2.245    core radius for proj-oper                               
   RAUG   =    1.300    factor for augmentation sphere                          
   RDEP   =    2.259    radius for radial grids                                 
   RDEPT  =    1.738    core radius for aug-charge                              
                                                                                
   Atomic configuration                                                         
    5 entries                                                                   
     n  l   j            E        occ.                                          
     1  0  0.50     -1033.6933   2.0000                                         
     2  0  0.50       -56.7526   2.0000                                         
     2  1  1.50       -28.6721   6.0000                                         
     3  0  0.50        -2.7440   1.0000                                         
     3  2  1.50        -1.3606   0.0000                                         
   Description                                                                  
     l       E           TYP  RCUT    TYP  RCUT                                 
     1    -28.6720912     23  2.000                                             
     1      6.8029130     23  2.000                                             
     0     -2.7439560     23  2.200                                             
     0     34.0145650     23  2.200                                             
     2     -1.3605826     23  2.200                                             
  local pseudopotential read in
  partial core-charges read in
  partial kinetic energy density read in
  atomic valenz-charges read in
  non local Contribution for L=           1  read in
    real space projection operators read in
  non local Contribution for L=           1  read in
    real space projection operators read in
  non local Contribution for L=           0  read in
    real space projection operators read in
  non local Contribution for L=           0  read in
    real space projection operators read in
    PAW grid and wavefunctions read in
 
   number of l-projection  operators is LMAX  =           4
   number of lm-projection operators is LMMAX =           8
 
 POTCAR:    PAW_PBE Mg_pv 13Apr2007               
   VRHFIN =Mg: p6s2                                                             
   LEXCH  = PE                                                                  
   EATOM  =  1056.7344 eV,   77.6678 Ry                                         
                                                                                
   TITEL  = PAW_PBE Mg_pv 13Apr2007                                             
   LULTRA =        F    use ultrasoft PP ?                                      
   IUNSCR =        1    unscreen: 0-lin 1-nonlin 2-no                           
   RPACOR =    1.500    partial core radius                                     
   POMASS =   24.305; ZVAL   =    8.000    mass and valenz                      
   RCORE  =    2.000    outmost cutoff radius                                   
   RWIGS  =    2.000; RWIGS  =    1.058    wigner-seitz radius (au A)           
   ENMAX  =  403.929; ENMIN  =  302.947 eV                                      
   RCLOC  =    1.506    cutoff for local pot                                    
   LCOR   =        T    correct aug charges                                     
   LPAW   =        T    paw PP                                                  
   EAUG   =  758.780                                                            
   DEXC   =    0.000                                                            
   RMAX   =    2.045    core radius for proj-oper                               
   RAUG   =    1.300    factor for augmentation sphere                          
   RDEP   =    2.025    radius for radial grids                                 
   RDEPT  =    1.557    core radius for aug-charge                              
                                                                                
   Atomic configuration                                                         
    5 entries                                                                   
     n  l   j            E        occ.                                          
     1  0  0.50     -1259.6230   2.0000                                         
     2  0  0.50       -79.8442   2.0000                                         
     2  1  1.50       -46.6121   6.0000                                         
     3  0  0.50        -4.7055   2.0000                                         
     3  2  1.50        -1.3606   0.0000                                         
   Description                                                                  
     l       E           TYP  RCUT    TYP  RCUT                                 
     1    -46.6121073     23  1.600                                             
     1      2.7211652     23  1.600                                             
     0     -4.7054661     23  2.000                                             
     0     61.2262170     23  2.000                                             
     2     -1.3605826     23  2.000                                             
  local pseudopotential read in
  partial core-charges read in
  partial kinetic energy density read in
  atomic valenz-charges read in
  non local Contribution for L=           1  read in
    real space projection operators read in
  non local Contribution for L=           1  read in
    real space projection operators read in
  non local Contribution for L=           0  read in
    real space projection operators read in
  non local Contribution for L=           0  read in
    real space projection operators read in
  non local Contribution for L=           2  read in
    real space projection operators read in
    PAW grid and wavefunctions read in
 
   number of l-projection  operators is LMAX  =           5
   number of lm-projection operators is LMMAX =          13
 
 POTCAR:    PAW_PBE Mn_pv 02Aug2007               
   VRHFIN =Mn: 3p4s3d                                                           
   LEXCH  = PE                                                                  
   EATOM  =  2025.2664 eV,  148.8529 Ry                                         
                                                                                
   TITEL  = PAW_PBE Mn_pv 02Aug2007                                             
   LULTRA =        F    use ultrasoft PP ?                                      
   IUNSCR =        1    unscreen: 0-lin 1-nonlin 2-no                           
   RPACOR =    2.080    partial core radius                                     
   POMASS =   54.938; ZVAL   =   13.000    mass and valenz                      
   RCORE  =    2.300    outmost cutoff radius                                   
   RWIGS  =    2.500; RWIGS  =    1.323    wigner-seitz radius (au A)           
   ENMAX  =  269.864; ENMIN  =  202.398 eV                                      
   ICORE  =        3    local potential                                         
   LCOR   =        T    correct aug charges                                     
   LPAW   =        T    paw PP                                                  
   EAUG   =  569.085                                                            
   DEXC   =    0.000                                                            
   RMAX   =    2.343    core radius for proj-oper                               
   RAUG   =    1.300    factor for augmentation sphere                          
   RDEP   =    2.338    radius for radial grids                                 
   RDEPT  =    1.798    core radius for aug-charge                              
                                                                                
   Atomic configuration                                                         
    8 entries                                                                   
     n  l   j            E        occ.                                          
     1  0  0.50     -6424.8287   2.0000                                         
     2  0  0.50      -739.1154   2.0000                                         
     2  1  1.50      -625.3949   6.0000                                         
     3  0  0.50       -81.6100   2.0000                                         
     3  1  1.50       -50.4667   6.0000                                         
     3  2  2.50        -3.3745   6.0000                                         
     4  0  0.50        -4.1331   1.0000                                         
     4  3  2.50        -1.3606   0.0000                                         
   Description                                                                  
     l       E           TYP  RCUT    TYP  RCUT                                 
     1    -50.4666628     23  2.000                                             
     1     -1.3605826     23  2.000                                             
     2     -3.3744729     23  2.300                                             
     2     -4.7350555     23  2.300                                             
     0     -4.1331431     23  2.300                                             
     0      7.6656591     23  2.300                                             
     3      9.5240782     23  2.300                                             
  local pseudopotential read in
  partial core-charges read in
  partial kinetic energy density read in
  atomic valenz-charges read in
  non local Contribution for L=           1  read in
    real space projection operators read in
  non local Contribution for L=           1  read in
    real space projection operators read in
  non local Contribution for L=           2  read in
    real space projection operators read in
  non local Contribution for L=           2  read in
    real space projection operators read in
  non local Contribution for L=           0  read in
    real space projection operators read in
  non local Contribution for L=           0  read in
    real space projection operators read in
    PAW grid and wavefunctions read in
 
   number of l-projection  operators is LMAX  =           6
   number of lm-projection operators is LMMAX =          18
 
 POTCAR:    PAW_PBE O 08Apr2002                   
   VRHFIN =O: s2p4                                                              
   LEXCH  = PE                                                                  
   EATOM  =   432.3788 eV,   31.7789 Ry                                         
                                                                                
   TITEL  = PAW_PBE O 08Apr2002                                                 
   LULTRA =        F    use ultrasoft PP ?                                      
   IUNSCR =        1    unscreen: 0-lin 1-nonlin 2-no                           
   RPACOR =    1.200    partial core radius                                     
   POMASS =   16.000; ZVAL   =    6.000    mass and valenz                      
   RCORE  =    1.520    outmost cutoff radius                                   
   RWIGS  =    1.550; RWIGS  =    0.820    wigner-seitz radius (au A)           
   ENMAX  =  400.000; ENMIN  =  300.000 eV                                      
   ICORE  =        2    local potential                                         
   LCOR   =        T    correct aug charges                                     
   LPAW   =        T    paw PP                                                  
   EAUG   =  605.392                                                            
   DEXC   =    0.000                                                            
   RMAX   =    1.553    core radius for proj-oper                               
   RAUG   =    1.300    factor for augmentation sphere                          
   RDEP   =    1.550    radius for radial grids                                 
   RDEPT  =    1.329    core radius for aug-charge                              
                                                                                
   Atomic configuration                                                         
    4 entries                                                                   
     n  l   j            E        occ.                                          
     1  0  0.50      -514.6923   2.0000                                         
     2  0  0.50       -23.9615   2.0000                                         
     2  1  0.50        -9.0305   4.0000                                         
     3  2  1.50        -9.5241   0.0000                                         
   Description                                                                  
     l       E           TYP  RCUT    TYP  RCUT                                 
     0    -23.9615318     23  1.200                                             
     0     -9.5240782     23  1.200                                             
     1     -9.0304911     23  1.520                                             
     1      8.1634956     23  1.520                                             
     2     -9.5240782      7  1.500                                             
  local pseudopotential read in
  partial core-charges read in
  partial kinetic energy density read in
  kinetic energy density of atom read in
  atomic valenz-charges read in
  non local Contribution for L=           0  read in
    real space projection operators read in
  non local Contribution for L=           0  read in
    real space projection operators read in
  non local Contribution for L=           1  read in
    real space projection operators read in
  non local Contribution for L=           1  read in
    real space projection operators read in
    PAW grid and wavefunctions read in
 
   number of l-projection  operators is LMAX  =           4
   number of lm-projection operators is LMMAX =           8
 
 Optimization of the real space projectors (new method)

 maximal supplied QI-value         = 17.01
 optimisation between [QCUT,QGAM] = [ 10.20, 20.41] = [ 29.16,116.64] Ry 
 Optimized for a Real-space Cutoff    1.30 Angstroem

   l    n(q)    QCUT    max X(q) W(low)/X(q) W(high)/X(q)  e(spline) 
   1      7    10.205     4.940    0.23E-03    0.84E-03    0.11E-06
   1      7    10.205     6.253    0.40E-03    0.13E-02    0.18E-06
   0      8    10.205    37.438    0.23E-03    0.37E-03    0.42E-07
   0      8    10.205     9.606    0.16E-03    0.26E-03    0.31E-07
 Optimization of the real space projectors (new method)

 maximal supplied QI-value         = 18.90
 optimisation between [QCUT,QGAM] = [ 10.20, 20.41] = [ 29.16,116.64] Ry 
 Optimized for a Real-space Cutoff    1.26 Angstroem

   l    n(q)    QCUT    max X(q) W(low)/X(q) W(high)/X(q)  e(spline) 
   1      7    10.205     2.974    0.63E-04    0.14E-03    0.13E-06
   1      7    10.205     4.279    0.11E-03    0.45E-03    0.24E-06
   0      8    10.205    16.381    0.44E-03    0.15E-03    0.55E-07
   0      8    10.205     5.611    0.31E-03    0.11E-03    0.40E-07
   2      7    10.205     4.652    0.50E-03    0.47E-03    0.57E-07
 Optimization of the real space projectors (new method)

 maximal supplied QI-value         = 16.25
 optimisation between [QCUT,QGAM] = [ 10.24, 20.48] = [ 29.35,117.42] Ry 
 Optimized for a Real-space Cutoff    1.34 Angstroem

   l    n(q)    QCUT    max X(q) W(low)/X(q) W(high)/X(q)  e(spline) 
   1      8    10.239     3.658    0.23E-03    0.30E-03    0.98E-07
   1      8    10.239     5.612    0.32E-03    0.65E-03    0.21E-06
   2      7    10.239    55.373    0.42E-03    0.45E-03    0.65E-07
   2      7    10.239    50.863    0.43E-03    0.48E-03    0.67E-07
   0      8    10.239    79.536    0.11E-03    0.21E-03    0.56E-07
   0      8    10.239    38.668    0.96E-04    0.19E-03    0.52E-07
 Optimization of the real space projectors (new method)

 maximal supplied QI-value         = 24.76
 optimisation between [QCUT,QGAM] = [ 10.15, 20.30] = [ 28.85,115.39] Ry 
 Optimized for a Real-space Cutoff    1.38 Angstroem

   l    n(q)    QCUT    max X(q) W(low)/X(q) W(high)/X(q)  e(spline) 
   0      8    10.150    20.381    0.22E-03    0.32E-03    0.29E-06
   0      8    10.150    15.268    0.23E-03    0.35E-03    0.30E-06
   1      8    10.150     5.964    0.46E-03    0.53E-03    0.21E-06
   1      8    10.150     5.382    0.38E-03    0.45E-03    0.19E-06
  PAW_PBE Na_pv 19Sep2006               :
 energy of atom  1       EATOM= -766.0439
 kinetic energy error for atom=    0.0103 (will be added to EATOM!!)
  PAW_PBE Mg_pv 13Apr2007               :
 energy of atom  2       EATOM=-1056.7344
 kinetic energy error for atom=    0.0820 (will be added to EATOM!!)
  PAW_PBE Mn_pv 02Aug2007               :
 energy of atom  3       EATOM=-2025.2664
 kinetic energy error for atom=    0.0284 (will be added to EATOM!!)
  PAW_PBE O 08Apr2002                   :
 energy of atom  4       EATOM= -432.3788
 kinetic energy error for atom=    0.1156 (will be added to EATOM!!)
 
 
 POSCAR: Na Mg Mn  O                             
  positions in cartesian coordinates
  No initial velocities read in

 METAGGA = SCAN     LMAXTAU =  6    LMIXTAU =  F

 exchange correlation table for  LEXCH =        8
   RHO(1)=    0.500       N(1)  =     2000
   RHO(2)=  100.500       N(2)  =     4000

 VTST: version 3.2, (02/03/18)

 CHAIN: initializing optimizer
 
 OPT: Using VASP Dynamics algorithm
 CHAIN: Read ICHAIN            0
 
 POSCAR: Na Mg Mn  O                             
  positions in cartesian coordinates
  No initial velocities read in
 


--------------------------------------------------------------------------------------------------------


 ion  position               nearest neighbor table
   1  0.068  0.766  0.264-  76 2.17  67 2.28  86 2.33  75 2.35
   2  0.749  0.787  0.743-  82 2.27  69 2.34
   3  0.515  0.366  0.747-  48 2.31  49 2.36
   4  0.880  0.566  0.755-  71 2.28
   5  0.559  0.571  0.265-  52 2.23  87 2.26  74 2.35  35 2.67
   6  0.870  0.425  0.246-  75 2.23  66 2.32
   7  0.376  0.583  0.739-  80 2.18
   8  0.996  0.341  0.742-  57 2.35  58 2.37
   9  0.327  0.172  0.254-  41 2.21  42 2.25  50 2.32  51 2.37  26 2.91
  10  0.356  0.724  0.242-  77 2.17  78 2.32  86 2.33  38 2.76
  11  0.067  0.257  0.257-  50 2.28  63 2.37
  12  0.086  0.100  0.756-  44 2.31  47 2.32  25 2.85
  13  0.575  0.063  0.749-  56 2.28  59 2.31  31 2.81  29 2.84
  14  0.233  0.803  0.759-  84 2.21  73 2.29  81 2.34  70 2.35
  15  0.851  0.884  0.233-  65 2.12
  16  0.563  0.061  0.250-  79 2.26  88 2.27  31 2.81  29 2.82
  17  0.718  0.402  0.990-  49 1.98  60 2.03  66 2.08  53 2.09  43 2.11  71 2.20  29 2.73  30 2.84
                            26 2.85
  18  0.392  0.240  0.503-  51 1.97  52 2.05  45 2.06  44 2.07  50 2.08  46 2.08  27 2.82  31 2.83

  19  0.232  0.423  0.009-  55 2.03  61 2.04  78 2.04  48 2.08  41 2.08  83 2.09
  20  0.887  0.236  0.484-  62 2.02  63 2.05  56 2.06  64 2.07  57 2.11  58 2.15  40 2.81
  21  0.231  0.915  0.013-  42 1.95  77 1.98  84 2.02  67 2.03  47 2.10  73 2.11  37 2.83
  22  0.900  0.754  0.505-  70 2.00  68 2.02  74 2.04  69 2.05  76 2.13  75 2.13  36 2.83  27 2.83

  23  0.725  0.916  0.987-  59 2.03  72 2.04  85 2.05  54 2.13  65 2.15  79 2.16  38 2.81
  24  0.385  0.748  0.502-  86 1.91  81 1.95  88 2.01  80 2.12  87 2.13  82 2.16  36 2.76  39 2.83

  25  0.066  0.091  0.010-  47 1.88  61 1.88  54 1.91  41 1.96  72 1.97  67 2.14  26 2.82  12 2.85
                            30 2.88  34 2.99
  26  0.390  0.250  0.002-  47 1.86  49 1.87  43 1.91  41 1.91  42 1.93  48 1.95  25 2.82  17 2.85
                            29 2.88  33 2.89   9 2.91
  27  0.068  0.080  0.489-  69 1.88  63 1.88  50 1.89  76 1.90  58 1.90  44 1.94  18 2.82  22 2.83
                            32 2.84  36 2.89  40 3.00
  28  0.728  0.418  0.497-  57 1.91  46 1.91  68 1.91  52 1.94  62 1.95  75 2.01  35 2.88  39 2.88
                            31 2.93
  29  0.560  0.088  0.000-  49 1.85  53 1.91  42 1.92  79 1.95  84 1.98  59 2.11  17 2.73  16 2.82
                            13 2.84  26 2.88  30 2.90  38 2.91
  30  0.893  0.251  0.004-  60 1.85  59 1.86  53 1.89  61 1.94  54 1.95  55 1.95  17 2.84  25 2.88
                            29 2.90  37 2.94
  31  0.557  0.080  0.500-  51 1.83  46 1.84  56 1.93  88 1.94  81 1.94  62 1.97  13 2.81  16 2.81
                            18 2.83  36 2.87  40 2.88  28 2.93
  32  0.227  0.407  0.499-  58 1.85  45 1.87  50 1.89  64 1.93  87 1.98  80 2.03  27 2.84  39 2.90
                            35 2.94
  33  0.565  0.583  0.992-  48 1.88  65 1.92  71 1.92  43 1.95  78 1.96  85 1.99  34 2.85  38 2.89
                            26 2.89
  34  0.894  0.747  0.998-  72 1.89  66 1.93  73 1.95  65 1.96  67 1.97  71 2.03  33 2.85  37 2.90
                            25 2.99
  35  0.565  0.587  0.503-  74 1.88  87 1.91  45 1.94  68 1.96  82 1.98  52 1.99   5 2.67  40 2.83
                            28 2.88  32 2.94
  36  0.227  0.907  0.505-  70 1.90  51 1.91  81 1.93  76 1.94  86 1.95  44 1.95  24 2.76  22 2.83
                            31 2.87  39 2.89  27 2.89
  37  0.069  0.590  0.005-  77 1.80  73 1.89  83 1.94  66 1.94  60 1.98  55 2.00  21 2.83  38 2.88
                            34 2.90  30 2.94
  38  0.402  0.753  0.998-  78 1.82  79 1.85  85 1.90  84 1.93  83 1.97  77 1.99  10 2.76  23 2.81
                            37 2.88  33 2.89  29 2.91
  39  0.059  0.575  0.506-  64 1.89  57 1.91  80 1.92  70 1.93  75 1.96  86 2.04  24 2.83  28 2.88
                            36 2.89  32 2.90
  40  0.722  0.913  0.492-  56 1.91  74 1.91  88 1.91  82 1.97  63 2.02  69 2.06  20 2.81  35 2.83
                            31 2.88  27 3.00
  41  0.237  0.247  0.105-  26 1.91  25 1.96  19 2.08   9 2.21
  42  0.401  0.092  0.092-  29 1.92  26 1.93  21 1.95   9 2.25
  43  0.548  0.415  0.091-  26 1.91  33 1.95  17 2.11
  44  0.211  0.065  0.597-  27 1.94  36 1.95  18 2.07  12 2.31
  45  0.392  0.423  0.587-  32 1.87  35 1.94  18 2.06
  46  0.580  0.246  0.588-  31 1.84  28 1.91  18 2.08
  47  0.225  0.093  0.920-  26 1.86  25 1.88  21 2.10  12 2.32
  48  0.404  0.420  0.907-  33 1.88  26 1.95  19 2.08   3 2.31
  49  0.536  0.231  0.912-  29 1.85  26 1.87  17 1.98   3 2.36
  50  0.222  0.249  0.403-  27 1.89  32 1.89  18 2.08  11 2.28   9 2.32
  51  0.394  0.068  0.418-  31 1.83  36 1.91  18 1.97   9 2.37
  52  0.562  0.417  0.407-  28 1.94  35 1.99  18 2.05   5 2.23
  53  0.728  0.235  0.094-  30 1.89  29 1.91  17 2.09
  54  0.900  0.089  0.096-  25 1.91  30 1.95  23 2.13
  55  0.053  0.414  0.101-  30 1.95  37 2.00  19 2.03
  56  0.717  0.067  0.588-  40 1.91  31 1.93  20 2.06  13 2.28
  57  0.886  0.412  0.587-  28 1.91  39 1.91  20 2.11   8 2.35
  58  0.074  0.241  0.583-  32 1.85  27 1.90  20 2.15   8 2.37
  59  0.746  0.105  0.901-  30 1.86  23 2.03  29 2.11  13 2.31
  60  0.907  0.414  0.915-  30 1.85  37 1.98  17 2.03
  61  0.059  0.245  0.918-  25 1.88  30 1.94  19 2.04
  62  0.714  0.249  0.402-  28 1.95  31 1.97  20 2.02
  63  0.905  0.067  0.396-  27 1.88  40 2.02  20 2.05  11 2.37
  64  0.073  0.427  0.409-  39 1.89  32 1.93  20 2.07
  65  0.723  0.736  0.091-  33 1.92  34 1.96  15 2.12  23 2.15
  66  0.894  0.581  0.086-  34 1.93  37 1.94  17 2.08   6 2.32
  67  0.050  0.900  0.107-  34 1.97  21 2.03  25 2.14   1 2.28
  68  0.727  0.576  0.592-  28 1.91  35 1.96  22 2.02
  69  0.908  0.940  0.589-  27 1.88  22 2.05  40 2.06   2 2.34
  70  0.067  0.744  0.595-  36 1.90  39 1.93  22 2.00  14 2.35
  71  0.724  0.594  0.890-  33 1.92  34 2.03  17 2.20   4 2.28
  72  0.912  0.918  0.913-  34 1.89  25 1.97  23 2.04
  73  0.057  0.738  0.909-  37 1.89  34 1.95  21 2.11  14 2.29
  74  0.721  0.745  0.411-  35 1.88  40 1.91  22 2.04   5 2.35
  75  0.905  0.578  0.401-  39 1.96  28 2.01  22 2.13   6 2.23   1 2.35
  76  0.083  0.926  0.401-  27 1.90  36 1.94  22 2.13   1 2.17
  77  0.225  0.736  0.092-  37 1.80  21 1.98  38 1.99  10 2.17
  78  0.415  0.608  0.088-  38 1.82  33 1.96  19 2.04  10 2.32
  79  0.544  0.914  0.091-  38 1.85  29 1.95  23 2.16  16 2.26
  80  0.211  0.565  0.604-  39 1.92  32 2.03  24 2.12   7 2.18
  81  0.396  0.918  0.596-  36 1.93  31 1.94  24 1.95  14 2.34
  82  0.573  0.754  0.601-  40 1.97  35 1.98  24 2.16   2 2.27
  83  0.229  0.594  0.905-  37 1.94  38 1.97  19 2.09
  84  0.394  0.913  0.909-  38 1.93  29 1.98  21 2.02  14 2.21
  85  0.546  0.740  0.896-  38 1.90  33 1.99  23 2.05
  86  0.227  0.748  0.406-  24 1.91  36 1.95  39 2.04  10 2.33   1 2.33
  87  0.400  0.571  0.408-  35 1.91  32 1.98  24 2.13   5 2.26
  88  0.557  0.916  0.408-  40 1.91  31 1.94  24 2.01  16 2.27
 
  LATTYP: Found a hexagonal cell.
 ALAT       =    10.0190000534
 C/A-ratio  =     1.1196726572
  
  Lattice vectors:
  
 A1 = (  10.0190000534,   0.0000000000,   0.0000000000)
 A2 = (  -5.0095000267,   8.6767085668,   0.0000000000)
 A3 = (   0.0000000000,   0.0000000000,  11.2180004120)


Analysis of symmetry for initial positions (statically):
=====================================================================
 Subroutine PRICEL returns:
 Original cell was already a primitive cell.
 

 Routine SETGRP: Setting up the symmetry group for a 
 hexagonal supercell.


 Subroutine GETGRP returns: Found  1 space group operations
 (whereof  1 operations were pure point group operations)
 out of a pool of 24 trial point group operations.


The static configuration has the point symmetry C_1 .


Analysis of symmetry for dynamics (positions and initial velocities):
=====================================================================
 Subroutine PRICEL returns:
 Original cell was already a primitive cell.
 

 Routine SETGRP: Setting up the symmetry group for a 
 hexagonal supercell.


 Subroutine GETGRP returns: Found  1 space group operations
 (whereof  1 operations were pure point group operations)
 out of a pool of 24 trial point group operations.


The dynamic configuration has the point symmetry C_1 .


Analysis of structural, dynamic, and magnetic symmetry:
=====================================================================
 Subroutine PRICEL returns:
 Original cell was already a primitive cell.
 

 Routine SETGRP: Setting up the symmetry group for a 
 hexagonal supercell.


 Subroutine GETGRP returns: Found  1 space group operations
 (whereof  1 operations were pure point group operations)
 out of a pool of 24 trial point group operations.


The magnetic configuration has the point symmetry C_1 .


 Subroutine INISYM returns: Found  1 space group operations
 (whereof  1 operations are pure point group operations),
 and found     1 'primitive' translations

 
 

Automatic generation of k-mesh.
 generate k-points for:    2    2    2
Space group operators:
 irot       det(A)        alpha          n_x          n_y          n_z        tau_x        tau_y        tau_z
    1     1.000000     0.000000     1.000000     0.000000     0.000000     0.000000     0.000000     0.000000
 
 Subroutine IBZKPT returns following result:
 ===========================================
 
 Found      8 irreducible k-points:
 
 Following reciprocal coordinates:
            Coordinates               Weight
  0.000000  0.000000  0.000000      1.000000
  0.500000 -0.000000 -0.000000      1.000000
  0.000000  0.500000  0.000000      1.000000
  0.500000  0.500000 -0.000000      1.000000
  0.000000  0.000000  0.500000      1.000000
  0.500000 -0.000000  0.500000      1.000000
  0.000000  0.500000  0.500000      1.000000
  0.500000  0.500000  0.500000      1.000000
 
 Following cartesian coordinates:
            Coordinates               Weight
  0.000000  0.000000  0.000000      1.000000
  0.049905  0.028813 -0.000000      1.000000
  0.000000  0.057626  0.000000      1.000000
  0.049905  0.086438 -0.000000      1.000000
  0.000000  0.000000  0.044571      1.000000
  0.049905  0.028813  0.044571      1.000000
  0.000000  0.057626  0.044571      1.000000
  0.049905  0.086438  0.044571      1.000000
 


--------------------------------------------------------------------------------------------------------




 Dimension of arrays:
   k-points           NKPTS =      8   k-points in BZ     NKDIM =      8   number of bands    NBANDS=    448
   number of dos      NEDOS =    301   number of ions     NIONS =     88
   non local maximal  LDIM  =      6   non local SUM 2l+1 LMDIM =     18
   total plane-waves  NPLWV = 140000
   max r-space proj   IRMAX =   1632   max aug-charges    IRDMAX=   4555
   dimension x,y,z NGX =    50 NGY =   50 NGZ =   56
   dimension x,y,z NGXF=   100 NGYF=  100 NGZF=  112
   support grid    NGXF=   100 NGYF=  100 NGZF=  112
   ions per type =              16   8  16  48
   NGX,Y,Z   is equivalent  to a cutoff of   8.30,  8.30,  8.30 a.u.
   NGXF,Y,Z  is equivalent  to a cutoff of  16.59, 16.59, 16.60 a.u.

 SYSTEM =  unknown system                          
 POSCAR =  Na Mg Mn  O                             

 Startparameter for this run:
   NWRITE =      2    write-flag & timer
   PREC   = normal    normal or accurate (medium, high low for compatibility)
   ISTART =      0    job   : 0-new  1-cont  2-samecut
   ICHARG =      1    charge: 1-file 2-atom 10-const
   ISPIN  =      2    spin polarized calculation?
   LNONCOLLINEAR =      F non collinear calculations
   LSORBIT =      F    spin-orbit coupling
   INIWAV =      1    electr: 0-lowe 1-rand  2-diag
   LASPH  =      T    aspherical Exc in radial PAW
   METAGGA=      F    non-selfconsistent MetaGGA calc.

 Electronic Relaxation 1
   ENCUT  =  400.0 eV  29.40 Ry    5.42 a.u.  16.34 16.34 18.29*2*pi/ulx,y,z
   ENINI  =  400.0     initial cutoff
   ENAUG  =  758.8 eV  augmentation charge cutoff
   NELM   =    200;   NELMIN=  6; NELMDL=-12     # of ELM steps 
   EDIFF  = 0.1E-04   stopping-criterion for ELM
   LREAL  =      T    real-space projection
   NLSPLINE    = F    spline interpolate recip. space projectors
   LCOMPAT=      F    compatible to vasp.4.4
   GGA_COMPAT  = T    GGA compatible to vasp.4.4-vasp.4.6
   LMAXPAW     = -100 max onsite density
   LMAXMIX     =    4 max onsite mixed and CHGCAR
   VOSKOWN=      0    Vosko Wilk Nusair interpolation
   ROPT   =   -0.00050  -0.00050  -0.00050  -0.00050
 Ionic relaxation
   EDIFFG = 0.1E-03   stopping-criterion for IOM
   NSW    =      1    number of steps for IOM
   NBLOCK =      1;   KBLOCK =      1    inner block; outer block 
   IBRION =     -1    ionic relax: 0-MD 1-quasi-New 2-CG
   NFREE  =      0    steps in history (QN), initial steepest desc. (CG)
   ISIF   =      2    stress and relaxation
   IWAVPR =     10    prediction:  0-non 1-charg 2-wave 3-comb
   ISYM   =      2    0-nonsym 1-usesym 2-fastsym
   LCORR  =      T    Harris-Foulkes like correction to forces

   POTIM  = 0.5000    time-step for ionic-motion
   TEIN   =    0.0    initial temperature
   TEBEG  =    0.0;   TEEND  =   0.0 temperature during run
   SMASS  =  -3.00    Nose mass-parameter (am)
   estimated Nose-frequenzy (Omega)   =  0.10E-29 period in steps =****** mass=  -0.229E-26a.u.
   SCALEE = 1.0000    scale energy and forces
   NPACO  =    256;   APACO  = 16.0  distance and # of slots for P.C.
   PSTRESS=    0.0 pullay stress

  Mass of Ions in am
   POMASS =  22.99 24.30 54.94 16.00
  Ionic Valenz
   ZVAL   =   7.00  8.00 13.00  6.00
  Atomic Wigner-Seitz radii
   RWIGS  =  -1.00 -1.00 -1.00 -1.00
  virtual crystal weights 
   VCA    =   1.00  1.00  1.00  1.00
   NELECT =     672.0000    total number of electrons
   NUPDOWN=      48.0000    fix difference up-down

 DOS related values:
   EMIN   =  10.00;   EMAX   =-10.00  energy-range for DOS
   EFERMI =   0.00
   ISMEAR =     0;   SIGMA  =   0.05  broadening in eV -4-tet -1-fermi 0-gaus

 Electronic relaxation 2 (details)
   IALGO  =     48    algorithm
   LDIAG  =      T    sub-space diagonalisation (order eigenvalues)
   LSUBROT=      F    optimize rotation matrix (better conditioning)
   TURBO    =      0    0=normal 1=particle mesh
   IRESTART =      0    0=no restart 2=restart with 2 vectors
   NREBOOT  =      0    no. of reboots
   NMIN     =      0    reboot dimension
   EREF     =   0.00    reference energy to select bands
   IMIX   =      4    mixing-type and parameters
     AMIX     =   0.40;   BMIX     =  1.00
     AMIX_MAG =   1.60;   BMIX_MAG =  1.00
     AMIN     =   0.10
     WC   =   100.;   INIMIX=   1;  MIXPRE=   1;  MAXMIX= -45

 Intra band minimization:
   WEIMIN = 0.0000     energy-eigenvalue tresh-hold
   EBREAK =  0.56E-08  absolut break condition
   DEPER  =   0.30     relativ break condition  

   TIME   =   0.40     timestep for ELM

  volume/ion in A,a.u.               =      11.08        74.78
  Fermi-wavevector in a.u.,A,eV,Ry     =   1.445993  2.732531 28.448379  2.090897
  Thomas-Fermi vector in A             =   2.564112
 
 Write flags
   LWAVE        =      F    write WAVECAR
   LDOWNSAMPLE  =      F    k-point downsampling of WAVECAR
   LCHARG       =      F    write CHGCAR
   LVTOT        =      F    write LOCPOT, total local potential
   LVHAR        =      F    write LOCPOT, Hartree potential only
   LELF         =      F    write electronic localiz. function (ELF)
   LORBIT       =     11    0 simple, 1 ext, 2 COOP (PROOUT), +10 PAW based schemes


 Dipole corrections
   LMONO  =      F    monopole corrections only (constant potential shift)
   LDIPOL =      F    correct potential (dipole corrections)
   IDIPOL =      0    1-x, 2-y, 3-z, 4-all directions 
   EPSILON=  1.0000000 bulk dielectric constant

 Exchange correlation treatment:
   GGA     =    --    GGA type
   LEXCH   =     8    internal setting for exchange type
   VOSKOWN=      0    Vosko Wilk Nusair interpolation
   LHFCALC =     F    Hartree Fock is set to
   LHFONE  =     F    Hartree Fock one center treatment
   AEXX    =    0.0000 exact exchange contribution

 Linear response parameters
   LEPSILON=     F    determine dielectric tensor
   LRPA    =     F    only Hartree local field effects (RPA)
   LNABLA  =     F    use nabla operator in PAW spheres
   LVEL    =     F    velocity operator in full k-point grid
   LINTERFAST=   F  fast interpolation
   KINTER  =     0    interpolate to denser k-point grid
   CSHIFT  =0.1000    complex shift for real part using Kramers Kronig
   OMEGAMAX=  -1.0    maximum frequency
   DEG_THRESHOLD= 0.2000000E-02 threshold for treating states as degnerate
   RTIME   =   -0.100 relaxation time in fs
  (WPLASMAI=    0.000 imaginary part of plasma frequency in eV, 0.658/RTIME)
   DFIELD  = 0.0000000 0.0000000 0.0000000 field for delta impulse in time
 
 Orbital magnetization related:
   ORBITALMAG=     F  switch on orbital magnetization
   LCHIMAG   =     F  perturbation theory with respect to B field
   DQ        =  0.001000  dq finite difference perturbation B field
   LLRAUG    =     F  two centre corrections for induced B field



--------------------------------------------------------------------------------------------------------


 Static calculation
 charge density and potential will be updated during run
 spin polarized calculation
 RMM-DIIS sequential band-by-band
 perform sub-space diagonalisation
    before iterative eigenvector-optimisation
 modified Broyden-mixing scheme, WC =      100.0
 initial mixing is a Kerker type mixing with AMIX =  0.4000 and BMIX =      1.0000
 Hartree-type preconditioning will be used
 using additional bands          112
 real space projection scheme for non local part
 use partial core corrections
 calculate Harris-corrections to forces 
   (improved forces if not selfconsistent)
 use gradient corrections 
 use of overlap-Matrix (Vanderbilt PP)
 Gauss-broadening in eV      SIGMA  =   0.05


--------------------------------------------------------------------------------------------------------


  energy-cutoff  :      400.00
  volume of cell :      975.20
      direct lattice vectors                 reciprocal lattice vectors
    10.019000053  0.000000000  0.000000000     0.099810360  0.057625538 -0.000000000
    -5.009500027  8.676708567  0.000000000     0.000000000  0.115251076  0.000000000
     0.000000000  0.000000000 11.218000412     0.000000000  0.000000000  0.089142446

  length of vectors
    10.019000053 10.019000053 11.218000412     0.115251076  0.115251076  0.089142446


 
 k-points in units of 2pi/SCALE and weight: read from INCAR                         
   0.00000000  0.00000000  0.00000000       0.125
   0.04990518  0.02881277 -0.00000000       0.125
   0.00000000  0.05762554  0.00000000       0.125
   0.04990518  0.08643831 -0.00000000       0.125
   0.00000000  0.00000000  0.04457122       0.125
   0.04990518  0.02881277  0.04457122       0.125
   0.00000000  0.05762554  0.04457122       0.125
   0.04990518  0.08643831  0.04457122       0.125
 
 k-points in reciprocal lattice and weights: read from INCAR                         
   0.00000000  0.00000000  0.00000000       0.125
   0.50000000 -0.00000000 -0.00000000       0.125
   0.00000000  0.50000000  0.00000000       0.125
   0.50000000  0.50000000 -0.00000000       0.125
   0.00000000  0.00000000  0.50000000       0.125
   0.50000000 -0.00000000  0.50000000       0.125
   0.00000000  0.50000000  0.50000000       0.125
   0.50000000  0.50000000  0.50000000       0.125
 
 position of ions in fractional coordinates (direct lattice) 
   0.06776638  0.76605480  0.26396683
   0.74857461  0.78687870  0.74325456
   0.51520623  0.36639009  0.74734798
   0.87952396  0.56585496  0.75528790
   0.55879220  0.57148201  0.26473078
   0.86994596  0.42461098  0.24583704
   0.37597245  0.58344507  0.73927346
   0.99574633  0.34104851  0.74178104
   0.32739717  0.17187788  0.25365305
   0.35569879  0.72397170  0.24214476
   0.06744767  0.25674383  0.25684880
   0.08628892  0.10019534  0.75640753
   0.57505030  0.06260685  0.74895344
   0.23313951  0.80297927  0.75919234
   0.85110283  0.88435954  0.23331520
   0.56337857  0.06136140  0.25038598
   0.71811965  0.40241757  0.99022705
   0.39188036  0.24023741  0.50292029
   0.23248290  0.42310514  0.00938666
   0.88732058  0.23637189  0.48408895
   0.23060036  0.91511429  0.01349207
   0.90036989  0.75412237  0.50463717
   0.72516613  0.91642469  0.98655242
   0.38526406  0.74790111  0.50249775
   0.06550759  0.09113495  0.00971278
   0.38993418  0.25021470  0.00183138
   0.06770395  0.08012992  0.48877071
   0.72774877  0.41795688  0.49705026
   0.55957129  0.08767396  0.00006142
   0.89346551  0.25063997  0.00350326
   0.55746572  0.07980618  0.50024423
   0.22655668  0.40739642  0.49936440
   0.56514583  0.58293764  0.99198994
   0.89371516  0.74729259  0.99798419
   0.56539539  0.58716966  0.50259046
   0.22659696  0.90718732  0.50540380
   0.06948685  0.58966139  0.00531700
   0.40177631  0.75254573  0.99844453
   0.05933385  0.57467529  0.50633623
   0.72179701  0.91293028  0.49170260
   0.23684126  0.24744637  0.10457568
   0.40059583  0.09158991  0.09224639
   0.54760994  0.41540752  0.09141825
   0.21133876  0.06524265  0.59655997
   0.39222622  0.42281356  0.58697983
   0.57967310  0.24565421  0.58760918
   0.22479326  0.09313578  0.91991439
   0.40363733  0.41965913  0.90729182
   0.53646360  0.23119251  0.91174894
   0.22152217  0.24941024  0.40342662
   0.39394958  0.06848005  0.41834372
   0.56202486  0.41749818  0.40726777
   0.72755245  0.23459587  0.09422357
   0.90034191  0.08930345  0.09554822
   0.05291989  0.41366493  0.10080050
   0.71652510  0.06700368  0.58779638
   0.88631006  0.41208714  0.58680511
   0.07444096  0.24144524  0.58250577
   0.74639166  0.10527759  0.90124796
   0.90737214  0.41360845  0.91522550
   0.05902028  0.24539259  0.91797108
   0.71422424  0.24903337  0.40182741
   0.90474836  0.06700945  0.39596451
   0.07313396  0.42737980  0.40945889
   0.72302421  0.73609134  0.09129167
   0.89414200  0.58126535  0.08564468
   0.05014803  0.89986888  0.10652255
   0.72723252  0.57589234  0.59239167
   0.90793913  0.93955328  0.58854250
   0.06701689  0.74376130  0.59463004
   0.72432529  0.59387266  0.88993489
   0.91192744  0.91809584  0.91315739
   0.05685536  0.73839981  0.90912815
   0.72137963  0.74510282  0.41107861
   0.90474314  0.57787235  0.40114190
   0.08285888  0.92642042  0.40074432
   0.22541867  0.73623309  0.09221875
   0.41501493  0.60765438  0.08795569
   0.54370387  0.91440665  0.09110358
   0.21145206  0.56487318  0.60382508
   0.39604091  0.91764405  0.59574877
   0.57303314  0.75420881  0.60143161
   0.22879541  0.59383117  0.90472452
   0.39414168  0.91342240  0.90939558
   0.54589104  0.73976093  0.89564982
   0.22738259  0.74761875  0.40649401
   0.39952497  0.57140446  0.40756640
   0.55732464  0.91641432  0.40786057
 
 position of ions in cartesian coordinates  (Angst):
  -3.15860016  6.64683427  2.96118000
   3.55810021  6.82751713  8.33783000
   3.32642005  3.17906000  8.38375000
   5.97730013  4.90975857  8.47282000
   2.73569995  4.95858287  2.96975000
   6.58889997  3.68422570  2.75780000
   0.84409989  5.06238287  8.29317000
   8.26789997  2.95917857  8.32130000
   2.41917000  1.49133427  2.84548000
  -0.06299003  6.28169143  2.71638000
  -0.61040003  2.22769143  2.88133000
   0.36260011  0.86936573  8.48538000
   5.44779992  0.54322143  8.40176000
  -1.68669989  6.96721713  8.51662000
   4.09700016  7.67333000  2.61733000
   5.33709995  0.53241500  2.80883000
   5.17893000  3.49166000 11.10836741
   2.72278000  2.08447000  5.64176000
   0.20970100  3.67116000  0.10529959
   7.70596000  2.05093000  5.43051000
  -2.27388000  7.94018000  0.15135400
   5.24303000  6.54330000  5.66102000
   2.67461000  7.95155000 11.06714541
   0.11335000  6.48932000  5.63702000
   0.19977997  0.79075143  0.10895800
   2.65330000  2.17104000  0.02054440
   0.27691500  0.69526400  5.48303000
   5.19756000  3.62649000  5.57591000
   5.16714203  0.76072143  0.00068898
   7.69605000  2.17473000  0.03929959
   5.18546000  0.69245500  5.61174000
   0.22901900  3.53486000  5.60187000
   2.74197000  5.05798000 11.12814351
   5.21057000  6.48404000 11.19538701
   2.72327000  5.09470000  5.63806000
  -2.27428000  7.87140000  5.66962000
  -2.25772000  5.11632000  0.05964610
   0.25551900  6.52962000 11.20055111
  -2.28437000  4.98629000  5.68008000
   2.65836000  7.92123000  5.51592000
   1.13333000  2.14702000  1.17313000
   3.55475000  0.79469900  1.03482000
   3.40552000  3.60437000  1.02553000
   1.79057003  0.56609143  6.69221000
   1.81163000  3.66863000  6.58474000
   4.57714000  2.13147000  6.59180000
   1.78564000  0.80811200 10.31960000
   1.94176000  3.64126000 10.17800000
   4.21667000  2.00599000 10.22800000
   0.97001000  2.16406000  4.52564000
   3.60393003  0.59418143  4.69298000
   3.53947000  3.62251000  4.56873000
   6.11414000  2.03552000  1.05700000
   8.57316000  0.77486000  1.07186000
  -1.54205005  3.58925000  1.13078000
   6.84321003  0.58137143  6.59390000
   6.81559000  3.57556000  6.58278000
  -0.46369600  2.09495000  6.53455000
   6.95071000  0.91346300 10.11020000
   7.01899000  3.58876000 10.26700000
  -0.63797005  2.12920000 10.29780000
   5.90828000  2.16079000  4.50770000
   8.72899003  0.58142143  4.44193000
  -1.40823000  3.70825000  4.59331000
   3.55653000  6.38685000  1.02411000
   6.04656000  5.04347000  0.96076200
  -4.00546005  7.80790000  1.19497000
   4.40121000  4.99685000  6.64545000
   4.38995000  8.15223000  6.60227000
  -3.05443000  6.45340000  6.67056000
   4.28201000  5.15286000  9.98329000
   4.53740000  7.96605000 10.24380000
  -3.12938005  6.40688000 10.19860000
   3.49491000  6.46504000  4.61148000
   6.16977000  5.01403000  4.50001000
  -3.81074000  8.03828000  4.49555000
  -1.42969000  6.38808000  1.03451000
   1.11399000  5.27244000  0.98668700
   0.86664900  7.93404000  1.02200000
  -0.71119400  4.90124000  6.77371000
  -0.62900400  7.96213000  6.68311000
   1.96301000  6.54405000  6.74686000
  -0.68249600  5.15250000 10.14920000
  -0.62688400  7.92550000 10.20160000
   1.76345000  6.41869000 10.04740000
  -1.46705000  6.48687000  4.56005000
   1.14039000  4.95791000  4.57208000
   0.99305800  7.95146000  4.57538000
 


--------------------------------------------------------------------------------------------------------


 k-point  1 :   0.0000 0.0000 0.0000  plane waves:   17725
 k-point  2 :   0.5000-0.0000-0.0000  plane waves:   17736
 k-point  3 :   0.0000 0.5000 0.0000  plane waves:   17736
 k-point  4 :   0.5000 0.5000-0.0000  plane waves:   17736
 k-point  5 :   0.0000 0.0000 0.5000  plane waves:   17676
 k-point  6 :   0.5000-0.0000 0.5000  plane waves:   17700
 k-point  7 :   0.0000 0.5000 0.5000  plane waves:   17700
 k-point  8 :   0.5000 0.5000 0.5000  plane waves:   17700

 maximum and minimum number of plane-waves per node :     17736    17676

 maximum number of plane-waves:     17736
 maximum index in each direction: 
   IXMAX=   16   IYMAX=   16   IZMAX=   18
   IXMIN=  -16   IYMIN=  -16   IZMIN=  -18


 serial   3D FFT for wavefunctions
 parallel 3D FFT for charge:
    minimum data exchange during FFTs selected (reduces bandwidth)


 total amount of memory used by VASP MPI-rank0    88178. kBytes
=======================================================================

   base      :      30000. kBytes
   nonlr-proj:      13669. kBytes
   fftplans  :        992. kBytes
   grid      :      21513. kBytes
   one-center:       2737. kBytes
   wavefun   :      19267. kBytes
 
     INWAV:  cpu time    0.0000: real time    0.0001
 Broyden mixing: mesh for mixing (old mesh)
   NGX = 33   NGY = 33   NGZ = 37
  (NGX  =100   NGY  =100   NGZ  =112)
  gives a total of  40293 points

 initial charge density was supplied:
 charge density of overlapping atoms calculated
 number of electron     672.0000000 magnetization      48.0000000
 keeping initial charge density in first step


--------------------------------------------------------------------------------------------------------


 Maximum index for non-local projection operator         1547
 Maximum index for augmentation-charges          270 (set IRDMAX)


--------------------------------------------------------------------------------------------------------


 First call to EWALD:  gamma=   0.179
 Maximum number of real-space cells 3x 3x 2
 Maximum number of reciprocal cells 3x 3x 3

    FEWALD:  cpu time    0.0026: real time    0.0032


--------------------------------------- Iteration      1(   1)  ---------------------------------------


    POTLOK:  cpu time    0.2024: real time    0.2042
    SETDIJ:  cpu time    3.1317: real time    3.1339
    EDDIAG:  cpu time    3.7911: real time    3.8019
  RMM-DIIS:  cpu time    6.6049: real time    6.6165
    ORTHCH:  cpu time    1.1430: real time    1.1462
       DOS:  cpu time    0.0025: real time    0.0026
    --------------------------------------------
      LOOP:  cpu time   14.8756: real time   14.9054

 eigenvalue-minimisations  :  7168
 total energy-change (2. order) : 0.1857948E+04  (-0.3592479E+05)
 number of electron     672.0000000 magnetization      48.0000000
 augmentation part      672.0000000 magnetization      48.0000000

 Free energy of the ion-electron system (eV)
  ---------------------------------------------------
  alpha Z        PSCENC =      2652.81237852
  Ewald energy   TEWEN  =    -41957.21092032
  -Hartree energ DENC   =    -25662.44848434
  -exchange      EXHF   =         0.00000000
  -V(xc)+E(xc)   XCENC  =      3605.60687863
  PAW double counting   =     55594.23204139   -59034.67079123
  entropy T*S    EENTRO =        -0.05972303
  eigenvalues    EBANDS =     -7202.51127622
  atomic energy  EATOM  =     73862.19814772
  Solvation  Ediel_sol  =         0.00000000
  ---------------------------------------------------
  free energy    TOTEN  =      1857.94825112 eV

  energy without entropy =     1858.00797415  energy(sigma->0) =     1857.97811264


--------------------------------------------------------------------------------------------------------




--------------------------------------- Iteration      1(   2)  ---------------------------------------


    EDDIAG:  cpu time    3.6933: real time    3.7016
  RMM-DIIS:  cpu time    6.5938: real time    6.6277
    ORTHCH:  cpu time    1.1397: real time    1.1430
       DOS:  cpu time    0.0020: real time    0.0020
    --------------------------------------------
      LOOP:  cpu time   11.4287: real time   11.4742

 eigenvalue-minimisations  :  7168
 total energy-change (2. order) :-0.2690461E+04  (-0.8665283E+04)
 number of electron     672.0000000 magnetization      48.0000000
 augmentation part      672.0000000 magnetization      48.0000000

 Free energy of the ion-electron system (eV)
  ---------------------------------------------------
  alpha Z        PSCENC =      2652.81237852
  Ewald energy   TEWEN  =    -41957.21092032
  -Hartree energ DENC   =    -25662.44848434
  -exchange      EXHF   =         0.00000000
  -V(xc)+E(xc)   XCENC  =      3605.60687863
  PAW double counting   =     55594.23204139   -59034.67079123
  entropy T*S    EENTRO =        -0.06067480
  eigenvalues    EBANDS =     -9892.97095569
  atomic energy  EATOM  =     73862.19814772
  Solvation  Ediel_sol  =         0.00000000
  ---------------------------------------------------
  free energy    TOTEN  =      -832.51238011 eV

  energy without entropy =     -832.45170531  energy(sigma->0) =     -832.48204271


--------------------------------------------------------------------------------------------------------




--------------------------------------- Iteration      1(   3)  ---------------------------------------


    EDDIAG:  cpu time    3.7256: real time    3.7329
  RMM-DIIS:  cpu time    6.6125: real time    6.6388
    ORTHCH:  cpu time    1.1452: real time    1.1485
       DOS:  cpu time    0.0014: real time    0.0014
    --------------------------------------------
      LOOP:  cpu time   11.4847: real time   11.5217

 eigenvalue-minimisations  :  7168
 total energy-change (2. order) : 0.2975059E+03  (-0.1558056E+04)
 number of electron     672.0000000 magnetization      48.0000000
 augmentation part      672.0000000 magnetization      48.0000000

 Free energy of the ion-electron system (eV)
  ---------------------------------------------------
  alpha Z        PSCENC =      2652.81237852
  Ewald energy   TEWEN  =    -41957.21092032
  -Hartree energ DENC   =    -25662.44848434
  -exchange      EXHF   =         0.00000000
  -V(xc)+E(xc)   XCENC  =      3605.60687863
  PAW double counting   =     55594.23204139   -59034.67079123
  entropy T*S    EENTRO =        -0.05264513
  eigenvalues    EBANDS =     -9595.47313326
  atomic energy  EATOM  =     73862.19814772
  Solvation  Ediel_sol  =         0.00000000
  ---------------------------------------------------
  free energy    TOTEN  =      -535.00652802 eV

  energy without entropy =     -534.95388289  energy(sigma->0) =     -534.98020546


--------------------------------------------------------------------------------------------------------




--------------------------------------- Iteration      1(   4)  ---------------------------------------


    EDDIAG:  cpu time    3.7309: real time    3.7403
  RMM-DIIS:  cpu time    6.6033: real time    6.6147
    ORTHCH:  cpu time    1.1431: real time    1.1467
       DOS:  cpu time    0.0013: real time    0.0012
    --------------------------------------------
      LOOP:  cpu time   11.4785: real time   11.5030

 eigenvalue-minimisations  :  7168
 total energy-change (2. order) :-0.5230195E+03  (-0.5070146E+03)
 number of electron     672.0000000 magnetization      48.0000000
 augmentation part      672.0000000 magnetization      48.0000000

 Free energy of the ion-electron system (eV)
  ---------------------------------------------------
  alpha Z        PSCENC =      2652.81237852
  Ewald energy   TEWEN  =    -41957.21092032
  -Hartree energ DENC   =    -25662.44848434
  -exchange      EXHF   =         0.00000000
  -V(xc)+E(xc)   XCENC  =      3605.60687863
  PAW double counting   =     55594.23204139   -59034.67079123
  entropy T*S    EENTRO =        -0.00531388
  eigenvalues    EBANDS =    -10118.53996686
  atomic energy  EATOM  =     73862.19814772
  Solvation  Ediel_sol  =         0.00000000
  ---------------------------------------------------
  free energy    TOTEN  =     -1058.02603037 eV

  energy without entropy =    -1058.02071649  energy(sigma->0) =    -1058.02337343


--------------------------------------------------------------------------------------------------------




--------------------------------------- Iteration      1(   5)  ---------------------------------------


    EDDIAG:  cpu time    3.8082: real time    3.8239
  RMM-DIIS:  cpu time    6.6068: real time    6.6183
    ORTHCH:  cpu time    1.1485: real time    1.1517
       DOS:  cpu time    0.0010: real time    0.0010
    --------------------------------------------
      LOOP:  cpu time   11.5645: real time   11.5949

 eigenvalue-minimisations  :  7168
 total energy-change (2. order) :-0.1479559E+03  (-0.2131442E+03)
 number of electron     672.0000000 magnetization      48.0000000
 augmentation part      672.0000000 magnetization      48.0000000

 Free energy of the ion-electron system (eV)
  ---------------------------------------------------
  alpha Z        PSCENC =      2652.81237852
  Ewald energy   TEWEN  =    -41957.21092032
  -Hartree energ DENC   =    -25662.44848434
  -exchange      EXHF   =         0.00000000
  -V(xc)+E(xc)   XCENC  =      3605.60687863
  PAW double counting   =     55594.23204139   -59034.67079123
  entropy T*S    EENTRO =        -0.00000000
  eigenvalues    EBANDS =    -10266.50115242
  atomic energy  EATOM  =     73862.19814772
  Solvation  Ediel_sol  =         0.00000000
  ---------------------------------------------------
  free energy    TOTEN  =     -1205.98190205 eV

  energy without entropy =    -1205.98190205  energy(sigma->0) =    -1205.98190205


--------------------------------------------------------------------------------------------------------




--------------------------------------- Iteration      1(   6)  ---------------------------------------


    EDDIAG:  cpu time    3.7473: real time    3.7545
  RMM-DIIS:  cpu time    6.5878: real time    6.6012
    ORTHCH:  cpu time    1.1406: real time    1.1439
       DOS:  cpu time    0.0012: real time    0.0012
    --------------------------------------------
      LOOP:  cpu time   11.4768: real time   11.5007

 eigenvalue-minimisations  :  7168
 total energy-change (2. order) :-0.2157080E+02  (-0.1156589E+03)
 number of electron     672.0000000 magnetization      48.0000000
 augmentation part      672.0000000 magnetization      48.0000000

 Free energy of the ion-electron system (eV)
  ---------------------------------------------------
  alpha Z        PSCENC =      2652.81237852
  Ewald energy   TEWEN  =    -41957.21092032
  -Hartree energ DENC   =    -25662.44848434
  -exchange      EXHF   =         0.00000000
  -V(xc)+E(xc)   XCENC  =      3605.60687863
  PAW double counting   =     55594.23204139   -59034.67079123
  entropy T*S    EENTRO =        -0.00000000
  eigenvalues    EBANDS =    -10288.07195372
  atomic energy  EATOM  =     73862.19814772
  Solvation  Ediel_sol  =         0.00000000
  ---------------------------------------------------
  free energy    TOTEN  =     -1227.55270335 eV

  energy without entropy =    -1227.55270335  energy(sigma->0) =    -1227.55270335


--------------------------------------------------------------------------------------------------------




--------------------------------------- Iteration      1(   7)  ---------------------------------------


    EDDIAG:  cpu time    3.7469: real time    3.7554
  RMM-DIIS:  cpu time    6.5845: real time    6.6113
    ORTHCH:  cpu time    1.1478: real time    1.1511
       DOS:  cpu time    0.0011: real time    0.0011
    --------------------------------------------
      LOOP:  cpu time   11.4804: real time   11.5190

 eigenvalue-minimisations  :  7168
 total energy-change (2. order) :-0.6585072E+01  (-0.7634052E+02)
 number of electron     672.0000000 magnetization      48.0000000
 augmentation part      672.0000000 magnetization      48.0000000

 Free energy of the ion-electron system (eV)
  ---------------------------------------------------
  alpha Z        PSCENC =      2652.81237852
  Ewald energy   TEWEN  =    -41957.21092032
  -Hartree energ DENC   =    -25662.44848434
  -exchange      EXHF   =         0.00000000
  -V(xc)+E(xc)   XCENC  =      3605.60687863
  PAW double counting   =     55594.23204139   -59034.67079123
  entropy T*S    EENTRO =        -0.00000000
  eigenvalues    EBANDS =    -10294.65702529
  atomic energy  EATOM  =     73862.19814772
  Solvation  Ediel_sol  =         0.00000000
  ---------------------------------------------------
  free energy    TOTEN  =     -1234.13777492 eV

  energy without entropy =    -1234.13777492  energy(sigma->0) =    -1234.13777492


--------------------------------------------------------------------------------------------------------




--------------------------------------- Iteration      1(   8)  ---------------------------------------


    EDDIAG:  cpu time    3.7402: real time    3.7472
  RMM-DIIS:  cpu time    6.6022: real time    6.6147
    ORTHCH:  cpu time    1.1472: real time    1.1503
       DOS:  cpu time    0.0015: real time    0.0015
    --------------------------------------------
      LOOP:  cpu time   11.4910: real time   11.5137

 eigenvalue-minimisations  :  7168
 total energy-change (2. order) : 0.4712740E+01  (-0.5285638E+02)
 number of electron     672.0000000 magnetization      48.0000000
 augmentation part      672.0000000 magnetization      48.0000000

 Free energy of the ion-electron system (eV)
  ---------------------------------------------------
  alpha Z        PSCENC =      2652.81237852
  Ewald energy   TEWEN  =    -41957.21092032
  -Hartree energ DENC   =    -25662.44848434
  -exchange      EXHF   =         0.00000000
  -V(xc)+E(xc)   XCENC  =      3605.60687863
  PAW double counting   =     55594.23204139   -59034.67079123
  entropy T*S    EENTRO =        -0.00000000
  eigenvalues    EBANDS =    -10289.94428484
  atomic energy  EATOM  =     73862.19814772
  Solvation  Ediel_sol  =         0.00000000
  ---------------------------------------------------
  free energy    TOTEN  =     -1229.42503447 eV

  energy without entropy =    -1229.42503447  energy(sigma->0) =    -1229.42503447


--------------------------------------------------------------------------------------------------------




--------------------------------------- Iteration      1(   9)  ---------------------------------------


    EDDIAG:  cpu time    3.7106: real time    3.7176
  RMM-DIIS:  cpu time   13.8537: real time   13.8959
    ORTHCH:  cpu time    1.2082: real time    1.2115
       DOS:  cpu time    0.0011: real time    0.0011
    --------------------------------------------
      LOOP:  cpu time   18.7736: real time   18.8261

 eigenvalue-minimisations  : 20231
 total energy-change (2. order) : 0.1812879E+02  (-0.2366502E+02)
 number of electron     672.0000000 magnetization      48.0000000
 augmentation part      672.0000000 magnetization      48.0000000

 Free energy of the ion-electron system (eV)
  ---------------------------------------------------
  alpha Z        PSCENC =      2652.81237852
  Ewald energy   TEWEN  =    -41957.21092032
  -Hartree energ DENC   =    -25662.44848434
  -exchange      EXHF   =         0.00000000
  -V(xc)+E(xc)   XCENC  =      3605.60687863
  PAW double counting   =     55594.23204139   -59034.67079123
  entropy T*S    EENTRO =        -0.00000000
  eigenvalues    EBANDS =    -10271.81549888
  atomic energy  EATOM  =     73862.19814772
  Solvation  Ediel_sol  =         0.00000000
  ---------------------------------------------------
  free energy    TOTEN  =     -1211.29624850 eV

  energy without entropy =    -1211.29624850  energy(sigma->0) =    -1211.29624850


--------------------------------------------------------------------------------------------------------




--------------------------------------- Iteration      1(  10)  ---------------------------------------


    EDDIAG:  cpu time    3.7176: real time    3.7258
  RMM-DIIS:  cpu time   15.6339: real time   15.6599
    ORTHCH:  cpu time    1.1630: real time    1.1662
       DOS:  cpu time    0.0011: real time    0.0011
    --------------------------------------------
      LOOP:  cpu time   20.5156: real time   20.5530

 eigenvalue-minimisations  : 20169
 total energy-change (2. order) :-0.3088008E+01  (-0.1030327E+01)
 number of electron     672.0000000 magnetization      48.0000000
 augmentation part      672.0000000 magnetization      48.0000000

 Free energy of the ion-electron system (eV)
  ---------------------------------------------------
  alpha Z        PSCENC =      2652.81237852
  Ewald energy   TEWEN  =    -41957.21092032
  -Hartree energ DENC   =    -25662.44848434
  -exchange      EXHF   =         0.00000000
  -V(xc)+E(xc)   XCENC  =      3605.60687863
  PAW double counting   =     55594.23204139   -59034.67079123
  entropy T*S    EENTRO =        -0.00000008
  eigenvalues    EBANDS =    -10274.90350727
  atomic energy  EATOM  =     73862.19814772
  Solvation  Ediel_sol  =         0.00000000
  ---------------------------------------------------
  free energy    TOTEN  =     -1214.38425698 eV

  energy without entropy =    -1214.38425690  energy(sigma->0) =    -1214.38425694


--------------------------------------------------------------------------------------------------------




--------------------------------------- Iteration      1(  11)  ---------------------------------------


    EDDIAG:  cpu time    3.7272: real time    3.7349
  RMM-DIIS:  cpu time   15.1917: real time   15.2381
    ORTHCH:  cpu time    1.1506: real time    1.1542
       DOS:  cpu time    0.0011: real time    0.0011
    --------------------------------------------
      LOOP:  cpu time   20.0706: real time   20.1284

 eigenvalue-minimisations  : 21725
 total energy-change (2. order) : 0.1044294E+00  (-0.9552260E-01)
 number of electron     672.0000000 magnetization      48.0000000
 augmentation part      672.0000000 magnetization      48.0000000

 Free energy of the ion-electron system (eV)
  ---------------------------------------------------
  alpha Z        PSCENC =      2652.81237852
  Ewald energy   TEWEN  =    -41957.21092032
  -Hartree energ DENC   =    -25662.44848434
  -exchange      EXHF   =         0.00000000
  -V(xc)+E(xc)   XCENC  =      3605.60687863
  PAW double counting   =     55594.23204139   -59034.67079123
  entropy T*S    EENTRO =        -0.00000007
  eigenvalues    EBANDS =    -10274.79907793
  atomic energy  EATOM  =     73862.19814772
  Solvation  Ediel_sol  =         0.00000000
  ---------------------------------------------------
  free energy    TOTEN  =     -1214.27982762 eV

  energy without entropy =    -1214.27982756  energy(sigma->0) =    -1214.27982759


--------------------------------------------------------------------------------------------------------




--------------------------------------- Iteration      1(  12)  ---------------------------------------


    EDDIAG:  cpu time    3.7052: real time    3.7118
  RMM-DIIS:  cpu time   15.8678: real time   15.9670
    ORTHCH:  cpu time    1.1427: real time    1.1460
       DOS:  cpu time    0.0016: real time    0.0016
    CHARGE:  cpu time    1.3478: real time    1.3506
    MIXING:  cpu time    0.0014: real time    0.0015
    --------------------------------------------
      LOOP:  cpu time   22.0665: real time   22.1786

 eigenvalue-minimisations  : 22824
 total energy-change (2. order) : 0.6372008E-02  (-0.6914658E-02)
 number of electron     671.9999806 magnetization      47.9999992
 augmentation part      239.0057647 magnetization      29.0298481

 Broyden mixing:
  rms(total) = 0.12484E+02    rms(broyden)= 0.12474E+02
  rms(prec ) = 0.14355E+02
  weight for this iteration     100.00

 Free energy of the ion-electron system (eV)
  ---------------------------------------------------
  alpha Z        PSCENC =      2652.81237852
  Ewald energy   TEWEN  =    -41957.21092032
  -Hartree energ DENC   =    -25662.44848434
  -exchange      EXHF   =         0.00000000
  -V(xc)+E(xc)   XCENC  =      3605.60687863
  PAW double counting   =     55594.23204139   -59034.67079123
  entropy T*S    EENTRO =        -0.00000006
  eigenvalues    EBANDS =    -10274.79270593
  atomic energy  EATOM  =     73862.19814772
  Solvation  Ediel_sol  =         0.00000000
  ---------------------------------------------------
  free energy    TOTEN  =     -1214.27345561 eV

  energy without entropy =    -1214.27345555  energy(sigma->0) =    -1214.27345558


--------------------------------------------------------------------------------------------------------




--------------------------------------- Iteration      1(  13)  ---------------------------------------


    POTLOK:  cpu time    0.1941: real time    0.1961
    SETDIJ:  cpu time    3.2960: real time    3.2983
    EDDIAG:  cpu time    3.7366: real time    3.7437
  RMM-DIIS:  cpu time   13.0815: real time   13.1024
    ORTHCH:  cpu time    1.1615: real time    1.1648
       DOS:  cpu time    0.0020: real time    0.0020
    CHARGE:  cpu time    1.3498: real time    1.3528
    MIXING:  cpu time    0.0012: real time    0.0013
    --------------------------------------------
      LOOP:  cpu time   22.8226: real time   22.8615

 eigenvalue-minimisations  : 17315
 total energy-change (2. order) : 0.2229982E+03  (-0.1392993E+03)
 number of electron     671.9999886 magnetization      47.9999991
 augmentation part      269.4921957 magnetization      26.1893833

 Broyden mixing:
  rms(total) = 0.14111E+02    rms(broyden)= 0.14108E+02
  rms(prec ) = 0.15910E+02
  weight for this iteration     100.00

 eigenvalues of (default mixing * dielectric matrix)
  average eigenvalue GAMMA=   0.3155
  0.3155

 Free energy of the ion-electron system (eV)
  ---------------------------------------------------
  alpha Z        PSCENC =      2652.81237852
  Ewald energy   TEWEN  =    -41957.21092032
  -Hartree energ DENC   =    -24986.93985420
  -exchange      EXHF   =         0.00000000
  -V(xc)+E(xc)   XCENC  =      3695.61218798
  PAW double counting   =     59827.58339888   -63252.47413426
  entropy T*S    EENTRO =        -0.06980071
  eigenvalues    EBANDS =    -10832.78662666
  atomic energy  EATOM  =     73862.19814772
  Solvation  Ediel_sol  =         0.00000000
  ---------------------------------------------------
  free energy    TOTEN  =      -991.27522303 eV

  energy without entropy =     -991.20542232  energy(sigma->0) =     -991.24032268


--------------------------------------------------------------------------------------------------------




--------------------------------------- Iteration      1(  14)  ---------------------------------------


    POTLOK:  cpu time    0.2038: real time    0.2040
    SETDIJ:  cpu time    3.2776: real time    3.2903
    EDDIAG:  cpu time    3.7515: real time    3.7590
  RMM-DIIS:  cpu time   13.5396: real time   13.5624
    ORTHCH:  cpu time    1.1618: real time    1.1651
       DOS:  cpu time    0.0010: real time    0.0010
    CHARGE:  cpu time    1.3481: real time    1.3504
    MIXING:  cpu time    0.0007: real time    0.0007
    --------------------------------------------
      LOOP:  cpu time   23.2841: real time   23.3328

 eigenvalue-minimisations  : 17756
 total energy-change (2. order) : 0.7601961E+02  (-0.1947310E+02)
 number of electron     671.9999848 magnetization      47.9999984
 augmentation part      246.5196302 magnetization      32.1614699

 Broyden mixing:
  rms(total) = 0.52176E+01    rms(broyden)= 0.52131E+01
  rms(prec ) = 0.56599E+01
  weight for this iteration     100.00

 eigenvalues of (default mixing * dielectric matrix)
  average eigenvalue GAMMA=   0.7258
  1.0949  0.3566

 Free energy of the ion-electron system (eV)
  ---------------------------------------------------
  alpha Z        PSCENC =      2652.81237852
  Ewald energy   TEWEN  =    -41957.21092032
  -Hartree energ DENC   =    -25602.27615540
  -exchange      EXHF   =         0.00000000
  -V(xc)+E(xc)   XCENC  =      3672.82895845
  PAW double counting   =     63227.47753622   -66709.39611938
  entropy T*S    EENTRO =        -0.00000000
  eigenvalues    EBANDS =    -10061.68944137
  atomic energy  EATOM  =     73862.19814772
  Solvation  Ediel_sol  =         0.00000000
  ---------------------------------------------------
  free energy    TOTEN  =      -915.25561555 eV

  energy without entropy =     -915.25561555  energy(sigma->0) =     -915.25561555


--------------------------------------------------------------------------------------------------------




--------------------------------------- Iteration      1(  15)  ---------------------------------------


    POTLOK:  cpu time    0.1977: real time    0.1994
    SETDIJ:  cpu time    3.2934: real time    3.2957
    EDDIAG:  cpu time    3.7328: real time    3.7406
  RMM-DIIS:  cpu time   13.5555: real time   13.6069
    ORTHCH:  cpu time    1.1524: real time    1.1556
       DOS:  cpu time    0.0010: real time    0.0011
    CHARGE:  cpu time    1.3515: real time    1.3538
    MIXING:  cpu time    0.0006: real time    0.0006
    --------------------------------------------
      LOOP:  cpu time   23.2850: real time   23.3536

 eigenvalue-minimisations  : 18431
 total energy-change (2. order) : 0.1421573E+02  (-0.2326248E+01)
 number of electron     671.9999856 magnetization      47.9999982
 augmentation part      249.7148498 magnetization      33.8248450

 Broyden mixing:
  rms(total) = 0.21883E+01    rms(broyden)= 0.21879E+01
  rms(prec ) = 0.22706E+01
  weight for this iteration     100.00

 eigenvalues of (default mixing * dielectric matrix)
  average eigenvalue GAMMA=   0.9210
  1.6436  0.3805  0.7387

 Free energy of the ion-electron system (eV)
  ---------------------------------------------------
  alpha Z        PSCENC =      2652.81237852
  Ewald energy   TEWEN  =    -41957.21092032
  -Hartree energ DENC   =    -25516.66367021
  -exchange      EXHF   =         0.00000000
  -V(xc)+E(xc)   XCENC  =      3705.91786289
  PAW double counting   =     67285.21092757   -70807.46945878
  entropy T*S    EENTRO =        -0.00000000
  eigenvalues    EBANDS =    -10125.83515010
  atomic energy  EATOM  =     73862.19814772
  Solvation  Ediel_sol  =         0.00000000
  ---------------------------------------------------
  free energy    TOTEN  =      -901.03988271 eV

  energy without entropy =     -901.03988271  energy(sigma->0) =     -901.03988271


--------------------------------------------------------------------------------------------------------




--------------------------------------- Iteration      1(  16)  ---------------------------------------


    POTLOK:  cpu time    0.2026: real time    0.2028
    SETDIJ:  cpu time    3.3284: real time    3.3307
    EDDIAG:  cpu time    3.7207: real time    3.7275
  RMM-DIIS:  cpu time   13.1092: real time   13.1484
    ORTHCH:  cpu time    1.1544: real time    1.1576
       DOS:  cpu time    0.0010: real time    0.0010
    CHARGE:  cpu time    1.3529: real time    1.3550
    MIXING:  cpu time    0.0009: real time    0.0009
    --------------------------------------------
      LOOP:  cpu time   22.8700: real time   22.9239

 eigenvalue-minimisations  : 17518
 total energy-change (2. order) :-0.1457033E+01  (-0.6998542E+00)
 number of electron     671.9999862 magnetization      47.9999981
 augmentation part      251.1123735 magnetization      33.9360346

 Broyden mixing:
  rms(total) = 0.15085E+01    rms(broyden)= 0.15080E+01
  rms(prec ) = 0.15923E+01
  weight for this iteration     100.00

 eigenvalues of (default mixing * dielectric matrix)
  average eigenvalue GAMMA=   0.9589
  2.0482  0.8949  0.3867  0.5058

 Free energy of the ion-electron system (eV)
  ---------------------------------------------------
  alpha Z        PSCENC =      2652.81237852
  Ewald energy   TEWEN  =    -41957.21092032
  -Hartree energ DENC   =    -25467.86155352
  -exchange      EXHF   =         0.00000000
  -V(xc)+E(xc)   XCENC  =      3706.69147073
  PAW double counting   =     70053.29500747   -73603.92544068
  entropy T*S    EENTRO =        -0.00000000
  eigenvalues    EBANDS =    -10148.49600542
  atomic energy  EATOM  =     73862.19814772
  Solvation  Ediel_sol  =         0.00000000
  ---------------------------------------------------
  free energy    TOTEN  =      -902.49691550 eV

  energy without entropy =     -902.49691550  energy(sigma->0) =     -902.49691550


--------------------------------------------------------------------------------------------------------




--------------------------------------- Iteration      1(  17)  ---------------------------------------


    POTLOK:  cpu time    0.2075: real time    0.2078
    SETDIJ:  cpu time    3.3344: real time    3.3367
    EDDIAG:  cpu time    3.7351: real time    3.7413
  RMM-DIIS:  cpu time   13.8820: real time   13.9163
    ORTHCH:  cpu time    1.1472: real time    1.1505
       DOS:  cpu time    0.0010: real time    0.0010
    CHARGE:  cpu time    1.3742: real time    1.3765
    MIXING:  cpu time    0.0014: real time    0.0013
    --------------------------------------------
      LOOP:  cpu time   23.6828: real time   23.7314

 eigenvalue-minimisations  : 18407
 total energy-change (2. order) : 0.1056898E+00  (-0.8184062E-01)
 number of electron     671.9999861 magnetization      47.9999981
 augmentation part      251.1188164 magnetization      33.9401181

 Broyden mixing:
  rms(total) = 0.79603E+00    rms(broyden)= 0.79588E+00
  rms(prec ) = 0.89940E+00
  weight for this iteration     100.00

 eigenvalues of (default mixing * dielectric matrix)
  average eigenvalue GAMMA=   0.9849
  2.2079  1.1109  0.3762  0.6830  0.5467

 Free energy of the ion-electron system (eV)
  ---------------------------------------------------
  alpha Z        PSCENC =      2652.81237852
  Ewald energy   TEWEN  =    -41957.21092032
  -Hartree energ DENC   =    -25457.66897417
  -exchange      EXHF   =         0.00000000
  -V(xc)+E(xc)   XCENC  =      3704.33912652
  PAW double counting   =     70983.03438198   -74542.85786600
  entropy T*S    EENTRO =        -0.00000000
  eigenvalues    EBANDS =    -10147.03749991
  atomic energy  EATOM  =     73862.19814772
  Solvation  Ediel_sol  =         0.00000000
  ---------------------------------------------------
  free energy    TOTEN  =      -902.39122567 eV

  energy without entropy =     -902.39122567  energy(sigma->0) =     -902.39122567


--------------------------------------------------------------------------------------------------------




--------------------------------------- Iteration      1(  18)  ---------------------------------------


    POTLOK:  cpu time    0.1979: real time    0.1990
    SETDIJ:  cpu time    3.3283: real time    3.3306
    EDDIAG:  cpu time    3.7324: real time    3.7526
  RMM-DIIS:  cpu time   13.2629: real time   13.2967
    ORTHCH:  cpu time    1.1625: real time    1.1657
       DOS:  cpu time    0.0014: real time    0.0014
    CHARGE:  cpu time    1.3539: real time    1.3558
    MIXING:  cpu time    0.0009: real time    0.0009
    --------------------------------------------
      LOOP:  cpu time   23.0403: real time   23.1028

 eigenvalue-minimisations  : 17729
 total energy-change (2. order) : 0.4204420E+00  (-0.7202227E-01)
 number of electron     671.9999860 magnetization      47.9999981
 augmentation part      250.6105711 magnetization      33.9068151

 Broyden mixing:
  rms(total) = 0.29271E+00    rms(broyden)= 0.29246E+00
  rms(prec ) = 0.30864E+00
  weight for this iteration     100.00

 eigenvalues of (default mixing * dielectric matrix)
  average eigenvalue GAMMA=   1.0192
  2.4622  1.3635  0.8540  0.3780  0.5822  0.4755

 Free energy of the ion-electron system (eV)
  ---------------------------------------------------
  alpha Z        PSCENC =      2652.81237852
  Ewald energy   TEWEN  =    -41957.21092032
[...]
   4      -0.641    -0.878     1.518     0.047     0.003     0.452
   5      -1.009    -0.936     1.945     0.027     0.051     0.068
   6      -0.758    -0.750     1.508     0.091    -0.402     0.231
   7      -0.644    -0.845     1.489    -0.023     0.004     0.524
   8      -0.742    -0.591     1.334    -0.109    -0.317    -0.286
   9      -0.507    -0.894     1.400     0.043     0.011    -0.346
  10      -0.641    -0.763     1.403     0.132     0.026    -0.037
  11      -0.847    -0.744     1.591    -0.090     0.486     0.222
  12      -0.911    -0.888     1.799    -0.019     0.043    -0.005
  13      -1.032    -0.944     1.977     0.004    -0.076     0.075
  14      -0.828    -0.599     1.427     0.131     0.374    -0.243
  15      -0.808    -0.581     1.388     0.107    -0.476     0.190
  16      -0.961    -0.974     1.935    -0.034     0.045    -0.062
  17       1.469     1.397    -2.866     0.121     0.080    -0.003
  18       1.489     1.480    -2.968    -0.179     0.057     0.046
  19       1.351     1.526    -2.877     0.035    -0.087    -0.106
  20       1.426     1.475    -2.901     0.060    -0.109     0.083
  21       1.246     1.733    -2.979    -0.019    -0.020    -0.056
  22       1.566     1.295    -2.861     0.115     0.162    -0.112
  23       1.357     1.437    -2.794     0.040     0.109     0.097
  24       1.526     1.414    -2.940    -0.033    -0.113    -0.012
  25      -1.730     0.220     1.511     0.073    -0.135    -0.059
  26       0.712    -1.059     0.347    -0.137     1.000    -0.321
  27       0.733     0.600    -1.334     0.192     0.904     0.120
  28       0.290    -1.336     1.046     0.189    -0.749    -0.279
  29      -0.867     0.336     0.530    -0.215    -1.664     0.053
  30       0.049    -0.179     0.130    -0.257     0.183     0.584
  31      -0.077    -1.718     1.796     0.235    -1.078    -0.916
  32      -1.092     0.263     0.829    -0.882    -0.186    -0.279
  33       1.399     0.225    -1.624    -0.348     0.303    -0.367
  34       0.125    -0.060    -0.065     0.999     0.030     0.223
  35      -0.665    -0.784     1.449    -1.895    -0.591    -0.614
  36      -0.450     0.094     0.356     0.191    -0.062     0.565
  37      -1.182    -0.464     1.645    -1.941    -1.341     0.517
  38       1.072    -0.005    -1.067     1.755    -0.225    -1.345
  39      -0.110    -0.381     0.491     0.214    -0.145     0.065
  40      -1.452     0.994     0.457     0.473     1.885    -0.480
  41      -2.409     3.212    -0.803    -5.422     1.874    -4.016
  42      -3.764     2.829     0.935     3.467     3.606     3.889
  43       7.201    -6.514    -0.686    -0.634    -5.131     1.363
  44      -0.881     0.998    -0.117     6.302    -2.433    -3.301
  45      -1.878     0.609     1.269    -5.678    -2.985     3.409
  46       6.119    -6.584     0.465     0.119     3.621    -0.012
  47      -4.545     1.962     2.584    -4.837     3.522    -5.457
  48       4.807    -6.317     1.510    -1.730    -5.072     0.994
  49      -4.364     3.230     1.134     4.905     0.474     4.208
  50       5.242    -6.776     1.534     0.875     4.762    -1.678
  51      -2.978     1.210     1.768    -4.594    -3.080     3.509
  52      -3.801     0.977     2.824     3.963    -3.167    -5.775
  53      -3.318     3.898    -0.580    -5.941     1.337    -4.177
  54      -5.062     3.123     1.939     2.949     3.046     4.398
  55       3.904    -5.709     1.804    -1.399    -4.554     0.130
  56      -2.344     2.443    -0.099     5.730    -2.071    -6.139
  57      -3.267     0.422     2.845    -4.565    -2.248     4.967
  58       5.719    -6.535     0.816    -1.727     5.156     0.999
  59      -2.414     2.449    -0.035    -3.969     2.174    -4.782
  60       4.686    -5.688     1.002     0.235    -4.124     1.264
  61      -2.450     1.182     1.268     5.296     0.302     6.120
  62       4.207    -4.600     0.393     0.158     5.048    -0.018
  63      -4.154     2.567     1.587    -4.926    -1.496     3.279
  64      -2.765     3.186    -0.421     5.641    -1.038    -3.761
  65      -2.930     3.201    -0.271    -4.543     2.368    -4.161
  66      -5.334     1.467     3.867     2.469     0.920     5.547
  67       4.267    -4.412     0.145    -1.069    -5.028    -2.473
  68      -2.532     0.729     1.803     4.481    -1.485    -4.141
  69      -3.419     5.479    -2.061    -4.426    -1.811     3.263
  70       4.322    -6.454     2.132    -0.063     4.305     0.656
  71      -1.768     2.160    -0.392    -4.973     2.741    -2.094
  72       5.159    -6.177     1.017     0.988    -4.020     0.113
  73      -3.791     3.649     0.142     5.039     1.602     4.686
  74       3.041    -5.602     2.561     0.792     5.016     2.365
  75      -3.967     3.832     0.135    -3.672    -2.283     3.539
  76      -1.927     2.620    -0.693     5.886    -3.401    -2.609
  77      -2.765     1.666     1.100    -5.127    -0.121    -4.750
  78      -1.681     1.557     0.124     5.620     1.287     4.038
  79       7.963    -7.234    -0.729     0.883    -4.612    -0.717
  80      -4.125     3.015     1.111     3.466    -3.018    -4.163
  81      -3.326     1.040     2.286    -4.199    -2.409     4.377
  82       6.585    -5.174    -1.412     1.630     4.711     0.544
  83      -2.942     3.570    -0.628    -3.484     2.950    -3.569
  84       4.284    -6.016     1.733     1.101    -5.212    -1.475
  85      -2.055     3.172    -1.117     5.089     3.265     2.329
  86       4.366    -4.125    -0.241     0.916     4.241    -0.790
  87      -2.918     3.413    -0.495    -5.522    -5.027     3.487
  88      -5.322     3.388     1.934     4.423    -3.206    -4.478
 ---------------------------------------------------------------------


 Total hyperfine coupling parameters after diagonalization (MHz)
 (convention: |A_zz| > |A_xx| > |A_yy|)
 ----------------------------------------------------------------------
  ion      A_xx      A_yy      A_zz     asymmetry (A_yy - A_xx)/ A_zz 
 ----------------------------------------------------------------------
   1       1.927     1.617     4.096      -0.076
   2       1.692     1.394     3.957      -0.075
   3       2.365     1.977     4.485      -0.086
   4       1.994     1.661     4.229      -0.079
   5       0.330     0.241     3.207      -0.028
   6       1.890     1.626     4.152      -0.063
   7       1.608     1.291     3.852      -0.082
   8       1.995     1.655     3.950      -0.086
   9       1.607     1.161     3.561      -0.125
  10       0.743     0.451     2.704      -0.108
  11       1.968     1.653     4.362      -0.072
  12       1.074     1.030     3.751      -0.012
  13      -0.476    -0.388     2.538       0.035
  14       1.737     1.309     3.789      -0.113
  15       1.661     1.238     3.700      -0.114
  16      -0.319    -0.252     2.620       0.026
  17      14.031     9.856    14.284      -0.292
  18      15.536    11.260    15.893      -0.269
  19      13.562     9.335    13.753      -0.307
  20      14.891    10.595    15.016      -0.286
  21      14.589    10.363    15.078      -0.280
  22      13.525     9.396    13.877      -0.298
  23      13.369     9.228    13.484      -0.307
  24      12.905     8.557    13.038      -0.334
  25      98.996    97.038   100.296      -0.020
  26      97.173    96.487    99.205      -0.007
  27      94.500    92.312    95.148      -0.023
  28      97.168    95.963    98.885      -0.012
  29     103.245   100.937   104.577      -0.022
  30      93.181    92.255    93.588      -0.010
  31      97.191    95.798   100.235      -0.014
  32      97.565    95.409    97.938      -0.022
  33      98.499    96.618    99.874      -0.019
  34      95.634    94.710    96.767      -0.010
  35      99.538    95.575    99.987      -0.040
  36      96.184    95.794    97.203      -0.004
  37      94.974    91.876    97.522      -0.032
  38      93.248    91.419    96.301      -0.019
  39      95.540    95.034    96.073      -0.005
  40     100.653    96.864   101.251      -0.037
  41       5.702     2.731    17.087      -0.174
  42       2.776    -1.163    12.779      -0.308
  43       6.039     2.169    18.824      -0.206
  44       4.961     0.691    15.419      -0.277
  45       5.326     0.575    15.184      -0.313
  46       5.968     0.684    15.156      -0.349
  47       8.670     4.444    21.727      -0.194
  48       5.442     1.018    16.359      -0.270
  49       8.001     1.872    16.935      -0.362
  50       6.852     0.551    16.454      -0.383
  51       5.562     1.278    15.044      -0.285
  52       3.423     0.950    16.598      -0.149
  53       7.362     2.872    18.838      -0.238
  54       7.458     2.920    17.647      -0.257
  55       4.169    -0.108    13.478      -0.317
  56       6.937     3.289    20.333      -0.179
  57       4.689     0.321    15.381      -0.284
  58       5.192    -0.253    16.019      -0.340
  59       3.946     2.519    15.325      -0.093
  60       3.997    -0.683    12.726      -0.368
  61       4.699    -2.060    14.587      -0.463
  62       1.024    -0.496    11.810      -0.129
  63       5.813    -0.315    13.846      -0.443
  64       7.087     2.532    17.160      -0.265
  65       5.140     2.729    16.371      -0.147
  66       4.354     0.576    15.533      -0.243
  67      -3.235     2.193    10.971       0.495
  68       6.257     1.702    14.843      -0.307
  69      -1.174     0.889    12.752       0.162
  70       7.923     2.558    16.757      -0.320
  71       6.249     2.376    14.826      -0.261
  72       5.267     0.327    14.280      -0.346
  73       4.019     0.089    15.460      -0.254
  74       7.228     2.844    17.305      -0.253
  75       4.338     0.762    13.940      -0.257
  76       5.815     1.575    16.428      -0.258
  77       7.718     0.951    15.723      -0.430
  78       5.462     0.759    14.940      -0.315
  79       6.054     1.429    18.777      -0.246
  80       4.228     0.562    14.490      -0.253
  81       4.566     0.773    14.630      -0.259
  82       4.508     2.681    17.052      -0.107
  83       5.553     2.887    15.538      -0.172
  84       5.034     1.043    15.924      -0.251
  85       5.408     1.546    15.227      -0.254
  86       3.851     1.176    12.866      -0.208
  87       4.099    -1.188    16.064      -0.329
  88       6.728     1.189    17.814      -0.311
 ---------------------------------------------------------------------



--------------------------------------------------------------------------------------------------------


 stress matrix after NEB project (eV)
    -45.95537     -2.02219      3.27536
     -2.00049    -48.92364      4.22143
      3.28708      4.19635    -62.73021
  FORCES: max atom, RMS     2.702006    1.151296
  FORCE total and by dimension   10.800111    2.424742
  Stress total and by dimension   92.225545   62.730205
     LOOP+:  cpu time  587.6104: real time  588.8264
    4ORBIT:  cpu time    0.0000: real time    0.0000
 


 total charge     
 
# of ion       s       p       d       tot
------------------------------------------
    1        0.056   5.999   0.000   6.055
    2        0.049   5.991   0.000   6.039
    3        0.046   5.987   0.000   6.033
    4        0.049   5.990   0.000   6.039
    5        0.051   5.997   0.000   6.048
    6        0.050   5.992   0.000   6.042
    7        0.052   5.995   0.000   6.047
    8        0.044   5.985   0.000   6.029
    9        0.053   5.996   0.000   6.049
   10        0.052   5.996   0.000   6.048
   11        0.051   5.994   0.000   6.045
   12        0.047   5.990   0.000   6.037
   13        0.049   5.992   0.000   6.041
   14        0.052   5.995   0.000   6.047
   15        0.053   5.997   0.000   6.050
   16        0.052   5.996   0.000   6.048
   17        0.147   6.124   0.081   6.352
   18        0.152   6.132   0.087   6.370
   19        0.148   6.127   0.084   6.358
   20        0.147   6.123   0.080   6.349
   21        0.154   6.139   0.093   6.386
   22        0.150   6.129   0.084   6.363
   23        0.143   6.118   0.076   6.337
   24        0.156   6.140   0.093   6.390
   25        0.364   6.428   4.815  11.607
   26        0.388   6.485   4.861  11.734
   27        0.392   6.491   4.865  11.748
   28        0.366   6.437   4.801  11.604
   29        0.368   6.434   4.828  11.630
   30        0.387   6.480   4.848  11.715
   31        0.388   6.483   4.865  11.735
   32        0.377   6.456   4.831  11.663
   33        0.368   6.441   4.817  11.626
   34        0.358   6.420   4.787  11.565
   35        0.368   6.437   4.817  11.622
   36        0.371   6.447   4.820  11.637
   37        0.380   6.460   4.836  11.676
   38        0.389   6.482   4.867  11.739
   39        0.368   6.438   4.809  11.614
   40        0.356   6.414   4.789  11.559
   41        1.599   3.504   0.000   5.103
   42        1.600   3.525   0.000   5.125
   43        1.603   3.471   0.000   5.074
   44        1.601   3.477   0.000   5.078
   45        1.597   3.523   0.000   5.121
   46        1.599   3.519   0.000   5.119
   47        1.605   3.510   0.000   5.115
   48        1.599   3.505   0.000   5.104
   49        1.600   3.548   0.000   5.147
   50        1.600   3.529   0.000   5.129
   51        1.601   3.545   0.000   5.147
   52        1.601   3.475   0.000   5.076
   53        1.601   3.505   0.000   5.106
   54        1.598   3.493   0.000   5.091
   55        1.596   3.492   0.000   5.088
   56        1.603   3.489   0.000   5.092
   57        1.600   3.502   0.000   5.103
   58        1.602   3.517   0.000   5.118
   59        1.600   3.478   0.000   5.078
   60        1.597   3.528   0.000   5.125
   61        1.600   3.509   0.000   5.109
   62        1.597   3.494   0.000   5.091
   63        1.596   3.500   0.000   5.096
   64        1.599   3.501   0.000   5.100
   65        1.600   3.497   0.000   5.097
   66        1.599   3.493   0.000   5.093
   67        1.596   3.468   0.000   5.064
   68        1.595   3.512   0.000   5.107
   69        1.599   3.487   0.000   5.087
   70        1.598   3.517   0.000   5.116
   71        1.594   3.481   0.000   5.075
   72        1.597   3.506   0.000   5.103
   73        1.600   3.497   0.000   5.097
   74        1.599   3.526   0.000   5.126
   75        1.598   3.481   0.000   5.078
   76        1.600   3.502   0.000   5.101
   77        1.601   3.550   0.000   5.150
   78        1.601   3.524   0.000   5.125
   79        1.601   3.505   0.000   5.105
   80        1.597   3.486   0.000   5.083
   81        1.599   3.520   0.000   5.119
   82        1.600   3.463   0.000   5.063
   83        1.598   3.482   0.000   5.080
   84        1.598   3.510   0.000   5.108
   85        1.599   3.488   0.000   5.086
   86        1.599   3.509   0.000   5.108
   87        1.599   3.486   0.000   5.085
   88        1.599   3.509   0.000   5.109
--------------------------------------------------
tot         84.747 416.292  77.930 578.969
 


 magnetization (x)
 
# of ion       s       p       d       tot
------------------------------------------
    1        0.002   0.000   0.000   0.002
    2        0.002   0.000   0.000   0.002
    3        0.002   0.000   0.000   0.003
    4        0.002   0.000   0.000   0.002
    5        0.001   0.001   0.000   0.002
    6        0.002   0.000   0.000   0.002
    7        0.002  -0.000   0.000   0.002
    8        0.002   0.001   0.000   0.002
    9        0.002   0.001   0.000   0.002
   10        0.001   0.001   0.000   0.001
   11        0.002  -0.000   0.000   0.002
   12        0.002   0.001   0.000   0.002
   13        0.000   0.000   0.000   0.001
   14        0.002   0.000   0.000   0.002
   15        0.002   0.000   0.000   0.002
   16        0.000   0.000   0.000   0.001
   17        0.007   0.002   0.001   0.010
   18        0.008   0.003   0.001   0.011
   19        0.007   0.002   0.001   0.010
   20        0.008   0.003   0.001   0.012
   21        0.007   0.003   0.001   0.012
   22        0.007   0.002   0.001   0.010
   23        0.007   0.002   0.001   0.010
   24        0.006   0.002   0.001   0.010
   25        0.015   0.029   2.779   2.823
   26        0.016   0.032   2.724   2.772
   27        0.015   0.032   2.712   2.759
   28        0.015   0.030   2.778   2.823
   29        0.017   0.031   2.772   2.820
   30        0.015   0.030   2.728   2.772
   31        0.016   0.031   2.721   2.769
   32        0.015   0.030   2.750   2.795
   33        0.016   0.030   2.765   2.811
   34        0.015   0.028   2.797   2.840
   35        0.016   0.029   2.786   2.830
   36        0.015   0.030   2.766   2.811
   37        0.015   0.029   2.748   2.792
   38        0.014   0.030   2.715   2.759
   39        0.015   0.029   2.777   2.821
   40        0.016   0.030   2.803   2.849
   41        0.002   0.035   0.000   0.037
   42        0.001   0.012   0.000   0.013
   43        0.002   0.036   0.000   0.039
   44        0.002   0.025   0.000   0.027
   45        0.002   0.036   0.000   0.037
   46        0.002   0.038   0.000   0.040
   47        0.003   0.067   0.000   0.070
   48        0.002   0.038   0.000   0.040
   49        0.002   0.055   0.000   0.057
   50        0.002   0.044   0.000   0.046
   51        0.002   0.042   0.000   0.044
   52        0.002   0.019   0.000   0.021
   53        0.002   0.047   0.000   0.049
   54        0.002   0.048   0.000   0.050
   55        0.002   0.022   0.000   0.024
   56        0.003   0.045   0.000   0.048
   57        0.002   0.026   0.000   0.028
   58        0.002   0.040   0.000   0.041
   59        0.002   0.023   0.000   0.025
   60        0.001   0.030   0.000   0.032
   61        0.002   0.023   0.000   0.025
   62        0.001   0.007   0.000   0.008
   63        0.002   0.026   0.000   0.027
   64        0.002   0.039   0.000   0.041
   65        0.002   0.036   0.000   0.038
   66        0.002   0.030   0.000   0.032
   67        0.001  -0.012   0.000  -0.011
   68        0.002   0.039   0.000   0.041
   69        0.001   0.002   0.000   0.003
   70        0.002   0.048   0.000   0.051
   71        0.002   0.031   0.000   0.033
   72        0.002   0.028   0.000   0.030
   73        0.002   0.022   0.000   0.024
   74        0.002   0.054   0.000   0.056
   75        0.002   0.018   0.000   0.020
   76        0.002   0.039   0.000   0.041
   77        0.002   0.048   0.000   0.050
   78        0.002   0.040   0.000   0.041
   79        0.002   0.048   0.000   0.050
   80        0.002   0.028   0.000   0.030
   81        0.002   0.027   0.000   0.029
   82        0.002   0.017   0.000   0.020
   83        0.002   0.030   0.000   0.032
   84        0.002   0.029   0.000   0.031
   85        0.002   0.024   0.000   0.026
   86        0.002   0.013   0.000   0.014
   87        0.002   0.025   0.000   0.027
   88        0.002   0.041   0.000   0.043
--------------------------------------------------
tot          0.421   2.031  44.132  46.583
 

 total amount of memory used by VASP MPI-rank0    88178. kBytes
=======================================================================

   base      :      30000. kBytes
   nonlr-proj:      13669. kBytes
   fftplans  :        992. kBytes
   grid      :      21513. kBytes
   one-center:       2737. kBytes
   wavefun   :      19267. kBytes
 
  
  
 General timing and accounting informations for this job:
 ========================================================
  
                  Total CPU time used (sec):      606.370
                            User time (sec):      600.877
                          System time (sec):        5.493
                         Elapsed time (sec):      610.397
  
                   Maximum memory used (kb):      181944.
                   Average memory used (kb):           0.
  
                          Minor page faults:       307393
                          Major page faults:            0
                 Voluntary context switches:         3644
