 vasp.5.4.4.18Apr17-6-g9f103f2a35 (build Dec 02 2020 12:53:39) complex          
  
 executed on             LinuxIFC date 2021.08.04  09:12:30
 running on   96 total cores
 distrk:  each k-point on   96 cores,    1 groups
 distr:  one band on NCORES_PER_BAND=   1 cores,   96 groups


--------------------------------------------------------------------------------------------------------


 INCAR:
 POTCAR:    PAW_PBE Na_pv 19Sep2006               
 POTCAR:    PAW_PBE Mg_pv 13Apr2007               
 POTCAR:    PAW_PBE Mn_pv 02Aug2007               
 POTCAR:    PAW_PBE O 08Apr2002                   

 ----------------------------------------------------------------------------- 
|                                                                             |
|           W    W    AA    RRRRR   N    N  II  N    N   GGGG   !!!           |
|           W    W   A  A   R    R  NN   N  II  NN   N  G    G  !!!           |
|           W    W  A    A  R    R  N N  N  II  N N  N  G       !!!           |
|           W WW W  AAAAAA  RRRRR   N  N N  II  N  N N  G  GGG   !            |
|           WW  WW  A    A  R   R   N   NN  II  N   NN  G    G                |
|           W    W  A    A  R    R  N    N  II  N    N   GGGG   !!!           |
|                                                                             |
|      For optimal performance we recommend to set                            |
|        NCORE= 4 - approx SQRT( number of cores)                             |
|      NCORE specifies how many cores store one orbital (NPAR=cpu/NCORE).     |
|      This setting can  greatly improve the performance of VASP for DFT.     |
|      The default,   NCORE=1            might be grossly inefficient         |
|      on modern multi-core architectures or massively parallel machines.     |
|      Do your own testing !!!!                                               |
|      Unfortunately you need to use the default for GW and RPA calculations. |
|      (for HF NCORE is supported but not extensively tested yet)             |
|                                                                             |
 ----------------------------------------------------------------------------- 

 POTCAR:    PAW_PBE Na_pv 19Sep2006               
   VRHFIN =Na: p6s1                                                             
   LEXCH  = PE                                                                  
   EATOM  =   766.0439 eV,   56.3026 Ry                                         
                                                                                
   TITEL  = PAW_PBE Na_pv 19Sep2006                                             
   LULTRA =        F    use ultrasoft PP ?                                      
   IUNSCR =        1    unscreen: 0-lin 1-nonlin 2-no                           
   RPACOR =    1.800    partial core radius                                     
   POMASS =   22.990; ZVAL   =    7.000    mass and valenz                      
   RCORE  =    2.200    outmost cutoff radius                                   
   RWIGS  =    2.200; RWIGS  =    1.164    wigner-seitz radius (au A)           
   ENMAX  =  259.561; ENMIN  =  194.671 eV                                      
   ICORE  =        2    local potential                                         
   LCOR   =        T    correct aug charges                                     
   LPAW   =        T    paw PP                                                  
   EAUG   =  368.056                                                            
   DEXC   =    0.000                                                            
   RMAX   =    2.245    core radius for proj-oper                               
   RAUG   =    1.300    factor for augmentation sphere                          
   RDEP   =    2.259    radius for radial grids                                 
   RDEPT  =    1.738    core radius for aug-charge                              
                                                                                
   Atomic configuration                                                         
    5 entries                                                                   
     n  l   j            E        occ.                                          
     1  0  0.50     -1033.6933   2.0000                                         
     2  0  0.50       -56.7526   2.0000                                         
     2  1  1.50       -28.6721   6.0000                                         
     3  0  0.50        -2.7440   1.0000                                         
     3  2  1.50        -1.3606   0.0000                                         
   Description                                                                  
     l       E           TYP  RCUT    TYP  RCUT                                 
     1    -28.6720912     23  2.000                                             
     1      6.8029130     23  2.000                                             
     0     -2.7439560     23  2.200                                             
     0     34.0145650     23  2.200                                             
     2     -1.3605826     23  2.200                                             
  local pseudopotential read in
  partial core-charges read in
  partial kinetic energy density read in
  atomic valenz-charges read in
  non local Contribution for L=           1  read in
    real space projection operators read in
  non local Contribution for L=           1  read in
    real space projection operators read in
  non local Contribution for L=           0  read in
    real space projection operators read in
  non local Contribution for L=           0  read in
    real space projection operators read in
    PAW grid and wavefunctions read in
 
   number of l-projection  operators is LMAX  =           4
   number of lm-projection operators is LMMAX =           8
 
 POTCAR:    PAW_PBE Mg_pv 13Apr2007               
   VRHFIN =Mg: p6s2                                                             
   LEXCH  = PE                                                                  
   EATOM  =  1056.7344 eV,   77.6678 Ry                                         
                                                                                
   TITEL  = PAW_PBE Mg_pv 13Apr2007                                             
   LULTRA =        F    use ultrasoft PP ?                                      
   IUNSCR =        1    unscreen: 0-lin 1-nonlin 2-no                           
   RPACOR =    1.500    partial core radius                                     
   POMASS =   24.305; ZVAL   =    8.000    mass and valenz                      
   RCORE  =    2.000    outmost cutoff radius                                   
   RWIGS  =    2.000; RWIGS  =    1.058    wigner-seitz radius (au A)           
   ENMAX  =  403.929; ENMIN  =  302.947 eV                                      
   RCLOC  =    1.506    cutoff for local pot                                    
   LCOR   =        T    correct aug charges                                     
   LPAW   =        T    paw PP                                                  
   EAUG   =  758.780                                                            
   DEXC   =    0.000                                                            
   RMAX   =    2.045    core radius for proj-oper                               
   RAUG   =    1.300    factor for augmentation sphere                          
   RDEP   =    2.025    radius for radial grids                                 
   RDEPT  =    1.557    core radius for aug-charge                              
                                                                                
   Atomic configuration                                                         
    5 entries                                                                   
     n  l   j            E        occ.                                          
     1  0  0.50     -1259.6230   2.0000                                         
     2  0  0.50       -79.8442   2.0000                                         
     2  1  1.50       -46.6121   6.0000                                         
     3  0  0.50        -4.7055   2.0000                                         
     3  2  1.50        -1.3606   0.0000                                         
   Description                                                                  
     l       E           TYP  RCUT    TYP  RCUT                                 
     1    -46.6121073     23  1.600                                             
     1      2.7211652     23  1.600                                             
     0     -4.7054661     23  2.000                                             
     0     61.2262170     23  2.000                                             
     2     -1.3605826     23  2.000                                             
  local pseudopotential read in
  partial core-charges read in
  partial kinetic energy density read in
  atomic valenz-charges read in
  non local Contribution for L=           1  read in
    real space projection operators read in
  non local Contribution for L=           1  read in
    real space projection operators read in
  non local Contribution for L=           0  read in
    real space projection operators read in
  non local Contribution for L=           0  read in
    real space projection operators read in
  non local Contribution for L=           2  read in
    real space projection operators read in
    PAW grid and wavefunctions read in
 
   number of l-projection  operators is LMAX  =           5
   number of lm-projection operators is LMMAX =          13
 
 POTCAR:    PAW_PBE Mn_pv 02Aug2007               
   VRHFIN =Mn: 3p4s3d                                                           
   LEXCH  = PE                                                                  
   EATOM  =  2025.2664 eV,  148.8529 Ry                                         
                                                                                
   TITEL  = PAW_PBE Mn_pv 02Aug2007                                             
   LULTRA =        F    use ultrasoft PP ?                                      
   IUNSCR =        1    unscreen: 0-lin 1-nonlin 2-no                           
   RPACOR =    2.080    partial core radius                                     
   POMASS =   54.938; ZVAL   =   13.000    mass and valenz                      
   RCORE  =    2.300    outmost cutoff radius                                   
   RWIGS  =    2.500; RWIGS  =    1.323    wigner-seitz radius (au A)           
   ENMAX  =  269.864; ENMIN  =  202.398 eV                                      
   ICORE  =        3    local potential                                         
   LCOR   =        T    correct aug charges                                     
   LPAW   =        T    paw PP                                                  
   EAUG   =  569.085                                                            
   DEXC   =    0.000                                                            
   RMAX   =    2.343    core radius for proj-oper                               
   RAUG   =    1.300    factor for augmentation sphere                          
   RDEP   =    2.338    radius for radial grids                                 
   RDEPT  =    1.798    core radius for aug-charge                              
                                                                                
   Atomic configuration                                                         
    8 entries                                                                   
     n  l   j            E        occ.                                          
     1  0  0.50     -6424.8287   2.0000                                         
     2  0  0.50      -739.1154   2.0000                                         
     2  1  1.50      -625.3949   6.0000                                         
     3  0  0.50       -81.6100   2.0000                                         
     3  1  1.50       -50.4667   6.0000                                         
     3  2  2.50        -3.3745   6.0000                                         
     4  0  0.50        -4.1331   1.0000                                         
     4  3  2.50        -1.3606   0.0000                                         
   Description                                                                  
     l       E           TYP  RCUT    TYP  RCUT                                 
     1    -50.4666628     23  2.000                                             
     1     -1.3605826     23  2.000                                             
     2     -3.3744729     23  2.300                                             
     2     -4.7350555     23  2.300                                             
     0     -4.1331431     23  2.300                                             
     0      7.6656591     23  2.300                                             
     3      9.5240782     23  2.300                                             
  local pseudopotential read in
  partial core-charges read in
  partial kinetic energy density read in
  atomic valenz-charges read in
  non local Contribution for L=           1  read in
    real space projection operators read in
  non local Contribution for L=           1  read in
    real space projection operators read in
  non local Contribution for L=           2  read in
    real space projection operators read in
  non local Contribution for L=           2  read in
    real space projection operators read in
  non local Contribution for L=           0  read in
    real space projection operators read in
  non local Contribution for L=           0  read in
    real space projection operators read in
    PAW grid and wavefunctions read in
 
   number of l-projection  operators is LMAX  =           6
   number of lm-projection operators is LMMAX =          18
 
 POTCAR:    PAW_PBE O 08Apr2002                   
   VRHFIN =O: s2p4                                                              
   LEXCH  = PE                                                                  
   EATOM  =   432.3788 eV,   31.7789 Ry                                         
                                                                                
   TITEL  = PAW_PBE O 08Apr2002                                                 
   LULTRA =        F    use ultrasoft PP ?                                      
   IUNSCR =        1    unscreen: 0-lin 1-nonlin 2-no                           
   RPACOR =    1.200    partial core radius                                     
   POMASS =   16.000; ZVAL   =    6.000    mass and valenz                      
   RCORE  =    1.520    outmost cutoff radius                                   
   RWIGS  =    1.550; RWIGS  =    0.820    wigner-seitz radius (au A)           
   ENMAX  =  400.000; ENMIN  =  300.000 eV                                      
   ICORE  =        2    local potential                                         
   LCOR   =        T    correct aug charges                                     
   LPAW   =        T    paw PP                                                  
   EAUG   =  605.392                                                            
   DEXC   =    0.000                                                            
   RMAX   =    1.553    core radius for proj-oper                               
   RAUG   =    1.300    factor for augmentation sphere                          
   RDEP   =    1.550    radius for radial grids                                 
   RDEPT  =    1.329    core radius for aug-charge                              
                                                                                
   Atomic configuration                                                         
    4 entries                                                                   
     n  l   j            E        occ.                                          
     1  0  0.50      -514.6923   2.0000                                         
     2  0  0.50       -23.9615   2.0000                                         
     2  1  0.50        -9.0305   4.0000                                         
     3  2  1.50        -9.5241   0.0000                                         
   Description                                                                  
     l       E           TYP  RCUT    TYP  RCUT                                 
     0    -23.9615318     23  1.200                                             
     0     -9.5240782     23  1.200                                             
     1     -9.0304911     23  1.520                                             
     1      8.1634956     23  1.520                                             
     2     -9.5240782      7  1.500                                             
  local pseudopotential read in
  partial core-charges read in
  partial kinetic energy density read in
  kinetic energy density of atom read in
  atomic valenz-charges read in
  non local Contribution for L=           0  read in
    real space projection operators read in
  non local Contribution for L=           0  read in
    real space projection operators read in
  non local Contribution for L=           1  read in
    real space projection operators read in
  non local Contribution for L=           1  read in
    real space projection operators read in
    PAW grid and wavefunctions read in
 
   number of l-projection  operators is LMAX  =           4
   number of lm-projection operators is LMMAX =           8
 
 Optimization of the real space projectors (new method)

 maximal supplied QI-value         = 17.01
 optimisation between [QCUT,QGAM] = [ 10.20, 20.41] = [ 29.16,116.64] Ry 
 Optimized for a Real-space Cutoff    1.30 Angstroem

   l    n(q)    QCUT    max X(q) W(low)/X(q) W(high)/X(q)  e(spline) 
   1      7    10.205     4.940    0.23E-03    0.84E-03    0.11E-06
   1      7    10.205     6.253    0.40E-03    0.13E-02    0.18E-06
   0      8    10.205    37.438    0.23E-03    0.37E-03    0.42E-07
   0      8    10.205     9.606    0.16E-03    0.26E-03    0.31E-07
 Optimization of the real space projectors (new method)

 maximal supplied QI-value         = 18.90
 optimisation between [QCUT,QGAM] = [ 10.20, 20.41] = [ 29.16,116.64] Ry 
 Optimized for a Real-space Cutoff    1.26 Angstroem

   l    n(q)    QCUT    max X(q) W(low)/X(q) W(high)/X(q)  e(spline) 
   1      7    10.205     2.974    0.63E-04    0.14E-03    0.13E-06
   1      7    10.205     4.279    0.11E-03    0.45E-03    0.24E-06
   0      8    10.205    16.381    0.44E-03    0.15E-03    0.55E-07
   0      8    10.205     5.611    0.31E-03    0.11E-03    0.40E-07
   2      7    10.205     4.652    0.50E-03    0.47E-03    0.57E-07
 Optimization of the real space projectors (new method)

 maximal supplied QI-value         = 16.25
 optimisation between [QCUT,QGAM] = [ 10.24, 20.48] = [ 29.35,117.42] Ry 
 Optimized for a Real-space Cutoff    1.34 Angstroem

   l    n(q)    QCUT    max X(q) W(low)/X(q) W(high)/X(q)  e(spline) 
   1      8    10.239     3.658    0.23E-03    0.30E-03    0.98E-07
   1      8    10.239     5.612    0.32E-03    0.65E-03    0.21E-06
   2      7    10.239    55.373    0.42E-03    0.45E-03    0.65E-07
   2      7    10.239    50.863    0.43E-03    0.48E-03    0.67E-07
   0      8    10.239    79.536    0.11E-03    0.21E-03    0.56E-07
   0      8    10.239    38.668    0.96E-04    0.19E-03    0.52E-07
 Optimization of the real space projectors (new method)

 maximal supplied QI-value         = 24.76
 optimisation between [QCUT,QGAM] = [ 10.15, 20.30] = [ 28.85,115.39] Ry 
 Optimized for a Real-space Cutoff    1.38 Angstroem

   l    n(q)    QCUT    max X(q) W(low)/X(q) W(high)/X(q)  e(spline) 
   0      8    10.150    20.381    0.22E-03    0.32E-03    0.29E-06
   0      8    10.150    15.268    0.23E-03    0.35E-03    0.30E-06
   1      8    10.150     5.964    0.46E-03    0.53E-03    0.21E-06
   1      8    10.150     5.382    0.38E-03    0.45E-03    0.19E-06
  PAW_PBE Na_pv 19Sep2006               :
 energy of atom  1       EATOM= -766.0439
 kinetic energy error for atom=    0.0103 (will be added to EATOM!!)
  PAW_PBE Mg_pv 13Apr2007               :
 energy of atom  2       EATOM=-1056.7344
 kinetic energy error for atom=    0.0820 (will be added to EATOM!!)
  PAW_PBE Mn_pv 02Aug2007               :
 energy of atom  3       EATOM=-2025.2664
 kinetic energy error for atom=    0.0284 (will be added to EATOM!!)
  PAW_PBE O 08Apr2002                   :
 energy of atom  4       EATOM= -432.3788
 kinetic energy error for atom=    0.1156 (will be added to EATOM!!)
 
 
 POSCAR: Na Mg Mn  O                             
  positions in cartesian coordinates
  No initial velocities read in

 METAGGA = SCAN     LMAXTAU =  6    LMIXTAU =  F

 exchange correlation table for  LEXCH =        8
   RHO(1)=    0.500       N(1)  =     2000
   RHO(2)=  100.500       N(2)  =     4000

 VTST: version 3.2, (02/03/18)

 CHAIN: initializing optimizer
 
 OPT: Using VASP Dynamics algorithm
 CHAIN: Read ICHAIN            0
 
 POSCAR: Na Mg Mn  O                             
  positions in cartesian coordinates
  No initial velocities read in
 


--------------------------------------------------------------------------------------------------------


 ion  position               nearest neighbor table
   1  0.117  0.138  0.253-  76 2.33  54 2.34  50 2.37  41 2.38  27 2.83  25 2.89
   2  0.924  0.149  0.738-  69 2.28  59 2.30  58 2.32  56 2.36
   3  0.139  0.943  0.768-  73 2.22  47 2.24
   4  0.639  0.447  0.749-  46 2.21  68 2.25
   5  0.082  0.808  0.254-  67 2.30  86 2.35
   6  0.777  0.111  0.239-  53 2.28  79 2.32
   7  0.584  0.123  0.744-  46 2.31  49 2.34  81 2.37  31 2.83  29 2.96
   8  0.071  0.536  0.743-  60 2.10  57 2.15  37 2.97  39 2.98
   9  0.503  0.293  0.257-  51 2.24  43 2.29  26 2.90
  10  0.940  0.465  0.248-  66 2.24  64 2.28
  11  0.641  0.660  0.255-  65 2.16  74 2.22  33 2.83  35 2.93
  12  0.758  0.793  0.744-  82 2.22  68 2.32
  13  0.429  0.749  0.747-  83 2.30  82 2.37
  14  0.278  0.312  0.746-  45 2.34  61 2.37
  15  0.429  0.957  0.247-  42 2.29  77 2.34  86 2.36
  16  0.284  0.585  0.237-  78 2.22  87 2.34  64 2.35
  17  0.785  0.444  0.002-  60 1.96  53 1.99  49 2.01  43 2.04  66 2.08  71 2.15  30 2.75  37 2.82
                            29 2.82
  18  0.433  0.296  0.509-  46 2.00  44 2.01  51 2.08  50 2.11  52 2.11  45 2.12  31 2.79
  19  0.276  0.439  0.999-  55 2.00  41 2.02  61 2.06  78 2.06  48 2.08  83 2.11  25 2.84
  20  0.923  0.299  0.501-  62 1.97  56 1.98  58 2.01  57 2.03  63 2.11  64 2.18  28 2.82  40 2.85

  21  0.283  0.954  0.005-  47 1.97  42 1.97  77 2.04  84 2.06  73 2.08  67 2.12  26 2.81  25 2.85

  22  0.929  0.803  0.502-  70 2.01  76 2.06  74 2.07  75 2.08  69 2.13  68 2.14  36 2.84  40 2.84

  23  0.781  0.940  0.016-  65 1.99  72 2.03  85 2.04  54 2.05  79 2.06  59 2.21  34 2.84  38 2.85

  24  0.444  0.805  0.497-  80 1.95  88 1.96  81 2.04  82 2.05  87 2.10  86 2.22  40 2.82  35 2.82

  25  0.113  0.112  0.996-  67 1.85  41 1.91  72 1.93  61 1.94  47 1.96  54 1.97  19 2.84  21 2.85
                            34 2.86   1 2.89  26 2.90  30 2.99
  26  0.448  0.278  0.002-  48 1.87  43 1.87  41 1.88  42 1.92  47 1.95  49 1.95  21 2.81  29 2.82
                            33 2.87  25 2.90   9 2.90
  27  0.100  0.141  0.505-  63 1.87  76 1.89  44 1.90  69 1.91  50 1.93  58 1.98  32 2.83   1 2.83
                            40 2.87  36 2.89
  28  0.769  0.469  0.492-  75 1.84  52 1.89  57 1.90  62 1.99  68 2.04  46 2.07  20 2.82  39 2.87
                            31 2.90  35 2.93
  29  0.613  0.118  0.006-  53 1.84  49 1.89  42 1.89  84 1.93  79 1.96  59 2.01  30 2.78  26 2.82
                            17 2.82  38 2.91   7 2.96
  30  0.933  0.276  0.994-  59 1.82  55 1.90  53 1.92  60 1.95  54 1.97  61 2.01  17 2.75  29 2.78
                            37 2.88  25 2.99
  31  0.593  0.135  0.491-  88 1.91  62 1.91  51 1.93  46 1.94  81 1.95  56 1.96  18 2.79   7 2.83
                            28 2.90  36 2.92  40 2.95
  32  0.263  0.466  0.495-  50 1.84  87 1.91  45 1.92  58 1.96  64 2.00  80 2.02  27 2.83  35 2.88
                            39 2.93
  33  0.613  0.609  0.006-  65 1.87  85 1.89  43 1.90  78 1.91  71 1.92  48 1.99  11 2.83  26 2.87
                            38 2.90  34 2.92
  34  0.949  0.782  0.994-  73 1.89  71 1.90  67 1.92  72 1.98  65 1.99  66 2.04  23 2.84  25 2.86
                            37 2.92  33 2.92
  35  0.594  0.630  0.513-  45 1.83  68 1.88  82 1.93  52 1.94  87 1.95  74 1.99  24 2.82  32 2.88
                            28 2.93  11 2.93  40 2.96
  36  0.256  0.965  0.502-  70 1.82  81 1.89  76 1.89  44 1.93  51 1.93  86 1.97  39 2.81  22 2.84
                            27 2.89  31 2.92
  37  0.110  0.608  0.002-  55 1.86  66 1.88  83 1.92  60 1.96  73 1.98  77 2.03  17 2.82  30 2.88
                            34 2.92   8 2.97  38 2.98
  38  0.453  0.783  0.016-  79 1.82  77 1.91  83 1.96  85 1.97  78 1.98  84 2.01  23 2.85  33 2.90
                            29 2.91  37 2.98
  39  0.099  0.641  0.491-  70 1.84  57 1.89  80 1.90  86 1.91  75 1.94  64 1.98  36 2.81  28 2.87
                            32 2.93   8 2.98
  40  0.769  0.971  0.498-  74 1.83  56 1.86  63 1.89  82 1.93  69 1.97  88 2.00  24 2.82  22 2.84
                            20 2.85  27 2.87  31 2.95  35 2.96
  41  0.280  0.265  0.088-  26 1.88  25 1.91  19 2.02   1 2.38
  42  0.454  0.121  0.095-  29 1.89  26 1.92  21 1.97  15 2.29
  43  0.604  0.441  0.089-  26 1.87  33 1.90  17 2.04   9 2.29
  44  0.253  0.125  0.594-  27 1.90  36 1.93  18 2.01
  45  0.426  0.482  0.594-  35 1.83  32 1.92  18 2.12  14 2.34
  46  0.605  0.293  0.597-  31 1.94  18 2.00  28 2.07   4 2.21   7 2.31
  47  0.284  0.117  0.906-  26 1.95  25 1.96  21 1.97   3 2.24
  48  0.456  0.436  0.909-  26 1.87  33 1.99  19 2.08
  49  0.611  0.273  0.911-  29 1.89  26 1.95  17 2.01   7 2.34
  50  0.258  0.306  0.412-  32 1.84  27 1.93  18 2.11   1 2.37
  51  0.419  0.119  0.404-  31 1.93  36 1.93  18 2.08   9 2.24
  52  0.610  0.481  0.412-  28 1.89  35 1.94  18 2.11
  53  0.773  0.268  0.093-  29 1.84  30 1.92  17 1.99   6 2.28
  54  0.961  0.130  0.095-  25 1.97  30 1.97  23 2.05   1 2.34
  55  0.098  0.438  0.080-  37 1.86  30 1.90  19 2.00
  56  0.752  0.121  0.583-  40 1.86  31 1.96  20 1.98   2 2.36
  57  0.937  0.487  0.582-  39 1.89  28 1.90  20 2.03   8 2.15
  58  0.099  0.310  0.596-  32 1.96  27 1.98  20 2.01   2 2.32
  59  0.782  0.123  0.906-  30 1.82  29 2.01  23 2.21   2 2.30
  60  0.949  0.449  0.903-  30 1.95  37 1.96  17 1.96   8 2.10
  61  0.100  0.266  0.901-  25 1.94  30 2.01  19 2.06  14 2.37
  62  0.758  0.293  0.402-  31 1.91  20 1.97  28 1.99
  63  0.938  0.122  0.410-  27 1.87  40 1.89  20 2.11
  64  0.105  0.479  0.394-  39 1.98  32 2.00  20 2.18  10 2.28  16 2.35
  65  0.776  0.760  0.096-  33 1.87  23 1.99  34 1.99  11 2.16
  66  0.963  0.622  0.097-  37 1.88  34 2.04  17 2.08  10 2.24
  67  0.093  0.952  0.091-  25 1.85  34 1.92  21 2.12   5 2.30
  68  0.748  0.621  0.601-  35 1.88  28 2.04  22 2.14   4 2.25  12 2.32
  69  0.937  0.989  0.600-  27 1.91  40 1.97  22 2.13   2 2.28
  70  0.107  0.798  0.580-  36 1.82  39 1.84  22 2.01
  71  0.778  0.627  0.908-  34 1.90  33 1.92  17 2.15
  72  0.946  0.951  0.906-  25 1.93  34 1.98  23 2.03
  73  0.107  0.774  0.908-  34 1.89  37 1.98  21 2.08   3 2.22
  74  0.748  0.805  0.414-  40 1.83  35 1.99  22 2.07  11 2.22
  75  0.923  0.624  0.405-  28 1.84  39 1.94  22 2.08
  76  0.107  0.986  0.414-  36 1.89  27 1.89  22 2.06   1 2.33
  77  0.284  0.780  0.098-  38 1.91  37 2.03  21 2.04  15 2.34
  78  0.453  0.609  0.098-  33 1.91  38 1.98  19 2.06  16 2.22
  79  0.601  0.947  0.099-  38 1.82  29 1.96  23 2.06   6 2.32
  80  0.262  0.644  0.579-  39 1.90  24 1.95  32 2.02
  81  0.425  0.973  0.584-  36 1.89  31 1.95  24 2.04   7 2.37
  82  0.617  0.808  0.598-  40 1.93  35 1.93  24 2.05  12 2.22  13 2.37
  83  0.286  0.632  0.916-  37 1.92  38 1.96  19 2.11  13 2.30
  84  0.459  0.950  0.912-  29 1.93  38 2.01  21 2.06
  85  0.608  0.768  0.919-  33 1.89  38 1.97  23 2.04
  86  0.254  0.805  0.397-  39 1.91  36 1.97  24 2.22   5 2.35  15 2.36
  87  0.434  0.618  0.406-  32 1.91  35 1.95  24 2.10  16 2.34
  88  0.603  0.977  0.404-  31 1.91  24 1.96  40 2.00
 
  LATTYP: Found a hexagonal cell.
 ALAT       =    10.0190000534
 C/A-ratio  =     1.1196726572
  
  Lattice vectors:
  
 A1 = (  10.0190000534,   0.0000000000,   0.0000000000)
 A2 = (  -5.0095000267,   8.6767085668,   0.0000000000)
 A3 = (   0.0000000000,   0.0000000000,  11.2180004120)


Analysis of symmetry for initial positions (statically):
=====================================================================
 Subroutine PRICEL returns:
 Original cell was already a primitive cell.
 

 Routine SETGRP: Setting up the symmetry group for a 
 hexagonal supercell.


 Subroutine GETGRP returns: Found  1 space group operations
 (whereof  1 operations were pure point group operations)
 out of a pool of 24 trial point group operations.


The static configuration has the point symmetry C_1 .


Analysis of symmetry for dynamics (positions and initial velocities):
=====================================================================
 Subroutine PRICEL returns:
 Original cell was already a primitive cell.
 

 Routine SETGRP: Setting up the symmetry group for a 
 hexagonal supercell.


 Subroutine GETGRP returns: Found  1 space group operations
 (whereof  1 operations were pure point group operations)
 out of a pool of 24 trial point group operations.


The dynamic configuration has the point symmetry C_1 .


Analysis of structural, dynamic, and magnetic symmetry:
=====================================================================
 Subroutine PRICEL returns:
 Original cell was already a primitive cell.
 

 Routine SETGRP: Setting up the symmetry group for a 
 hexagonal supercell.


 Subroutine GETGRP returns: Found  1 space group operations
 (whereof  1 operations were pure point group operations)
 out of a pool of 24 trial point group operations.


The magnetic configuration has the point symmetry C_1 .


 Subroutine INISYM returns: Found  1 space group operations
 (whereof  1 operations are pure point group operations),
 and found     1 'primitive' translations

 
 

Automatic generation of k-mesh.
 generate k-points for:    2    2    2
Space group operators:
 irot       det(A)        alpha          n_x          n_y          n_z        tau_x        tau_y        tau_z
    1     1.000000     0.000000     1.000000     0.000000     0.000000     0.000000     0.000000     0.000000
 
 Subroutine IBZKPT returns following result:
 ===========================================
 
 Found      8 irreducible k-points:
 
 Following reciprocal coordinates:
            Coordinates               Weight
  0.000000  0.000000  0.000000      1.000000
  0.500000 -0.000000 -0.000000      1.000000
  0.000000  0.500000  0.000000      1.000000
  0.500000  0.500000 -0.000000      1.000000
  0.000000  0.000000  0.500000      1.000000
  0.500000 -0.000000  0.500000      1.000000
  0.000000  0.500000  0.500000      1.000000
  0.500000  0.500000  0.500000      1.000000
 
 Following cartesian coordinates:
            Coordinates               Weight
  0.000000  0.000000  0.000000      1.000000
  0.049905  0.028813 -0.000000      1.000000
  0.000000  0.057626  0.000000      1.000000
  0.049905  0.086438 -0.000000      1.000000
  0.000000  0.000000  0.044571      1.000000
  0.049905  0.028813  0.044571      1.000000
  0.000000  0.057626  0.044571      1.000000
  0.049905  0.086438  0.044571      1.000000
 


--------------------------------------------------------------------------------------------------------




 Dimension of arrays:
   k-points           NKPTS =      8   k-points in BZ     NKDIM =      8   number of bands    NBANDS=    480
   number of dos      NEDOS =    301   number of ions     NIONS =     88
   non local maximal  LDIM  =      6   non local SUM 2l+1 LMDIM =     18
   total plane-waves  NPLWV = 140000
   max r-space proj   IRMAX =   1632   max aug-charges    IRDMAX=   4555
   dimension x,y,z NGX =    50 NGY =   50 NGZ =   56
   dimension x,y,z NGXF=   100 NGYF=  100 NGZF=  112
   support grid    NGXF=   100 NGYF=  100 NGZF=  112
   ions per type =              16   8  16  48
   NGX,Y,Z   is equivalent  to a cutoff of   8.30,  8.30,  8.30 a.u.
   NGXF,Y,Z  is equivalent  to a cutoff of  16.59, 16.59, 16.60 a.u.

 SYSTEM =  unknown system                          
 POSCAR =  Na Mg Mn  O                             

 Startparameter for this run:
   NWRITE =      2    write-flag & timer
   PREC   = normal    normal or accurate (medium, high low for compatibility)
   ISTART =      0    job   : 0-new  1-cont  2-samecut
   ICHARG =      1    charge: 1-file 2-atom 10-const
   ISPIN  =      2    spin polarized calculation?
   LNONCOLLINEAR =      F non collinear calculations
   LSORBIT =      F    spin-orbit coupling
   INIWAV =      1    electr: 0-lowe 1-rand  2-diag
   LASPH  =      T    aspherical Exc in radial PAW
   METAGGA=      F    non-selfconsistent MetaGGA calc.

 Electronic Relaxation 1
   ENCUT  =  400.0 eV  29.40 Ry    5.42 a.u.  16.34 16.34 18.29*2*pi/ulx,y,z
   ENINI  =  400.0     initial cutoff
   ENAUG  =  758.8 eV  augmentation charge cutoff
   NELM   =    200;   NELMIN=  6; NELMDL=-12     # of ELM steps 
   EDIFF  = 0.1E-04   stopping-criterion for ELM
   LREAL  =      T    real-space projection
   NLSPLINE    = F    spline interpolate recip. space projectors
   LCOMPAT=      F    compatible to vasp.4.4
   GGA_COMPAT  = T    GGA compatible to vasp.4.4-vasp.4.6
   LMAXPAW     = -100 max onsite density
   LMAXMIX     =    4 max onsite mixed and CHGCAR
   VOSKOWN=      0    Vosko Wilk Nusair interpolation
   ROPT   =   -0.00050  -0.00050  -0.00050  -0.00050
 Ionic relaxation
   EDIFFG = 0.1E-03   stopping-criterion for IOM
   NSW    =      1    number of steps for IOM
   NBLOCK =      1;   KBLOCK =      1    inner block; outer block 
   IBRION =     -1    ionic relax: 0-MD 1-quasi-New 2-CG
   NFREE  =      0    steps in history (QN), initial steepest desc. (CG)
   ISIF   =      2    stress and relaxation
   IWAVPR =     10    prediction:  0-non 1-charg 2-wave 3-comb
   ISYM   =      2    0-nonsym 1-usesym 2-fastsym
   LCORR  =      T    Harris-Foulkes like correction to forces

   POTIM  = 0.5000    time-step for ionic-motion
   TEIN   =    0.0    initial temperature
   TEBEG  =    0.0;   TEEND  =   0.0 temperature during run
   SMASS  =  -3.00    Nose mass-parameter (am)
   estimated Nose-frequenzy (Omega)   =  0.10E-29 period in steps =****** mass=  -0.229E-26a.u.
   SCALEE = 1.0000    scale energy and forces
   NPACO  =    256;   APACO  = 16.0  distance and # of slots for P.C.
   PSTRESS=    0.0 pullay stress

  Mass of Ions in am
   POMASS =  22.99 24.30 54.94 16.00
  Ionic Valenz
   ZVAL   =   7.00  8.00 13.00  6.00
  Atomic Wigner-Seitz radii
   RWIGS  =  -1.00 -1.00 -1.00 -1.00
  virtual crystal weights 
   VCA    =   1.00  1.00  1.00  1.00
   NELECT =     672.0000    total number of electrons
   NUPDOWN=      48.0000    fix difference up-down

 DOS related values:
   EMIN   =  10.00;   EMAX   =-10.00  energy-range for DOS
   EFERMI =   0.00
   ISMEAR =     0;   SIGMA  =   0.05  broadening in eV -4-tet -1-fermi 0-gaus

 Electronic relaxation 2 (details)
   IALGO  =     48    algorithm
   LDIAG  =      T    sub-space diagonalisation (order eigenvalues)
   LSUBROT=      F    optimize rotation matrix (better conditioning)
   TURBO    =      0    0=normal 1=particle mesh
   IRESTART =      0    0=no restart 2=restart with 2 vectors
   NREBOOT  =      0    no. of reboots
   NMIN     =      0    reboot dimension
   EREF     =   0.00    reference energy to select bands
   IMIX   =      4    mixing-type and parameters
     AMIX     =   0.40;   BMIX     =  1.00
     AMIX_MAG =   1.60;   BMIX_MAG =  1.00
     AMIN     =   0.10
     WC   =   100.;   INIMIX=   1;  MIXPRE=   1;  MAXMIX= -45

 Intra band minimization:
   WEIMIN = 0.0000     energy-eigenvalue tresh-hold
   EBREAK =  0.52E-08  absolut break condition
   DEPER  =   0.30     relativ break condition  

   TIME   =   0.40     timestep for ELM

  volume/ion in A,a.u.               =      11.08        74.78
  Fermi-wavevector in a.u.,A,eV,Ry     =   1.445993  2.732531 28.448379  2.090897
  Thomas-Fermi vector in A             =   2.564112
 
 Write flags
   LWAVE        =      F    write WAVECAR
   LDOWNSAMPLE  =      F    k-point downsampling of WAVECAR
   LCHARG       =      F    write CHGCAR
   LVTOT        =      F    write LOCPOT, total local potential
   LVHAR        =      F    write LOCPOT, Hartree potential only
   LELF         =      F    write electronic localiz. function (ELF)
   LORBIT       =     11    0 simple, 1 ext, 2 COOP (PROOUT), +10 PAW based schemes


 Dipole corrections
   LMONO  =      F    monopole corrections only (constant potential shift)
   LDIPOL =      F    correct potential (dipole corrections)
   IDIPOL =      0    1-x, 2-y, 3-z, 4-all directions 
   EPSILON=  1.0000000 bulk dielectric constant

 Exchange correlation treatment:
   GGA     =    --    GGA type
   LEXCH   =     8    internal setting for exchange type
   VOSKOWN=      0    Vosko Wilk Nusair interpolation
   LHFCALC =     F    Hartree Fock is set to
   LHFONE  =     F    Hartree Fock one center treatment
   AEXX    =    0.0000 exact exchange contribution

 Linear response parameters
   LEPSILON=     F    determine dielectric tensor
   LRPA    =     F    only Hartree local field effects (RPA)
   LNABLA  =     F    use nabla operator in PAW spheres
   LVEL    =     F    velocity operator in full k-point grid
   LINTERFAST=   F  fast interpolation
   KINTER  =     0    interpolate to denser k-point grid
   CSHIFT  =0.1000    complex shift for real part using Kramers Kronig
   OMEGAMAX=  -1.0    maximum frequency
   DEG_THRESHOLD= 0.2000000E-02 threshold for treating states as degnerate
   RTIME   =   -0.100 relaxation time in fs
  (WPLASMAI=    0.000 imaginary part of plasma frequency in eV, 0.658/RTIME)
   DFIELD  = 0.0000000 0.0000000 0.0000000 field for delta impulse in time
 
 Orbital magnetization related:
   ORBITALMAG=     F  switch on orbital magnetization
   LCHIMAG   =     F  perturbation theory with respect to B field
   DQ        =  0.001000  dq finite difference perturbation B field
   LLRAUG    =     F  two centre corrections for induced B field



--------------------------------------------------------------------------------------------------------


 Static calculation
 charge density and potential will be updated during run
 spin polarized calculation
 RMM-DIIS sequential band-by-band
 perform sub-space diagonalisation
    before iterative eigenvector-optimisation
 modified Broyden-mixing scheme, WC =      100.0
 initial mixing is a Kerker type mixing with AMIX =  0.4000 and BMIX =      1.0000
 Hartree-type preconditioning will be used
 using additional bands          144
 real space projection scheme for non local part
 use partial core corrections
 calculate Harris-corrections to forces 
   (improved forces if not selfconsistent)
 use gradient corrections 
 use of overlap-Matrix (Vanderbilt PP)
 Gauss-broadening in eV      SIGMA  =   0.05


--------------------------------------------------------------------------------------------------------


  energy-cutoff  :      400.00
  volume of cell :      975.20
      direct lattice vectors                 reciprocal lattice vectors
    10.019000053  0.000000000  0.000000000     0.099810360  0.057625538 -0.000000000
    -5.009500027  8.676708567  0.000000000     0.000000000  0.115251076  0.000000000
     0.000000000  0.000000000 11.218000412     0.000000000  0.000000000  0.089142446

  length of vectors
    10.019000053 10.019000053 11.218000412     0.115251076  0.115251076  0.089142446


 
 k-points in units of 2pi/SCALE and weight: read from INCAR                         
   0.00000000  0.00000000  0.00000000       0.125
   0.04990518  0.02881277 -0.00000000       0.125
   0.00000000  0.05762554  0.00000000       0.125
   0.04990518  0.08643831 -0.00000000       0.125
   0.00000000  0.00000000  0.04457122       0.125
   0.04990518  0.02881277  0.04457122       0.125
   0.00000000  0.05762554  0.04457122       0.125
   0.04990518  0.08643831  0.04457122       0.125
 
 k-points in reciprocal lattice and weights: read from INCAR                         
   0.00000000  0.00000000  0.00000000       0.125
   0.50000000 -0.00000000 -0.00000000       0.125
   0.00000000  0.50000000  0.00000000       0.125
   0.50000000  0.50000000 -0.00000000       0.125
   0.00000000  0.00000000  0.50000000       0.125
   0.50000000 -0.00000000  0.50000000       0.125
   0.00000000  0.50000000  0.50000000       0.125
   0.50000000  0.50000000  0.50000000       0.125
 
 position of ions in fractional coordinates (direct lattice) 
   0.11713378  0.13846955  0.25311552
   0.92394461  0.14933642  0.73817077
   0.13896168  0.94343489  0.76796218
   0.63887629  0.44693116  0.74947403
   0.08242807  0.80833351  0.25431092
   0.77710127  0.11058143  0.23895792
   0.58399923  0.12286424  0.74356032
   0.07086731  0.53628499  0.74280083
   0.50288700  0.29314802  0.25694597
   0.94026319  0.46461660  0.24780709
   0.64066756  0.65997574  0.25455784
   0.75843113  0.79273807  0.74444640
   0.42871254  0.74885144  0.74735155
   0.27809136  0.31198664  0.74550452
   0.42891118  0.95715360  0.24653413
   0.28442782  0.58491666  0.23689338
   0.78498549  0.44371088  0.00219853
   0.43309092  0.29620679  0.50856390
   0.27594291  0.43867671  0.99893025
   0.92343527  0.29923905  0.50122302
   0.28332302  0.95397811  0.00451951
   0.92920535  0.80324353  0.50221428
   0.78072788  0.94000852  0.01639365
   0.44405075  0.80491236  0.49736137
   0.11335820  0.11175683  0.99609922
   0.44764934  0.27837284  0.00200135
   0.09990980  0.14098318  0.50525225
   0.76859914  0.46866850  0.49237919
   0.61284747  0.11840221  0.00574973
   0.93334011  0.27601250  0.99404525
   0.59269524  0.13472275  0.49132642
   0.26270937  0.46639229  0.49502851
   0.61294645  0.60943617  0.00562001
   0.94903931  0.78246030  0.99449492
   0.59357904  0.62994279  0.51295327
   0.25615389  0.96450860  0.50175787
   0.11021202  0.60783994  0.00191024
   0.45265963  0.78341228  0.01630513
   0.09949099  0.64101611  0.49068103
   0.76882905  0.97056158  0.49848099
   0.28035440  0.26512242  0.08750160
   0.45389355  0.12085228  0.09484935
   0.60417821  0.44068900  0.08901034
   0.25287523  0.12512365  0.59433587
   0.42629850  0.48189932  0.59411390
   0.60481719  0.29345114  0.59691208
   0.28369751  0.11682310  0.90624885
   0.45553988  0.43628986  0.90860221
   0.61119124  0.27332369  0.91076837
   0.25760029  0.30620367  0.41182384
   0.41930829  0.11861657  0.40388570
   0.60977289  0.48125853  0.41202263
   0.77290232  0.26757727  0.09344892
   0.96057718  0.12984186  0.09461044
   0.09778805  0.43821110  0.07952291
   0.75160134  0.12055971  0.58334995
   0.93734875  0.48673065  0.58184434
   0.09866090  0.31031352  0.59572827
   0.78169358  0.12304781  0.90639148
   0.94857214  0.44880613  0.90257618
   0.10034134  0.26643974  0.90147082
   0.75804382  0.29320911  0.40163129
   0.93768757  0.12188279  0.41045818
   0.10536513  0.47923011  0.39391958
   0.77617899  0.76040470  0.09592708
   0.96326771  0.62236734  0.09730165
   0.09343233  0.95154977  0.09086646
   0.74773435  0.62052908  0.60118557
   0.93688079  0.98861336  0.60028791
   0.10683693  0.79814136  0.58010338
   0.77844431  0.62729086  0.90804062
   0.94605622  0.95141377  0.90594577
   0.10729921  0.77440079  0.90820999
   0.74804824  0.80468417  0.41442056
   0.92317729  0.62411685  0.40459171
   0.10720788  0.98574822  0.41384202
   0.28362016  0.77959285  0.09751114
   0.45252333  0.60861788  0.09791406
   0.60071244  0.94722785  0.09866019
   0.26228375  0.64412674  0.57906666
   0.42481977  0.97340598  0.58376179
   0.61712572  0.80830075  0.59795148
   0.28635580  0.63203229  0.91551967
   0.45889080  0.94996045  0.91232837
   0.60791133  0.76842272  0.91855051
   0.25361018  0.80530998  0.39655285
   0.43421588  0.61752449  0.40587002
   0.60259458  0.97656155  0.40425565
 
 position of ions in cartesian coordinates  (Angst):
   0.47990008  1.20145997  2.83945000
   8.50890027  1.29574860  8.28080000
  -3.33388003  8.18590957  8.61500000
   4.16199992  3.87789143  8.40760000
  -3.22349992  7.01367430  2.85286000
   7.23182000  0.95948287  2.68063000
   5.23559997  1.06605717  8.34126000
  -1.97650013  4.65318857  8.33274000
   3.56989981  2.54355997  2.88242000
   7.09300013  4.03134283  2.77990000
   3.11269989  5.72641713  2.85563000
   3.62750013  6.87835717  8.35120000
   0.54389968  6.49756573  8.38379000
   1.22330032  2.70701713  8.36307000
  -0.49759987  8.30494283  2.76562000
  -0.08045770  5.07515140  2.65747000
   5.64200000  3.84995000  0.02466310
   2.85529000  2.57010000  5.70507000
   0.56712100  3.80627000 11.20600000
   7.75286000  2.59641000  5.62272000
  -1.94034000  8.27739000  0.05069990
   5.28586000  6.96951000  5.63384000
   3.11314000  8.15618000  0.18390400
   0.41673600  6.98399000  5.57940000
   0.57588997  0.96968143 11.17424151
   3.09049000  2.41536000  0.02245110
   0.29474100  1.22327000  5.66792000
   5.35280000  4.06650000  5.52351000
   5.54698303  1.02734143  0.06450050
   7.96845000  2.39488000 11.15120000
   5.26332000  1.16895000  5.51170000
   0.29569300  4.04675000  5.55323000
   3.08814000  5.28790000  0.06304530
   5.58869000  6.78918000 11.15624441
   2.79137000  5.46583000  5.75431000
  -2.26530000  8.36876000  5.62872000
  -1.94076000  5.27405000  0.02142910
   0.61069300  6.79744000  0.18291100
  -2.21437000  5.56191000  5.50446000
   2.84087000  8.42128000  5.59196000
   1.48074000  2.30039000  0.98159300
   3.94215000  1.04860000  1.06402000
   3.84563000  3.82373000  0.99851800
   1.90675003  1.08566143  6.66726000
   1.85701000  4.18130000  6.66477000
   4.58962000  2.54619000  6.69616000
   2.25714000  1.01364000 10.16630000
   2.37846000  3.78556000 10.19270000
   4.75431000  2.37155000 10.21700000
   1.04697000  2.65684000  4.61984000
   3.60684003  1.02920143  4.53079000
   3.69845000  4.17574000  4.62207000
   6.40328000  2.32169000  1.04831000
   8.97358000  1.12660000  1.06134000
  -1.21548005  3.80223000  0.89208800
   6.92635003  1.04606143  6.54402000
   6.95302000  4.22322000  6.52713000
  -0.56603200  2.69250000  6.68288000
   7.21538000  1.06765000 10.16790000
   7.25545000  3.89416000 10.12510000
  -0.32941005  2.31182000 10.11270000
   6.12601000  2.54409000  4.50550000
   8.78412003  1.05754143  4.60452000
  -1.34505000  4.15814000  4.41899000
   3.96729000  6.59781000  1.07611000
   6.53323000  5.40010000  1.09153000
  -3.83069005  8.25632000  1.01934000
   4.38301000  5.38415000  6.74410000
   4.43415000  8.57791000  6.73403000
  -2.92789000  6.92524000  6.50760000
   4.65682000  5.44282000 10.18640000
   4.71243000  8.25514000 10.16290000
  -2.80433005  6.71925000 10.18830000
   3.46363000  6.98201000  4.64897000
   6.12280000  5.41528000  4.53871000
  -3.86399000  8.55305000  4.64248000
  -1.06378000  6.76430000  1.09388000
   1.48496000  5.28080000  1.09840000
   1.27340000  8.21882000  1.10677000
  -0.59893200  5.58890000  6.49597000
  -0.62000800  8.44596000  6.54864000
   2.13380000  7.01339000  6.70782000
  -0.29716700  5.48396000 10.27030000
  -0.16120000  8.24253000 10.23450000
   2.24125000  6.66738000 10.30430000
  -1.49328000  6.98744000  4.44853000
   1.25692000  5.35808000  4.55305000
   1.14531000  8.47334000  4.53494000
 


--------------------------------------------------------------------------------------------------------


 k-point  1 :   0.0000 0.0000 0.0000  plane waves:   17725
 k-point  2 :   0.5000-0.0000-0.0000  plane waves:   17736
 k-point  3 :   0.0000 0.5000 0.0000  plane waves:   17736
 k-point  4 :   0.5000 0.5000-0.0000  plane waves:   17736
 k-point  5 :   0.0000 0.0000 0.5000  plane waves:   17676
 k-point  6 :   0.5000-0.0000 0.5000  plane waves:   17700
 k-point  7 :   0.0000 0.5000 0.5000  plane waves:   17700
 k-point  8 :   0.5000 0.5000 0.5000  plane waves:   17700

 maximum and minimum number of plane-waves per node :     17736    17676

 maximum number of plane-waves:     17736
 maximum index in each direction: 
   IXMAX=   16   IYMAX=   16   IZMAX=   18
   IXMIN=  -16   IYMIN=  -16   IZMIN=  -18


 serial   3D FFT for wavefunctions
 parallel 3D FFT for charge:
    minimum data exchange during FFTs selected (reduces bandwidth)


 total amount of memory used by VASP MPI-rank0    94439. kBytes
=======================================================================

   base      :      30000. kBytes
   nonlr-proj:      13680. kBytes
   fftplans  :       1275. kBytes
   grid      :      22786. kBytes
   one-center:       2737. kBytes
   wavefun   :      23961. kBytes
 
     INWAV:  cpu time    0.0000: real time    0.0001
 Broyden mixing: mesh for mixing (old mesh)
   NGX = 33   NGY = 33   NGZ = 37
  (NGX  =100   NGY  =100   NGZ  =112)
  gives a total of  40293 points

 initial charge density was supplied:
 charge density of overlapping atoms calculated
 number of electron     672.0000000 magnetization      48.0000000
 keeping initial charge density in first step


--------------------------------------------------------------------------------------------------------


 Maximum index for non-local projection operator         1550
 Maximum index for augmentation-charges          510 (set IRDMAX)


--------------------------------------------------------------------------------------------------------


 First call to EWALD:  gamma=   0.179
 Maximum number of real-space cells 3x 3x 2
 Maximum number of reciprocal cells 3x 3x 3

    FEWALD:  cpu time    0.0026: real time    0.0026


--------------------------------------- Iteration      1(   1)  ---------------------------------------


    POTLOK:  cpu time    0.1925: real time    0.1944
    SETDIJ:  cpu time    4.6221: real time    4.6238
    EDDIAG:  cpu time    4.4508: real time    4.8390
  RMM-DIIS:  cpu time    9.2200: real time    9.2262
    ORTHCH:  cpu time    1.1622: real time    1.2420
       DOS:  cpu time    0.0019: real time    0.0020
    --------------------------------------------
      LOOP:  cpu time   19.6496: real time   20.1274

 eigenvalue-minimisations  :  7680
 total energy-change (2. order) : 0.1599604E+04  (-0.3498623E+05)
 number of electron     672.0000000 magnetization      48.0000000
 augmentation part      672.0000000 magnetization      48.0000000

 Free energy of the ion-electron system (eV)
  ---------------------------------------------------
  alpha Z        PSCENC =      2652.81237852
  Ewald energy   TEWEN  =    -41745.05668900
  -Hartree energ DENC   =    -25862.39648136
  -exchange      EXHF   =         0.00000000
  -V(xc)+E(xc)   XCENC  =      3606.48818246
  PAW double counting   =     55594.23204139   -59034.67079123
  entropy T*S    EENTRO =        -0.04331367
  eigenvalues    EBANDS =     -7473.95940024
  atomic energy  EATOM  =     73862.19814772
  Solvation  Ediel_sol  =         0.00000000
  ---------------------------------------------------
  free energy    TOTEN  =      1599.60407459 eV

  energy without entropy =     1599.64738826  energy(sigma->0) =     1599.62573142


--------------------------------------------------------------------------------------------------------




--------------------------------------- Iteration      1(   2)  ---------------------------------------


    EDDIAG:  cpu time    4.4311: real time    4.8221
  RMM-DIIS:  cpu time    9.2270: real time    9.2329
    ORTHCH:  cpu time    1.1580: real time    1.2397
       DOS:  cpu time    0.0023: real time    0.0023
    --------------------------------------------
      LOOP:  cpu time   14.8184: real time   15.2970

 eigenvalue-minimisations  :  7680
 total energy-change (2. order) :-0.2329538E+04  (-0.8045852E+04)
 number of electron     672.0000000 magnetization      48.0000000
 augmentation part      672.0000000 magnetization      48.0000000

 Free energy of the ion-electron system (eV)
  ---------------------------------------------------
  alpha Z        PSCENC =      2652.81237852
  Ewald energy   TEWEN  =    -41745.05668900
  -Hartree energ DENC   =    -25862.39648136
  -exchange      EXHF   =         0.00000000
  -V(xc)+E(xc)   XCENC  =      3606.48818246
  PAW double counting   =     55594.23204139   -59034.67079123
  entropy T*S    EENTRO =        -0.03938106
  eigenvalues    EBANDS =     -9803.50088111
  atomic energy  EATOM  =     73862.19814772
  Solvation  Ediel_sol  =         0.00000000
  ---------------------------------------------------
  free energy    TOTEN  =      -729.93347367 eV

  energy without entropy =     -729.89409261  energy(sigma->0) =     -729.91378314


--------------------------------------------------------------------------------------------------------




--------------------------------------- Iteration      1(   3)  ---------------------------------------


    EDDIAG:  cpu time    4.4403: real time    4.8465
  RMM-DIIS:  cpu time    9.2219: real time    9.2289
    ORTHCH:  cpu time    1.1654: real time    1.2427
       DOS:  cpu time    0.0019: real time    0.0019
    --------------------------------------------
      LOOP:  cpu time   14.8295: real time   15.3200

 eigenvalue-minimisations  :  7680
 total energy-change (2. order) : 0.8579494E+02  (-0.1425888E+04)
 number of electron     672.0000000 magnetization      48.0000000
 augmentation part      672.0000000 magnetization      48.0000000

 Free energy of the ion-electron system (eV)
  ---------------------------------------------------
  alpha Z        PSCENC =      2652.81237852
  Ewald energy   TEWEN  =    -41745.05668900
  -Hartree energ DENC   =    -25862.39648136
  -exchange      EXHF   =         0.00000000
  -V(xc)+E(xc)   XCENC  =      3606.48818246
  PAW double counting   =     55594.23204139   -59034.67079123
  entropy T*S    EENTRO =        -0.04476430
  eigenvalues    EBANDS =     -9717.70056004
  atomic energy  EATOM  =     73862.19814772
  Solvation  Ediel_sol  =         0.00000000
  ---------------------------------------------------
  free energy    TOTEN  =      -644.13853584 eV

  energy without entropy =     -644.09377154  energy(sigma->0) =     -644.11615369


--------------------------------------------------------------------------------------------------------




--------------------------------------- Iteration      1(   4)  ---------------------------------------


    EDDIAG:  cpu time    4.4437: real time    4.8330
  RMM-DIIS:  cpu time    9.2349: real time    9.2437
    ORTHCH:  cpu time    1.1601: real time    1.2418
       DOS:  cpu time    0.0013: real time    0.0013
    --------------------------------------------
      LOOP:  cpu time   14.8400: real time   15.3198

 eigenvalue-minimisations  :  7680
 total energy-change (2. order) :-0.4678798E+03  (-0.4300482E+03)
 number of electron     672.0000000 magnetization      48.0000000
 augmentation part      672.0000000 magnetization      48.0000000

 Free energy of the ion-electron system (eV)
  ---------------------------------------------------
  alpha Z        PSCENC =      2652.81237852
  Ewald energy   TEWEN  =    -41745.05668900
  -Hartree energ DENC   =    -25862.39648136
  -exchange      EXHF   =         0.00000000
  -V(xc)+E(xc)   XCENC  =      3606.48818246
  PAW double counting   =     55594.23204139   -59034.67079123
  entropy T*S    EENTRO =        -0.00000000
  eigenvalues    EBANDS =    -10185.62510581
  atomic energy  EATOM  =     73862.19814772
  Solvation  Ediel_sol  =         0.00000000
  ---------------------------------------------------
  free energy    TOTEN  =     -1112.01831731 eV

  energy without entropy =    -1112.01831731  energy(sigma->0) =    -1112.01831731


--------------------------------------------------------------------------------------------------------




--------------------------------------- Iteration      1(   5)  ---------------------------------------


    EDDIAG:  cpu time    4.4748: real time    4.8621
  RMM-DIIS:  cpu time    9.2044: real time    9.2206
    ORTHCH:  cpu time    1.1538: real time    1.2400
       DOS:  cpu time    0.0027: real time    0.0027
    --------------------------------------------
      LOOP:  cpu time   14.8357: real time   15.3254

 eigenvalue-minimisations  :  7680
 total energy-change (2. order) :-0.1041439E+03  (-0.1599124E+03)
 number of electron     672.0000000 magnetization      48.0000000
 augmentation part      672.0000000 magnetization      48.0000000

 Free energy of the ion-electron system (eV)
  ---------------------------------------------------
  alpha Z        PSCENC =      2652.81237852
  Ewald energy   TEWEN  =    -41745.05668900
  -Hartree energ DENC   =    -25862.39648136
  -exchange      EXHF   =         0.00000000
  -V(xc)+E(xc)   XCENC  =      3606.48818246
  PAW double counting   =     55594.23204139   -59034.67079123
  entropy T*S    EENTRO =        -0.00000000
  eigenvalues    EBANDS =    -10289.76899120
  atomic energy  EATOM  =     73862.19814772
  Solvation  Ediel_sol  =         0.00000000
  ---------------------------------------------------
  free energy    TOTEN  =     -1216.16220270 eV

  energy without entropy =    -1216.16220270  energy(sigma->0) =    -1216.16220270


--------------------------------------------------------------------------------------------------------




--------------------------------------- Iteration      1(   6)  ---------------------------------------


    EDDIAG:  cpu time    4.4742: real time    4.8738
  RMM-DIIS:  cpu time    9.2387: real time    9.2584
    ORTHCH:  cpu time    1.1603: real time    1.2439
       DOS:  cpu time    0.0014: real time    0.0014
    --------------------------------------------
      LOOP:  cpu time   14.8746: real time   15.3775

 eigenvalue-minimisations  :  7680
 total energy-change (2. order) :-0.8877009E+01  (-0.7929818E+02)
 number of electron     672.0000000 magnetization      48.0000000
 augmentation part      672.0000000 magnetization      48.0000000

 Free energy of the ion-electron system (eV)
  ---------------------------------------------------
  alpha Z        PSCENC =      2652.81237852
  Ewald energy   TEWEN  =    -41745.05668900
  -Hartree energ DENC   =    -25862.39648136
  -exchange      EXHF   =         0.00000000
  -V(xc)+E(xc)   XCENC  =      3606.48818246
  PAW double counting   =     55594.23204139   -59034.67079123
  entropy T*S    EENTRO =        -0.00000000
  eigenvalues    EBANDS =    -10298.64600015
  atomic energy  EATOM  =     73862.19814772
  Solvation  Ediel_sol  =         0.00000000
  ---------------------------------------------------
  free energy    TOTEN  =     -1225.03921165 eV

  energy without entropy =    -1225.03921165  energy(sigma->0) =    -1225.03921165


--------------------------------------------------------------------------------------------------------




--------------------------------------- Iteration      1(   7)  ---------------------------------------


    EDDIAG:  cpu time    4.5116: real time    4.8958
  RMM-DIIS:  cpu time    9.2288: real time    9.2440
    ORTHCH:  cpu time    1.1644: real time    1.2466
       DOS:  cpu time    0.0011: real time    0.0011
    --------------------------------------------
      LOOP:  cpu time   14.9060: real time   15.3874

 eigenvalue-minimisations  :  7680
 total energy-change (2. order) :-0.1758956E+01  (-0.4827796E+02)
 number of electron     672.0000000 magnetization      48.0000000
 augmentation part      672.0000000 magnetization      48.0000000

 Free energy of the ion-electron system (eV)
  ---------------------------------------------------
  alpha Z        PSCENC =      2652.81237852
  Ewald energy   TEWEN  =    -41745.05668900
  -Hartree energ DENC   =    -25862.39648136
  -exchange      EXHF   =         0.00000000
  -V(xc)+E(xc)   XCENC  =      3606.48818246
  PAW double counting   =     55594.23204139   -59034.67079123
  entropy T*S    EENTRO =        -0.00000000
  eigenvalues    EBANDS =    -10300.40495604
  atomic energy  EATOM  =     73862.19814772
  Solvation  Ediel_sol  =         0.00000000
  ---------------------------------------------------
  free energy    TOTEN  =     -1226.79816754 eV

  energy without entropy =    -1226.79816754  energy(sigma->0) =    -1226.79816754


--------------------------------------------------------------------------------------------------------




--------------------------------------- Iteration      1(   8)  ---------------------------------------


    EDDIAG:  cpu time    4.4729: real time    4.8552
  RMM-DIIS:  cpu time    9.2349: real time    9.2464
    ORTHCH:  cpu time    1.1653: real time    1.2481
       DOS:  cpu time    0.0014: real time    0.0014
    --------------------------------------------
      LOOP:  cpu time   14.8745: real time   15.3511

 eigenvalue-minimisations  :  7680
 total energy-change (2. order) : 0.4984207E+01  (-0.2997048E+02)
 number of electron     672.0000000 magnetization      48.0000000
 augmentation part      672.0000000 magnetization      48.0000000

 Free energy of the ion-electron system (eV)
  ---------------------------------------------------
  alpha Z        PSCENC =      2652.81237852
  Ewald energy   TEWEN  =    -41745.05668900
  -Hartree energ DENC   =    -25862.39648136
  -exchange      EXHF   =         0.00000000
  -V(xc)+E(xc)   XCENC  =      3606.48818246
  PAW double counting   =     55594.23204139   -59034.67079123
  entropy T*S    EENTRO =        -0.00000000
  eigenvalues    EBANDS =    -10295.42074859
  atomic energy  EATOM  =     73862.19814772
  Solvation  Ediel_sol  =         0.00000000
  ---------------------------------------------------
  free energy    TOTEN  =     -1221.81396009 eV

  energy without entropy =    -1221.81396009  energy(sigma->0) =    -1221.81396009


--------------------------------------------------------------------------------------------------------




--------------------------------------- Iteration      1(   9)  ---------------------------------------


    EDDIAG:  cpu time    4.4374: real time    4.8424
  RMM-DIIS:  cpu time   19.5572: real time   19.5811
    ORTHCH:  cpu time    1.1564: real time    1.2387
       DOS:  cpu time    0.0012: real time    0.0012
    --------------------------------------------
      LOOP:  cpu time   25.1522: real time   25.6634

 eigenvalue-minimisations  : 21781
 total energy-change (2. order) : 0.9283660E+01  (-0.1320713E+02)
 number of electron     672.0000000 magnetization      48.0000000
 augmentation part      672.0000000 magnetization      48.0000000

 Free energy of the ion-electron system (eV)
  ---------------------------------------------------
  alpha Z        PSCENC =      2652.81237852
  Ewald energy   TEWEN  =    -41745.05668900
  -Hartree energ DENC   =    -25862.39648136
  -exchange      EXHF   =         0.00000000
  -V(xc)+E(xc)   XCENC  =      3606.48818246
  PAW double counting   =     55594.23204139   -59034.67079123
  entropy T*S    EENTRO =        -0.00000000
  eigenvalues    EBANDS =    -10286.13708868
  atomic energy  EATOM  =     73862.19814772
  Solvation  Ediel_sol  =         0.00000000
  ---------------------------------------------------
  free energy    TOTEN  =     -1212.53030018 eV

  energy without entropy =    -1212.53030018  energy(sigma->0) =    -1212.53030018


--------------------------------------------------------------------------------------------------------




--------------------------------------- Iteration      1(  10)  ---------------------------------------


    EDDIAG:  cpu time    4.4478: real time    4.8190
  RMM-DIIS:  cpu time   17.8711: real time   17.9094
    ORTHCH:  cpu time    1.1530: real time    1.3178
       DOS:  cpu time    0.0014: real time    0.0014
    --------------------------------------------
      LOOP:  cpu time   23.4733: real time   24.0476

 eigenvalue-minimisations  : 19714
 total energy-change (2. order) :-0.1905216E+01  (-0.5316078E+00)
 number of electron     672.0000000 magnetization      48.0000000
 augmentation part      672.0000000 magnetization      48.0000000

 Free energy of the ion-electron system (eV)
  ---------------------------------------------------
  alpha Z        PSCENC =      2652.81237852
  Ewald energy   TEWEN  =    -41745.05668900
  -Hartree energ DENC   =    -25862.39648136
  -exchange      EXHF   =         0.00000000
  -V(xc)+E(xc)   XCENC  =      3606.48818246
  PAW double counting   =     55594.23204139   -59034.67079123
  entropy T*S    EENTRO =        -0.00000003
  eigenvalues    EBANDS =    -10288.04230498
  atomic energy  EATOM  =     73862.19814772
  Solvation  Ediel_sol  =         0.00000000
  ---------------------------------------------------
  free energy    TOTEN  =     -1214.43551651 eV

  energy without entropy =    -1214.43551649  energy(sigma->0) =    -1214.43551650


--------------------------------------------------------------------------------------------------------




--------------------------------------- Iteration      1(  11)  ---------------------------------------


    EDDIAG:  cpu time    4.4528: real time    4.8392
  RMM-DIIS:  cpu time   20.0776: real time   20.1264
    ORTHCH:  cpu time    1.2341: real time    1.3174
       DOS:  cpu time    0.0013: real time    0.0013
    --------------------------------------------
      LOOP:  cpu time   25.7659: real time   26.2844

 eigenvalue-minimisations  : 22674
 total energy-change (2. order) : 0.6936345E-01  (-0.4398051E-01)
 number of electron     672.0000000 magnetization      48.0000000
 augmentation part      672.0000000 magnetization      48.0000000

 Free energy of the ion-electron system (eV)
  ---------------------------------------------------
  alpha Z        PSCENC =      2652.81237852
  Ewald energy   TEWEN  =    -41745.05668900
  -Hartree energ DENC   =    -25862.39648136
  -exchange      EXHF   =         0.00000000
  -V(xc)+E(xc)   XCENC  =      3606.48818246
  PAW double counting   =     55594.23204139   -59034.67079123
  entropy T*S    EENTRO =        -0.00000002
  eigenvalues    EBANDS =    -10287.97294154
  atomic energy  EATOM  =     73862.19814772
  Solvation  Ediel_sol  =         0.00000000
  ---------------------------------------------------
  free energy    TOTEN  =     -1214.36615306 eV

  energy without entropy =    -1214.36615304  energy(sigma->0) =    -1214.36615305


--------------------------------------------------------------------------------------------------------




--------------------------------------- Iteration      1(  12)  ---------------------------------------


    EDDIAG:  cpu time    4.4304: real time    4.8206
  RMM-DIIS:  cpu time   21.7160: real time   21.7690
    ORTHCH:  cpu time    1.1574: real time    1.2427
       DOS:  cpu time    0.0015: real time    0.0015
    CHARGE:  cpu time    1.8172: real time    1.8191
    MIXING:  cpu time    0.0010: real time    0.0012
    --------------------------------------------
      LOOP:  cpu time   29.1234: real time   29.6540

 eigenvalue-minimisations  : 24383
 total energy-change (2. order) :-0.6601546E-03  (-0.4290866E-02)
 number of electron     672.0000150 magnetization      48.0000027
 augmentation part      239.1193956 magnetization      29.0439847

 Broyden mixing:
  rms(total) = 0.12620E+02    rms(broyden)= 0.12610E+02
  rms(prec ) = 0.14461E+02
  weight for this iteration     100.00

 Free energy of the ion-electron system (eV)
  ---------------------------------------------------
  alpha Z        PSCENC =      2652.81237852
  Ewald energy   TEWEN  =    -41745.05668900
  -Hartree energ DENC   =    -25862.39648136
  -exchange      EXHF   =         0.00000000
  -V(xc)+E(xc)   XCENC  =      3606.48818246
  PAW double counting   =     55594.23204139   -59034.67079123
  entropy T*S    EENTRO =        -0.00000002
  eigenvalues    EBANDS =    -10287.97360170
  atomic energy  EATOM  =     73862.19814772
  Solvation  Ediel_sol  =         0.00000000
  ---------------------------------------------------
  free energy    TOTEN  =     -1214.36681322 eV

  energy without entropy =    -1214.36681320  energy(sigma->0) =    -1214.36681321


--------------------------------------------------------------------------------------------------------




--------------------------------------- Iteration      1(  13)  ---------------------------------------


    POTLOK:  cpu time    0.1693: real time    0.1709
    SETDIJ:  cpu time    4.9679: real time    4.9697
    EDDIAG:  cpu time    4.5192: real time    4.8793
  RMM-DIIS:  cpu time   17.2659: real time   17.3017
    ORTHCH:  cpu time    1.1542: real time    1.2369
       DOS:  cpu time    0.0031: real time    0.0031
    CHARGE:  cpu time    1.8097: real time    1.8131
    MIXING:  cpu time    0.0009: real time    0.0010
    --------------------------------------------
      LOOP:  cpu time   29.8901: real time   30.3756

 eigenvalue-minimisations  : 18768
 total energy-change (2. order) : 0.2289727E+03  (-0.1220494E+03)
 number of electron     672.0000079 magnetization      48.0000036
 augmentation part      268.7023921 magnetization      26.7214169

 Broyden mixing:
  rms(total) = 0.13840E+02    rms(broyden)= 0.13837E+02
  rms(prec ) = 0.15539E+02
  weight for this iteration     100.00

 eigenvalues of (default mixing * dielectric matrix)
  average eigenvalue GAMMA=   0.3197
  0.3197

 Free energy of the ion-electron system (eV)
  ---------------------------------------------------
  alpha Z        PSCENC =      2652.81237852
  Ewald energy   TEWEN  =    -41745.05668900
  -Hartree energ DENC   =    -25198.19341346
  -exchange      EXHF   =         0.00000000
  -V(xc)+E(xc)   XCENC  =      3696.92123318
  PAW double counting   =     59944.77497737   -63370.33820017
  entropy T*S    EENTRO =        -0.08657235
  eigenvalues    EBANDS =    -10828.42594221
  atomic energy  EATOM  =     73862.19814772
  Solvation  Ediel_sol  =         0.00000000
  ---------------------------------------------------
  free energy    TOTEN  =      -985.39408039 eV

  energy without entropy =     -985.30750804  energy(sigma->0) =     -985.35079421


--------------------------------------------------------------------------------------------------------




--------------------------------------- Iteration      1(  14)  ---------------------------------------


    POTLOK:  cpu time    0.1762: real time    0.1763
    SETDIJ:  cpu time    4.9570: real time    4.9591
    EDDIAG:  cpu time    4.4409: real time    4.8375
  RMM-DIIS:  cpu time   17.8824: real time   17.9065
    ORTHCH:  cpu time    1.1584: real time    1.2402
       DOS:  cpu time    0.0011: real time    0.0011
    CHARGE:  cpu time    1.8150: real time    1.8176
    MIXING:  cpu time    0.0009: real time    0.0009
    --------------------------------------------
      LOOP:  cpu time   30.4320: real time   30.9392

 eigenvalue-minimisations  : 19372
 total energy-change (2. order) : 0.6997378E+02  (-0.1728851E+02)
 number of electron     672.0000122 magnetization      48.0000058
 augmentation part      246.6551852 magnetization      32.2045366

 Broyden mixing:
  rms(total) = 0.53167E+01    rms(broyden)= 0.53124E+01
  rms(prec ) = 0.57334E+01
  weight for this iteration     100.00

 eigenvalues of (default mixing * dielectric matrix)
  average eigenvalue GAMMA=   0.7326
  1.1061  0.3592

 Free energy of the ion-electron system (eV)
  ---------------------------------------------------
  alpha Z        PSCENC =      2652.81237852
  Ewald energy   TEWEN  =    -41745.05668900
  -Hartree energ DENC   =    -25806.64013430
  -exchange      EXHF   =         0.00000000
  -V(xc)+E(xc)   XCENC  =      3674.60695654
  PAW double counting   =     63351.49304144   -66834.50317390
  entropy T*S    EENTRO =        -0.00000000
  eigenvalues    EBANDS =    -10070.33082454
  atomic energy  EATOM  =     73862.19814772
  Solvation  Ediel_sol  =         0.00000000
  ---------------------------------------------------
  free energy    TOTEN  =      -915.42029750 eV

  energy without entropy =     -915.42029750  energy(sigma->0) =     -915.42029750


--------------------------------------------------------------------------------------------------------




--------------------------------------- Iteration      1(  15)  ---------------------------------------


    POTLOK:  cpu time    0.1708: real time    0.1729
    SETDIJ:  cpu time    4.9662: real time    4.9675
    EDDIAG:  cpu time    4.4718: real time    4.8596
  RMM-DIIS:  cpu time   18.1401: real time   18.1867
    ORTHCH:  cpu time    1.2370: real time    1.3214
       DOS:  cpu time    0.0015: real time    0.0015
    CHARGE:  cpu time    1.8115: real time    1.8130
    MIXING:  cpu time    0.0009: real time    0.0009
    --------------------------------------------
      LOOP:  cpu time   30.7998: real time   31.3235

 eigenvalue-minimisations  : 20269
 total energy-change (2. order) : 0.1403902E+02  (-0.1876162E+01)
 number of electron     672.0000112 magnetization      48.0000071
 augmentation part      249.6747835 magnetization      33.8109478

 Broyden mixing:
  rms(total) = 0.21670E+01    rms(broyden)= 0.21667E+01
  rms(prec ) = 0.22480E+01
  weight for this iteration     100.00

 eigenvalues of (default mixing * dielectric matrix)
  average eigenvalue GAMMA=   0.9580
  0.3858  0.7548  1.7333

 Free energy of the ion-electron system (eV)
  ---------------------------------------------------
  alpha Z        PSCENC =      2652.81237852
  Ewald energy   TEWEN  =    -41745.05668900
  -Hartree energ DENC   =    -25732.67697455
  -exchange      EXHF   =         0.00000000
  -V(xc)+E(xc)   XCENC  =      3707.43071959
  PAW double counting   =     67457.25471478   -70980.73071054
  entropy T*S    EENTRO =        -0.00000000
  eigenvalues    EBANDS =    -10122.61286748
  atomic energy  EATOM  =     73862.19814772
  Solvation  Ediel_sol  =         0.00000000
  ---------------------------------------------------
  free energy    TOTEN  =      -901.38128095 eV

  energy without entropy =     -901.38128095  energy(sigma->0) =     -901.38128095


--------------------------------------------------------------------------------------------------------




--------------------------------------- Iteration      1(  16)  ---------------------------------------


    POTLOK:  cpu time    0.1675: real time    0.1681
    SETDIJ:  cpu time    5.0248: real time    5.0263
    EDDIAG:  cpu time    4.5207: real time    4.9148
  RMM-DIIS:  cpu time   17.3486: real time   17.4546
    ORTHCH:  cpu time    1.1576: real time    1.2382
       DOS:  cpu time    0.0016: real time    0.0016
    CHARGE:  cpu time    1.8196: real time    1.8203
    MIXING:  cpu time    0.0010: real time    0.0010
    --------------------------------------------
      LOOP:  cpu time   30.0413: real time   30.6249

 eigenvalue-minimisations  : 18972
 total energy-change (2. order) :-0.1614573E+01  (-0.6582406E+00)
 number of electron     672.0000110 magnetization      48.0000075
 augmentation part      251.2398077 magnetization      33.8962846

 Broyden mixing:
  rms(total) = 0.14357E+01    rms(broyden)= 0.14351E+01
  rms(prec ) = 0.15273E+01
  weight for this iteration     100.00

 eigenvalues of (default mixing * dielectric matrix)
  average eigenvalue GAMMA=   0.9778
  2.0941  0.9007  0.3936  0.5227

 Free energy of the ion-electron system (eV)
  ---------------------------------------------------
  alpha Z        PSCENC =      2652.81237852
  Ewald energy   TEWEN  =    -41745.05668900
  -Hartree energ DENC   =    -25681.05561180
  -exchange      EXHF   =         0.00000000
  -V(xc)+E(xc)   XCENC  =      3708.76873510
  PAW double counting   =     70488.65727061   -74042.43648580
  entropy T*S    EENTRO =        -0.00000000
  eigenvalues    EBANDS =    -10146.88359920
  atomic energy  EATOM  =     73862.19814772
  Solvation  Ediel_sol  =         0.00000000
  ---------------------------------------------------
  free energy    TOTEN  =      -902.99585383 eV

  energy without entropy =     -902.99585383  energy(sigma->0) =     -902.99585383


--------------------------------------------------------------------------------------------------------




--------------------------------------- Iteration      1(  17)  ---------------------------------------


    POTLOK:  cpu time    0.1733: real time    0.1741
    SETDIJ:  cpu time    5.0315: real time    5.0357
    EDDIAG:  cpu time    4.5262: real time    4.9098
  RMM-DIIS:  cpu time   18.5438: real time   18.5900
    ORTHCH:  cpu time    1.1579: real time    1.2399
       DOS:  cpu time    0.0011: real time    0.0011
    CHARGE:  cpu time    1.8124: real time    1.8135
    MIXING:  cpu time    0.0014: real time    0.0014
    --------------------------------------------
      LOOP:  cpu time   31.2476: real time   31.7655

 eigenvalue-minimisations  : 20549
 total energy-change (2. order) : 0.1890651E+00  (-0.6221820E-01)
 number of electron     672.0000110 magnetization      48.0000077
 augmentation part      251.1353910 magnetization      33.8856261

 Broyden mixing:
  rms(total) = 0.76561E+00    rms(broyden)= 0.76551E+00
  rms(prec ) = 0.86312E+00
  weight for this iteration     100.00

 eigenvalues of (default mixing * dielectric matrix)
  average eigenvalue GAMMA=   1.0041
  2.2463  1.1322  0.3832  0.6967  0.5622

 Free energy of the ion-electron system (eV)
  ---------------------------------------------------
  alpha Z        PSCENC =      2652.81237852
  Ewald energy   TEWEN  =    -41745.05668900
  -Hartree energ DENC   =    -25673.75360005
  -exchange      EXHF   =         0.00000000
  -V(xc)+E(xc)   XCENC  =      3705.70558956
  PAW double counting   =     71321.55749869   -74883.35452425
  entropy T*S    EENTRO =        -0.00000000
  eigenvalues    EBANDS =    -10142.91558991
  atomic energy  EATOM  =     73862.19814772
  Solvation  Ediel_sol  =         0.00000000
  ---------------------------------------------------
  free energy    TOTEN  =      -902.80678872 eV

  energy without entropy =     -902.80678872  energy(sigma->0) =     -902.80678872


--------------------------------------------------------------------------------------------------------




--------------------------------------- Iteration      1(  18)  ---------------------------------------


    POTLOK:  cpu time    0.1700: real time    0.1710
    SETDIJ:  cpu time    4.9914: real time    4.9958
    EDDIAG:  cpu time    4.4289: real time    4.8152
  RMM-DIIS:  cpu time   17.7884: real time   17.8627
    ORTHCH:  cpu time    1.1603: real time    1.2407
       DOS:  cpu time    0.0011: real time    0.0011
    CHARGE:  cpu time    1.8136: real time    1.8144
    MIXING:  cpu time    0.0011: real time    0.0011
    --------------------------------------------
      LOOP:  cpu time   30.3548: real time   30.9018

 eigenvalue-minimisations  : 19105
 total energy-change (2. order) : 0.3991109E+00  (-0.7076422E-01)
 number of electron     672.0000111 magnetization      48.0000077
 augmentation part      250.6140947 magnetization      33.8436684

 Broyden mixing:
  rms(total) = 0.26702E+00    rms(broyden)= 0.26669E+00
  rms(prec ) = 0.28032E+00
  weight for this iteration     100.00

 eigenvalues of (default mixing * dielectric matrix)
  average eigenvalue GAMMA=   1.0214
  2.4683  1.3692  0.8454  0.3846  0.5883  0.4726

 Free energy of the ion-electron system (eV)
[...]
   4      -0.798    -0.723     1.521    -0.084    -0.324    -0.314
   5      -0.826    -0.633     1.459    -0.093     0.452     0.160
   6      -0.695    -0.854     1.549     0.017     0.130    -0.422
   7      -0.812    -1.036     1.848    -0.018     0.080     0.101
   8      -0.916    -0.828     1.744    -0.099    -0.103    -0.288
   9      -0.749    -0.641     1.390    -0.118     0.225     0.045
  10      -0.788    -0.694     1.482     0.135    -0.448     0.309
  11      -0.828    -0.912     1.741    -0.136     0.012     0.064
  12      -0.852    -0.714     1.566     0.080     0.492    -0.234
  13      -0.517    -0.721     1.237     0.017    -0.096     0.145
  14      -0.779    -0.616     1.395     0.117     0.414    -0.247
  15      -0.784    -0.634     1.418     0.051    -0.536     0.231
  16      -0.567    -0.822     1.389     0.030    -0.006    -0.514
  17       1.494     1.504    -2.999    -0.001    -0.086    -0.092
  18       1.506     1.409    -2.916    -0.040    -0.052     0.028
  19       1.612     1.315    -2.927    -0.163     0.003     0.140
  20       1.520     1.451    -2.971    -0.059     0.154    -0.017
  21       1.466     1.495    -2.962     0.106     0.211     0.022
  22       1.570     1.355    -2.924    -0.023     0.013     0.122
  23       1.395     1.511    -2.906    -0.020    -0.234    -0.128
  24       1.307     1.623    -2.929     0.115     0.039    -0.087
  25      -0.763     0.182     0.581    -0.229    -1.030     0.329
  26      -0.361    -0.902     1.262    -0.860    -0.058     1.097
  27      -1.135     0.467     0.667     0.327     0.483    -0.075
  28      -2.011     0.527     1.484    -0.915     0.327     0.683
  29       1.114    -1.150     0.036    -0.858    -0.101    -0.806
  30       0.228    -0.540     0.312    -0.858    -1.479    -1.212
  31      -1.867     0.177     1.690    -0.830     0.901    -0.963
  32      -0.122    -0.812     0.934    -0.245     0.394    -0.309
  33      -0.047    -1.227     1.273    -0.956    -0.012     0.635
  34      -1.336     0.169     1.167    -0.537    -0.114    -0.719
  35       0.313    -0.744     0.431    -1.089    -0.558    -0.514
  36      -0.753    -0.983     1.736    -0.291     0.028     0.471
  37      -1.114    -1.314     2.428     0.479     0.793     0.011
  38      -0.641    -1.831     2.472    -0.358     0.415    -0.975
  39      -0.921    -0.487     1.408    -1.273     0.270     0.203
  40       1.150    -1.636     0.486    -0.048     0.032    -0.971
  41      -3.128     1.892     1.236    -5.002     2.430    -4.076
  42      -4.176     2.112     2.064     2.782     3.118     3.072
  43       3.859    -6.162     2.304    -1.220    -5.505    -0.887
  44      -2.639     0.098     2.541     4.947    -3.023    -3.062
  45      -3.370     2.422     0.949    -6.111    -2.980     3.521
  46       4.517    -3.144    -1.373    -0.704     3.572    -1.503
  47      -3.533     2.103     1.430    -3.298     2.912    -3.575
  48       5.297    -5.386     0.090     1.234    -4.311     1.761
  49      -1.858     1.269     0.589     4.473     0.758     4.567
  50       5.083    -7.394     2.312     0.887     5.958    -0.832
  51      -4.526     4.590    -0.064    -3.655    -2.628     2.977
  52      -5.565     5.279     0.286     4.198    -0.918    -3.761
  53      -3.254     3.028     0.226    -4.851     2.603    -3.208
  54      -2.433     3.853    -1.420     4.211     0.917     3.028
  55       2.578    -6.422     3.844     0.992    -4.740     2.190
  56      -3.731     3.362     0.370     4.477    -2.123    -3.303
  57      -2.290     1.818     0.472    -6.059    -3.694     3.946
  58       3.094    -4.031     0.937     0.561     4.574     0.815
  59      -1.461     0.756     0.706    -5.569     1.936    -6.760
  60       4.866    -5.986     1.121    -1.460    -6.161    -1.028
  61      -4.271     2.566     1.705     3.757     0.962     3.201
  62       3.299    -6.905     3.607    -0.099     4.910    -0.315
  63      -2.363     1.825     0.539    -6.657    -2.760     2.613
  64      -2.740     2.042     0.698     4.490    -2.197    -3.366
  65      -0.908     1.679    -0.771    -6.140     1.641    -4.357
  66      -1.435     2.677    -1.242     5.393     3.069     2.667
  67       7.296    -6.140    -1.156     0.652    -3.051     0.219
  68      -5.319     5.162     0.157     3.573    -1.232    -4.293
  69      -2.159     3.102    -0.943    -4.481    -2.315     3.272
  70       4.470    -8.001     3.531    -0.332     5.107    -0.384
  71      -3.645     3.126     0.519    -6.215     3.001    -3.957
  72       3.501    -6.254     2.752     1.450    -6.128     0.241
  73      -5.881     3.697     2.184     4.333     3.584     3.990
  74       8.333    -7.077    -1.256     0.472     3.812    -0.438
  75      -2.314     0.005     2.309    -5.615    -2.179     6.181
  76      -1.417     1.490    -0.074     5.209    -2.324    -4.058
  77      -4.083     0.958     3.125    -3.572     3.273    -4.588
  78      -2.535    -1.300     3.835     4.257     3.078     3.577
  79       4.305    -7.002     2.697    -0.332    -4.078    -0.805
  80      -3.239     1.506     1.733     3.240    -3.598    -2.883
  81      -2.878     1.235     1.643    -5.368    -1.734     5.305
  82       6.056    -6.156     0.100     0.905     4.179     0.378
  83      -3.743     3.577     0.166    -5.049     1.155    -2.758
  84       6.445    -5.112    -1.333     0.471    -5.275    -0.125
  85      -1.772     2.056    -0.284     4.907     2.841     3.859
  86       5.083    -4.370    -0.714     0.194     4.892     0.206
  87      -0.168     0.651    -0.483    -6.432    -2.479     4.272
  88      -3.414     0.414     3.000     4.912    -1.721    -4.740
 ---------------------------------------------------------------------


 Total hyperfine coupling parameters after diagonalization (MHz)
 (convention: |A_zz| > |A_xx| > |A_yy|)
 ----------------------------------------------------------------------
  ion      A_xx      A_yy      A_zz     asymmetry (A_yy - A_xx)/ A_zz 
 ----------------------------------------------------------------------
   1       0.227     0.133     2.874      -0.033
   2       2.153     1.705     4.465      -0.100
   3       1.302     0.843     3.464      -0.132
   4       1.843     1.581     4.118      -0.064
   5       1.659     1.297     3.810      -0.095
   6       2.113     1.875     4.436      -0.054
   7       0.333     0.105     2.999      -0.076
   8       0.900     0.673     3.455      -0.066
   9       1.242     0.966     3.224      -0.086
  10       1.854     1.450     4.054      -0.100
  11       0.402     0.116     2.872      -0.100
  12       2.243     1.917     4.602      -0.071
  13       1.174     0.959     2.946      -0.073
  14       1.921     1.537     3.972      -0.097
  15       2.167     1.844     4.349      -0.074
  16       1.192     0.819     3.260      -0.114
  17      14.794    10.296    14.804      -0.304
  18      14.311     9.999    14.437      -0.299
  19      14.768    10.589    15.205      -0.275
  20      14.613    10.219    14.754      -0.298
  21      14.203     9.853    14.418      -0.302
  22      15.716    11.432    15.932      -0.269
  23      14.783    10.454    14.894      -0.291
  24      13.640     9.438    14.031      -0.299
  25      96.386    95.025    97.630      -0.014
  26      97.318    95.535    99.122      -0.018
  27      98.290    96.441    98.549      -0.019
  28      97.736    94.824    99.047      -0.029
  29      96.946    94.796    98.008      -0.022
  30      96.219    93.254    97.430      -0.030
  31      95.297    93.289    98.010      -0.020
  32      96.246    95.562    97.608      -0.007
  33      97.610    95.365    98.694      -0.023
  34      99.187    97.636   100.739      -0.015
  35      96.792    94.514    97.282      -0.023
  36      97.352    96.692    99.745      -0.007
  37      95.765    94.833    99.199      -0.009
  38      97.067    95.637   100.479      -0.014
  39      97.793    95.178    98.648      -0.027
  40      95.295    92.426    95.598      -0.030
  41       5.814     1.590    16.014      -0.264
  42       6.978     2.172    14.704      -0.327
  43       6.035     1.317    16.649      -0.283
  44       6.497     1.135    15.110      -0.355
  45       7.583     1.905    18.119      -0.313
  46       4.780     2.665    13.286      -0.159
  47       4.926     1.406    13.916      -0.253
  48       5.849     0.596    14.823      -0.354
  49       6.530     1.959    15.049      -0.304
  50       7.845     2.317    19.805      -0.279
  51       6.184     1.350    15.264      -0.317
  52       6.585     1.066    16.607      -0.332
  53       8.319     4.144    17.997      -0.232
  54       1.634    -0.595    11.182      -0.199
  55       7.496     0.920    16.303      -0.403
  56       4.636     0.379    13.946      -0.305
  57       6.462     2.389    18.514      -0.220
  58       5.586     4.044    15.011      -0.103
  59       9.048     3.935    21.543      -0.237
  60       4.726     0.479    16.782      -0.253
  61       4.441    -0.956    11.521      -0.468
  62       6.493     1.033    16.319      -0.335
  63       7.659     1.505    17.298      -0.356
  64       4.351     0.683    13.340      -0.275
  65       4.557     0.479    15.633      -0.261
  66       4.567     1.639    15.210      -0.192
  67       7.185     3.084    17.590      -0.233
  68       4.899     0.675    15.717      -0.269
  69       3.794     1.764    14.097      -0.144
  70       9.425     2.536    19.696      -0.350
  71       5.540     0.291    17.206      -0.305
  72       4.803     0.768    16.763      -0.241
  73       7.824     0.954    18.056      -0.380
  74       7.445     2.809    19.631      -0.236
  75       5.792     0.411    17.859      -0.301
  76       3.927     1.062    14.628      -0.196
  77       2.711    -0.810    13.809      -0.255
  78       5.543     0.989    15.092      -0.302
  79       8.484     1.919    16.694      -0.393
  80       4.429     0.120    12.522      -0.344
  81       5.525     0.525    16.438      -0.304
  82       4.244     0.072    14.571      -0.286
  83       5.725     0.455    14.168      -0.372
  84       2.201     1.053    15.316      -0.075
  85       4.010     1.871    15.142      -0.141
  86       3.186     2.296    14.557      -0.061
  87       4.223     0.350    15.964      -0.243
  88       3.347    -2.268    13.039      -0.431
 ---------------------------------------------------------------------



--------------------------------------------------------------------------------------------------------


 stress matrix after NEB project (eV)
    -47.57972      2.26133      2.38709
      2.24905    -38.51841     -1.68857
      2.38458     -1.66633    -54.15597
  FORCES: max atom, RMS     2.727965    1.134117
  FORCE total and by dimension   10.638960    2.434576
  Stress total and by dimension   81.899638   54.155966
     LOOP+:  cpu time  689.7036: real time  703.0580
    4ORBIT:  cpu time    0.0000: real time    0.0000
 


 total charge     
 
# of ion       s       p       d       tot
------------------------------------------
    1        0.049   5.993   0.000   6.041
    2        0.054   5.997   0.000   6.051
    3        0.048   5.992   0.000   6.040
    4        0.051   5.994   0.000   6.045
    5        0.050   5.991   0.000   6.041
    6        0.049   5.992   0.000   6.041
    7        0.049   5.992   0.000   6.041
    8        0.053   5.998   0.000   6.051
    9        0.050   5.993   0.000   6.043
   10        0.051   5.994   0.000   6.045
   11        0.053   5.998   0.000   6.051
   12        0.051   5.993   0.000   6.044
   13        0.045   5.986   0.000   6.031
   14        0.048   5.989   0.000   6.037
   15        0.055   5.997   0.000   6.052
   16        0.052   5.994   0.000   6.046
   17        0.153   6.136   0.091   6.380
   18        0.149   6.127   0.082   6.358
   19        0.149   6.128   0.084   6.361
   20        0.153   6.135   0.089   6.377
   21        0.154   6.137   0.091   6.381
   22        0.144   6.121   0.078   6.343
   23        0.149   6.128   0.084   6.360
   24        0.153   6.134   0.088   6.376
   25        0.377   6.459   4.833  11.669
   26        0.387   6.480   4.856  11.723
   27        0.383   6.472   4.850  11.704
   28        0.365   6.430   4.812  11.608
   29        0.382   6.470   4.854  11.705
   30        0.376   6.458   4.840  11.673
   31        0.373   6.448   4.821  11.642
   32        0.368   6.438   4.812  11.617
   33        0.383   6.471   4.843  11.697
   34        0.360   6.422   4.801  11.583
   35        0.381   6.464   4.847  11.693
   36        0.388   6.483   4.858  11.729
   37        0.371   6.442   4.820  11.633
   38        0.370   6.441   4.815  11.626
   39        0.385   6.477   4.850  11.713
   40        0.384   6.478   4.853  11.715
   41        1.601   3.514   0.000   5.115
   42        1.599   3.542   0.000   5.141
   43        1.600   3.526   0.000   5.127
   44        1.597   3.518   0.000   5.115
   45        1.600   3.514   0.000   5.113
   46        1.596   3.506   0.000   5.102
   47        1.598   3.508   0.000   5.107
   48        1.598   3.502   0.000   5.100
   49        1.600   3.518   0.000   5.118
   50        1.604   3.499   0.000   5.102
   51        1.597   3.513   0.000   5.110
   52        1.599   3.503   0.000   5.102
   53        1.601   3.541   0.000   5.142
   54        1.597   3.491   0.000   5.088
   55        1.601   3.535   0.000   5.136
   56        1.599   3.535   0.000   5.133
   57        1.602   3.527   0.000   5.129
   58        1.595   3.503   0.000   5.099
   59        1.603   3.487   0.000   5.090
   60        1.603   3.502   0.000   5.105
   61        1.595   3.493   0.000   5.088
   62        1.598   3.497   0.000   5.095
   63        1.600   3.514   0.000   5.114
   64        1.595   3.476   0.000   5.071
   65        1.602   3.511   0.000   5.113
   66        1.598   3.498   0.000   5.096
   67        1.600   3.518   0.000   5.118
   68        1.599   3.491   0.000   5.090
   69        1.598   3.498   0.000   5.095
   70        1.605   3.545   0.000   5.150
   71        1.600   3.490   0.000   5.090
   72        1.599   3.486   0.000   5.086
   73        1.600   3.490   0.000   5.090
   74        1.603   3.508   0.000   5.111
   75        1.600   3.515   0.000   5.115
   76        1.600   3.526   0.000   5.126
   77        1.595   3.500   0.000   5.095
   78        1.597   3.509   0.000   5.106
   79        1.598   3.535   0.000   5.133
   80        1.597   3.516   0.000   5.113
   81        1.600   3.501   0.000   5.101
   82        1.597   3.520   0.000   5.117
   83        1.597   3.495   0.000   5.092
   84        1.600   3.469   0.000   5.069
   85        1.599   3.500   0.000   5.099
   86        1.598   3.486   0.000   5.084
   87        1.600   3.490   0.000   5.090
   88        1.598   3.508   0.000   5.107
--------------------------------------------------
tot         84.799 416.640  78.053 579.492
 


 magnetization (x)
 
# of ion       s       p       d       tot
------------------------------------------
    1        0.001   0.000   0.000   0.001
    2        0.002   0.000   0.000   0.002
    3        0.001  -0.000   0.000   0.001
    4        0.002   0.000   0.000   0.002
    5        0.002   0.000   0.000   0.002
    6        0.002   0.000   0.000   0.002
    7        0.001   0.000   0.000   0.001
    8        0.001   0.000   0.000   0.001
    9        0.001   0.001   0.000   0.002
   10        0.002  -0.000   0.000   0.002
   11        0.001   0.000   0.000   0.001
   12        0.002   0.000   0.000   0.002
   13        0.001   0.001   0.000   0.002
   14        0.002   0.000   0.000   0.002
   15        0.002   0.000   0.000   0.002
   16        0.001  -0.000   0.000   0.001
   17        0.007   0.002   0.001   0.011
   18        0.007   0.002   0.001   0.011
   19        0.007   0.003   0.001   0.011
   20        0.007   0.003   0.001   0.011
   21        0.007   0.002   0.001   0.011
   22        0.008   0.003   0.001   0.012
   23        0.007   0.002   0.001   0.011
   24        0.007   0.003   0.001   0.011
   25        0.015   0.030   2.750   2.796
   26        0.016   0.030   2.735   2.781
   27        0.016   0.031   2.740   2.786
   28        0.015   0.029   2.770   2.814
   29        0.015   0.030   2.740   2.785
   30        0.015   0.030   2.745   2.790
   31        0.015   0.030   2.770   2.815
   32        0.015   0.028   2.772   2.815
   33        0.016   0.031   2.744   2.791
   34        0.016   0.030   2.778   2.823
   35        0.015   0.032   2.732   2.779
   36        0.016   0.032   2.722   2.770
   37        0.015   0.030   2.764   2.809
   38        0.016   0.030   2.770   2.816
   39        0.016   0.031   2.738   2.784
   40        0.015   0.031   2.718   2.764
   41        0.002   0.036   0.000   0.038
   42        0.002   0.041   0.000   0.043
   43        0.002   0.046   0.000   0.048
   44        0.002   0.041   0.000   0.042
   45        0.002   0.051   0.000   0.053
   46        0.002   0.023   0.000   0.025
   47        0.002   0.025   0.000   0.026
   48        0.002   0.033   0.000   0.034
   49        0.002   0.036   0.000   0.038
   50        0.003   0.054   0.000   0.057
   51        0.002   0.032   0.000   0.034
   52        0.002   0.039   0.000   0.041
   53        0.002   0.054   0.000   0.056
   54        0.001  -0.000   0.000   0.001
   55        0.002   0.049   0.000   0.051
   56        0.002   0.031   0.000   0.033
   57        0.002   0.050   0.000   0.052
   58        0.002   0.034   0.000   0.036
   59        0.003   0.067   0.000   0.070
   60        0.002   0.019   0.000   0.021
   61        0.001   0.017   0.000   0.018
   62        0.002   0.031   0.000   0.034
   63        0.002   0.053   0.000   0.055
   64        0.002   0.021   0.000   0.023
   65        0.002   0.022   0.000   0.024
   66        0.002   0.024   0.000   0.026
   67        0.002   0.049   0.000   0.051
   68        0.002   0.023   0.000   0.025
   69        0.002   0.019   0.000   0.021
   70        0.002   0.073   0.000   0.075
   71        0.002   0.039   0.000   0.041
   72        0.002   0.022   0.000   0.025
   73        0.002   0.045   0.000   0.047
   74        0.003   0.050   0.000   0.053
   75        0.002   0.042   0.000   0.044
   76        0.002   0.029   0.000   0.031
   77        0.002   0.016   0.000   0.018
   78        0.002   0.033   0.000   0.035
   79        0.002   0.057   0.000   0.059
   80        0.002   0.023   0.000   0.024
   81        0.002   0.033   0.000   0.035
   82        0.002   0.028   0.000   0.029
   83        0.002   0.031   0.000   0.033
   84        0.002   0.009   0.000   0.011
   85        0.002   0.027   0.000   0.029
   86        0.002   0.025   0.000   0.027
   87        0.002   0.026   0.000   0.027
   88        0.001   0.014   0.000   0.015
--------------------------------------------------
tot          0.426   2.148  43.997  46.571
 

 total amount of memory used by VASP MPI-rank0    94439. kBytes
=======================================================================

   base      :      30000. kBytes
   nonlr-proj:      13680. kBytes
   fftplans  :       1275. kBytes
   grid      :      22786. kBytes
   one-center:       2737. kBytes
   wavefun   :      23961. kBytes
 
  
  
 General timing and accounting informations for this job:
 ========================================================
  
                  Total CPU time used (sec):      710.841
                            User time (sec):      703.400
                          System time (sec):        7.440
                         Elapsed time (sec):      726.704
  
                   Maximum memory used (kb):      195332.
                   Average memory used (kb):           0.
  
                          Minor page faults:       272093
                          Major page faults:            0
                 Voluntary context switches:       233806
