 vasp.5.4.4.18Apr17-6-g9f103f2a35 (build Dec 02 2020 12:53:39) complex          
  
 executed on             LinuxIFC date 2021.08.03  06:13:05
 running on   96 total cores
 distrk:  each k-point on   96 cores,    1 groups
 distr:  one band on NCORES_PER_BAND=   1 cores,   96 groups


--------------------------------------------------------------------------------------------------------


 INCAR:
 POTCAR:    PAW_PBE Na_pv 19Sep2006               
 POTCAR:    PAW_PBE Mg_pv 13Apr2007               
 POTCAR:    PAW_PBE Mn_pv 02Aug2007               
 POTCAR:    PAW_PBE O 08Apr2002                   

 ----------------------------------------------------------------------------- 
|                                                                             |
|           W    W    AA    RRRRR   N    N  II  N    N   GGGG   !!!           |
|           W    W   A  A   R    R  NN   N  II  NN   N  G    G  !!!           |
|           W    W  A    A  R    R  N N  N  II  N N  N  G       !!!           |
|           W WW W  AAAAAA  RRRRR   N  N N  II  N  N N  G  GGG   !            |
|           WW  WW  A    A  R   R   N   NN  II  N   NN  G    G                |
|           W    W  A    A  R    R  N    N  II  N    N   GGGG   !!!           |
|                                                                             |
|      For optimal performance we recommend to set                            |
|        NCORE= 4 - approx SQRT( number of cores)                             |
|      NCORE specifies how many cores store one orbital (NPAR=cpu/NCORE).     |
|      This setting can  greatly improve the performance of VASP for DFT.     |
|      The default,   NCORE=1            might be grossly inefficient         |
|      on modern multi-core architectures or massively parallel machines.     |
|      Do your own testing !!!!                                               |
|      Unfortunately you need to use the default for GW and RPA calculations. |
|      (for HF NCORE is supported but not extensively tested yet)             |
|                                                                             |
 ----------------------------------------------------------------------------- 

 POTCAR:    PAW_PBE Na_pv 19Sep2006               
   VRHFIN =Na: p6s1                                                             
   LEXCH  = PE                                                                  
   EATOM  =   766.0439 eV,   56.3026 Ry                                         
                                                                                
   TITEL  = PAW_PBE Na_pv 19Sep2006                                             
   LULTRA =        F    use ultrasoft PP ?                                      
   IUNSCR =        1    unscreen: 0-lin 1-nonlin 2-no                           
   RPACOR =    1.800    partial core radius                                     
   POMASS =   22.990; ZVAL   =    7.000    mass and valenz                      
   RCORE  =    2.200    outmost cutoff radius                                   
   RWIGS  =    2.200; RWIGS  =    1.164    wigner-seitz radius (au A)           
   ENMAX  =  259.561; ENMIN  =  194.671 eV                                      
   ICORE  =        2    local potential                                         
   LCOR   =        T    correct aug charges                                     
   LPAW   =        T    paw PP                                                  
   EAUG   =  368.056                                                            
   DEXC   =    0.000                                                            
   RMAX   =    2.245    core radius for proj-oper                               
   RAUG   =    1.300    factor for augmentation sphere                          
   RDEP   =    2.259    radius for radial grids                                 
   RDEPT  =    1.738    core radius for aug-charge                              
                                                                                
   Atomic configuration                                                         
    5 entries                                                                   
     n  l   j            E        occ.                                          
     1  0  0.50     -1033.6933   2.0000                                         
     2  0  0.50       -56.7526   2.0000                                         
     2  1  1.50       -28.6721   6.0000                                         
     3  0  0.50        -2.7440   1.0000                                         
     3  2  1.50        -1.3606   0.0000                                         
   Description                                                                  
     l       E           TYP  RCUT    TYP  RCUT                                 
     1    -28.6720912     23  2.000                                             
     1      6.8029130     23  2.000                                             
     0     -2.7439560     23  2.200                                             
     0     34.0145650     23  2.200                                             
     2     -1.3605826     23  2.200                                             
  local pseudopotential read in
  partial core-charges read in
  partial kinetic energy density read in
  atomic valenz-charges read in
  non local Contribution for L=           1  read in
    real space projection operators read in
  non local Contribution for L=           1  read in
    real space projection operators read in
  non local Contribution for L=           0  read in
    real space projection operators read in
  non local Contribution for L=           0  read in
    real space projection operators read in
    PAW grid and wavefunctions read in
 
   number of l-projection  operators is LMAX  =           4
   number of lm-projection operators is LMMAX =           8
 
 POTCAR:    PAW_PBE Mg_pv 13Apr2007               
   VRHFIN =Mg: p6s2                                                             
   LEXCH  = PE                                                                  
   EATOM  =  1056.7344 eV,   77.6678 Ry                                         
                                                                                
   TITEL  = PAW_PBE Mg_pv 13Apr2007                                             
   LULTRA =        F    use ultrasoft PP ?                                      
   IUNSCR =        1    unscreen: 0-lin 1-nonlin 2-no                           
   RPACOR =    1.500    partial core radius                                     
   POMASS =   24.305; ZVAL   =    8.000    mass and valenz                      
   RCORE  =    2.000    outmost cutoff radius                                   
   RWIGS  =    2.000; RWIGS  =    1.058    wigner-seitz radius (au A)           
   ENMAX  =  403.929; ENMIN  =  302.947 eV                                      
   RCLOC  =    1.506    cutoff for local pot                                    
   LCOR   =        T    correct aug charges                                     
   LPAW   =        T    paw PP                                                  
   EAUG   =  758.780                                                            
   DEXC   =    0.000                                                            
   RMAX   =    2.045    core radius for proj-oper                               
   RAUG   =    1.300    factor for augmentation sphere                          
   RDEP   =    2.025    radius for radial grids                                 
   RDEPT  =    1.557    core radius for aug-charge                              
                                                                                
   Atomic configuration                                                         
    5 entries                                                                   
     n  l   j            E        occ.                                          
     1  0  0.50     -1259.6230   2.0000                                         
     2  0  0.50       -79.8442   2.0000                                         
     2  1  1.50       -46.6121   6.0000                                         
     3  0  0.50        -4.7055   2.0000                                         
     3  2  1.50        -1.3606   0.0000                                         
   Description                                                                  
     l       E           TYP  RCUT    TYP  RCUT                                 
     1    -46.6121073     23  1.600                                             
     1      2.7211652     23  1.600                                             
     0     -4.7054661     23  2.000                                             
     0     61.2262170     23  2.000                                             
     2     -1.3605826     23  2.000                                             
  local pseudopotential read in
  partial core-charges read in
  partial kinetic energy density read in
  atomic valenz-charges read in
  non local Contribution for L=           1  read in
    real space projection operators read in
  non local Contribution for L=           1  read in
    real space projection operators read in
  non local Contribution for L=           0  read in
    real space projection operators read in
  non local Contribution for L=           0  read in
    real space projection operators read in
  non local Contribution for L=           2  read in
    real space projection operators read in
    PAW grid and wavefunctions read in
 
   number of l-projection  operators is LMAX  =           5
   number of lm-projection operators is LMMAX =          13
 
 POTCAR:    PAW_PBE Mn_pv 02Aug2007               
   VRHFIN =Mn: 3p4s3d                                                           
   LEXCH  = PE                                                                  
   EATOM  =  2025.2664 eV,  148.8529 Ry                                         
                                                                                
   TITEL  = PAW_PBE Mn_pv 02Aug2007                                             
   LULTRA =        F    use ultrasoft PP ?                                      
   IUNSCR =        1    unscreen: 0-lin 1-nonlin 2-no                           
   RPACOR =    2.080    partial core radius                                     
   POMASS =   54.938; ZVAL   =   13.000    mass and valenz                      
   RCORE  =    2.300    outmost cutoff radius                                   
   RWIGS  =    2.500; RWIGS  =    1.323    wigner-seitz radius (au A)           
   ENMAX  =  269.864; ENMIN  =  202.398 eV                                      
   ICORE  =        3    local potential                                         
   LCOR   =        T    correct aug charges                                     
   LPAW   =        T    paw PP                                                  
   EAUG   =  569.085                                                            
   DEXC   =    0.000                                                            
   RMAX   =    2.343    core radius for proj-oper                               
   RAUG   =    1.300    factor for augmentation sphere                          
   RDEP   =    2.338    radius for radial grids                                 
   RDEPT  =    1.798    core radius for aug-charge                              
                                                                                
   Atomic configuration                                                         
    8 entries                                                                   
     n  l   j            E        occ.                                          
     1  0  0.50     -6424.8287   2.0000                                         
     2  0  0.50      -739.1154   2.0000                                         
     2  1  1.50      -625.3949   6.0000                                         
     3  0  0.50       -81.6100   2.0000                                         
     3  1  1.50       -50.4667   6.0000                                         
     3  2  2.50        -3.3745   6.0000                                         
     4  0  0.50        -4.1331   1.0000                                         
     4  3  2.50        -1.3606   0.0000                                         
   Description                                                                  
     l       E           TYP  RCUT    TYP  RCUT                                 
     1    -50.4666628     23  2.000                                             
     1     -1.3605826     23  2.000                                             
     2     -3.3744729     23  2.300                                             
     2     -4.7350555     23  2.300                                             
     0     -4.1331431     23  2.300                                             
     0      7.6656591     23  2.300                                             
     3      9.5240782     23  2.300                                             
  local pseudopotential read in
  partial core-charges read in
  partial kinetic energy density read in
  atomic valenz-charges read in
  non local Contribution for L=           1  read in
    real space projection operators read in
  non local Contribution for L=           1  read in
    real space projection operators read in
  non local Contribution for L=           2  read in
    real space projection operators read in
  non local Contribution for L=           2  read in
    real space projection operators read in
  non local Contribution for L=           0  read in
    real space projection operators read in
  non local Contribution for L=           0  read in
    real space projection operators read in
    PAW grid and wavefunctions read in
 
   number of l-projection  operators is LMAX  =           6
   number of lm-projection operators is LMMAX =          18
 
 POTCAR:    PAW_PBE O 08Apr2002                   
   VRHFIN =O: s2p4                                                              
   LEXCH  = PE                                                                  
   EATOM  =   432.3788 eV,   31.7789 Ry                                         
                                                                                
   TITEL  = PAW_PBE O 08Apr2002                                                 
   LULTRA =        F    use ultrasoft PP ?                                      
   IUNSCR =        1    unscreen: 0-lin 1-nonlin 2-no                           
   RPACOR =    1.200    partial core radius                                     
   POMASS =   16.000; ZVAL   =    6.000    mass and valenz                      
   RCORE  =    1.520    outmost cutoff radius                                   
   RWIGS  =    1.550; RWIGS  =    0.820    wigner-seitz radius (au A)           
   ENMAX  =  400.000; ENMIN  =  300.000 eV                                      
   ICORE  =        2    local potential                                         
   LCOR   =        T    correct aug charges                                     
   LPAW   =        T    paw PP                                                  
   EAUG   =  605.392                                                            
   DEXC   =    0.000                                                            
   RMAX   =    1.553    core radius for proj-oper                               
   RAUG   =    1.300    factor for augmentation sphere                          
   RDEP   =    1.550    radius for radial grids                                 
   RDEPT  =    1.329    core radius for aug-charge                              
                                                                                
   Atomic configuration                                                         
    4 entries                                                                   
     n  l   j            E        occ.                                          
     1  0  0.50      -514.6923   2.0000                                         
     2  0  0.50       -23.9615   2.0000                                         
     2  1  0.50        -9.0305   4.0000                                         
     3  2  1.50        -9.5241   0.0000                                         
   Description                                                                  
     l       E           TYP  RCUT    TYP  RCUT                                 
     0    -23.9615318     23  1.200                                             
     0     -9.5240782     23  1.200                                             
     1     -9.0304911     23  1.520                                             
     1      8.1634956     23  1.520                                             
     2     -9.5240782      7  1.500                                             
  local pseudopotential read in
  partial core-charges read in
  partial kinetic energy density read in
  kinetic energy density of atom read in
  atomic valenz-charges read in
  non local Contribution for L=           0  read in
    real space projection operators read in
  non local Contribution for L=           0  read in
    real space projection operators read in
  non local Contribution for L=           1  read in
    real space projection operators read in
  non local Contribution for L=           1  read in
    real space projection operators read in
    PAW grid and wavefunctions read in
 
   number of l-projection  operators is LMAX  =           4
   number of lm-projection operators is LMMAX =           8
 
 Optimization of the real space projectors (new method)

 maximal supplied QI-value         = 17.01
 optimisation between [QCUT,QGAM] = [ 10.20, 20.41] = [ 29.16,116.64] Ry 
 Optimized for a Real-space Cutoff    1.30 Angstroem

   l    n(q)    QCUT    max X(q) W(low)/X(q) W(high)/X(q)  e(spline) 
   1      7    10.205     4.940    0.23E-03    0.84E-03    0.11E-06
   1      7    10.205     6.253    0.40E-03    0.13E-02    0.18E-06
   0      8    10.205    37.438    0.23E-03    0.37E-03    0.42E-07
   0      8    10.205     9.606    0.16E-03    0.26E-03    0.31E-07
 Optimization of the real space projectors (new method)

 maximal supplied QI-value         = 18.90
 optimisation between [QCUT,QGAM] = [ 10.20, 20.41] = [ 29.16,116.64] Ry 
 Optimized for a Real-space Cutoff    1.26 Angstroem

   l    n(q)    QCUT    max X(q) W(low)/X(q) W(high)/X(q)  e(spline) 
   1      7    10.205     2.974    0.63E-04    0.14E-03    0.13E-06
   1      7    10.205     4.279    0.11E-03    0.45E-03    0.24E-06
   0      8    10.205    16.381    0.44E-03    0.15E-03    0.55E-07
   0      8    10.205     5.611    0.31E-03    0.11E-03    0.40E-07
   2      7    10.205     4.652    0.50E-03    0.47E-03    0.57E-07
 Optimization of the real space projectors (new method)

 maximal supplied QI-value         = 16.25
 optimisation between [QCUT,QGAM] = [ 10.24, 20.48] = [ 29.35,117.42] Ry 
 Optimized for a Real-space Cutoff    1.34 Angstroem

   l    n(q)    QCUT    max X(q) W(low)/X(q) W(high)/X(q)  e(spline) 
   1      8    10.239     3.658    0.23E-03    0.30E-03    0.98E-07
   1      8    10.239     5.612    0.32E-03    0.65E-03    0.21E-06
   2      7    10.239    55.373    0.42E-03    0.45E-03    0.65E-07
   2      7    10.239    50.863    0.43E-03    0.48E-03    0.67E-07
   0      8    10.239    79.536    0.11E-03    0.21E-03    0.56E-07
   0      8    10.239    38.668    0.96E-04    0.19E-03    0.52E-07
 Optimization of the real space projectors (new method)

 maximal supplied QI-value         = 24.76
 optimisation between [QCUT,QGAM] = [ 10.15, 20.30] = [ 28.85,115.39] Ry 
 Optimized for a Real-space Cutoff    1.38 Angstroem

   l    n(q)    QCUT    max X(q) W(low)/X(q) W(high)/X(q)  e(spline) 
   0      8    10.150    20.381    0.22E-03    0.32E-03    0.29E-06
   0      8    10.150    15.268    0.23E-03    0.35E-03    0.30E-06
   1      8    10.150     5.964    0.46E-03    0.53E-03    0.21E-06
   1      8    10.150     5.382    0.38E-03    0.45E-03    0.19E-06
  PAW_PBE Na_pv 19Sep2006               :
 energy of atom  1       EATOM= -766.0439
 kinetic energy error for atom=    0.0103 (will be added to EATOM!!)
  PAW_PBE Mg_pv 13Apr2007               :
 energy of atom  2       EATOM=-1056.7344
 kinetic energy error for atom=    0.0820 (will be added to EATOM!!)
  PAW_PBE Mn_pv 02Aug2007               :
 energy of atom  3       EATOM=-2025.2664
 kinetic energy error for atom=    0.0284 (will be added to EATOM!!)
  PAW_PBE O 08Apr2002                   :
 energy of atom  4       EATOM= -432.3788
 kinetic energy error for atom=    0.1156 (will be added to EATOM!!)
 
 
 POSCAR: Na Mg Mn  O                             
  positions in cartesian coordinates
  No initial velocities read in

 METAGGA = SCAN     LMAXTAU =  6    LMIXTAU =  F

 exchange correlation table for  LEXCH =        8
   RHO(1)=    0.500       N(1)  =     2000
   RHO(2)=  100.500       N(2)  =     4000

 VTST: version 3.2, (02/03/18)

 CHAIN: initializing optimizer
 
 OPT: Using VASP Dynamics algorithm
 CHAIN: Read ICHAIN            0
 
 POSCAR: Na Mg Mn  O                             
  positions in cartesian coordinates
  No initial velocities read in
 


--------------------------------------------------------------------------------------------------------


 ion  position               nearest neighbor table
   1  0.529  0.698  0.254-  87 2.27  78 2.33
   2  0.370  0.014  0.756-  84 2.23  47 2.31  44 2.36  81 2.37
   3  0.780  0.702  0.745-  71 2.22  68 2.28
   4  0.563  0.346  0.750-  46 2.22  49 2.25
   5  0.917  0.917  0.248-  63 2.13  54 2.24
   6  0.909  0.349  0.259-  62 2.27  55 2.36
   7  0.380  0.517  0.748-  45 2.30  48 2.37
   8  0.586  0.881  0.754-  85 2.30  56 2.33
   9  0.108  0.726  0.239-  77 2.14  86 2.30
  10  0.308  0.107  0.253-  42 2.25  51 2.26  41 2.29  50 2.32  26 2.98
  11  0.725  0.528  0.242-  52 2.25  43 2.34
  12  0.068  0.052  0.743-  69 2.26  58 2.30  44 2.35  27 2.76  25 2.94
  13  0.068  0.547  0.744-  57 2.34  70 2.36  39 2.74  37 2.94
  14  0.799  0.225  0.753-  59 2.24  60 2.30  57 2.37
  15  0.237  0.390  0.237-  55 2.33
  16  0.555  0.030  0.249-  79 2.28  88 2.32  51 2.34  42 2.37  31 2.85  29 2.85
  17  0.738  0.378  1.000-  49 1.99  43 2.05  60 2.05  53 2.11  71 2.13  66 2.13
  18  0.415  0.219  0.505-  45 1.99  51 2.01  44 2.04  50 2.06  52 2.10  46 2.15  27 2.82
  19  0.244  0.383  0.990-  78 1.99  48 2.02  61 2.05  83 2.05  55 2.10  41 2.15  26 2.81  33 2.83

  20  0.912  0.207  0.489-  63 1.96  62 2.00  64 2.05  56 2.11  57 2.13  58 2.13  40 2.83  27 2.84

  21  0.234  0.874  0.997-  77 1.96  73 2.05  84 2.05  67 2.06  42 2.14  47 2.14  38 2.75  37 2.84

  22  0.916  0.713  0.498-  70 1.98  76 2.00  68 2.07  75 2.10  69 2.10  74 2.17  39 2.82  35 2.82
                            28 2.85  36 2.85
  23  0.734  0.873  0.997-  65 1.97  54 2.04  72 2.05  85 2.07  59 2.14  79 2.20
  24  0.418  0.719  0.494-  80 1.94  87 1.94  88 2.08  86 2.08  81 2.09  82 2.19  31 2.83
  25  0.070  0.049  0.005-  61 1.87  41 1.88  67 1.90  54 1.92  72 1.96  47 2.02  30 2.86  26 2.87
                            34 2.93  12 2.94
  26  0.401  0.216  0.004-  43 1.86  47 1.87  42 1.88  41 1.91  49 1.95  48 1.96  19 2.81  33 2.84
                            25 2.87  29 2.93  10 2.98
  27  0.090  0.059  0.498-  50 1.85  58 1.87  44 1.89  63 1.93  69 1.99  76 2.05  12 2.76  36 2.82
                            18 2.82  32 2.83  20 2.84  40 2.92
  28  0.751  0.384  0.497-  62 1.90  57 1.91  68 1.91  75 1.92  52 1.99  46 2.01  39 2.84  22 2.85
                            35 2.87  31 2.94
  29  0.567  0.045  0.996-  84 1.86  59 1.88  79 1.90  49 1.94  42 1.96  53 1.98  38 2.81  16 2.85
                            30 2.92  26 2.93
  30  0.904  0.213  0.004-  55 1.88  54 1.91  61 1.92  53 1.93  60 1.93  59 1.94  25 2.86  37 2.90
                            29 2.92
  31  0.582  0.045  0.502-  81 1.84  88 1.86  62 1.97  56 1.97  46 2.00  51 2.00  24 2.83  16 2.85
                            40 2.90  36 2.94  28 2.94
  32  0.247  0.385  0.503-  58 1.88  87 1.91  64 1.92  80 1.92  45 1.93  50 1.97  27 2.83  39 2.90
                            35 2.98
  33  0.568  0.544  0.008-  48 1.84  43 1.85  71 1.91  65 1.98  78 2.00  85 2.09  19 2.83  26 2.84
                            34 2.90  38 3.02
  34  0.902  0.711  0.000-  72 1.87  71 1.88  73 1.90  66 1.93  67 1.98  65 2.04  37 2.89  33 2.90
                            25 2.93
  35  0.591  0.554  0.495-  52 1.89  68 1.93  74 1.93  82 1.94  87 1.94  45 1.97  22 2.82  40 2.85
                            28 2.87  32 2.98
  36  0.244  0.889  0.508-  70 1.90  76 1.92  44 1.94  86 1.96  81 1.97  51 2.01  27 2.82  22 2.85
                            31 2.94  39 2.95
  37  0.071  0.547  0.007-  77 1.88  60 1.90  73 1.90  66 1.93  55 1.95  83 1.96  21 2.84  38 2.85
                            34 2.89  30 2.90  13 2.94
  38  0.399  0.721  0.997-  78 1.87  79 1.88  77 1.91  83 1.94  84 1.94  85 1.97  21 2.75  29 2.81
                            37 2.85  33 3.02
  39  0.078  0.550  0.500-  64 1.82  80 1.86  57 1.89  70 1.96  86 1.98  75 2.02  13 2.74  22 2.82
                            28 2.84  32 2.90  36 2.95
  40  0.753  0.882  0.500-  74 1.86  69 1.93  56 1.96  63 1.96  88 1.99  82 1.99  20 2.83  35 2.85
                            31 2.90  27 2.92
  41  0.233  0.199  0.096-  25 1.88  26 1.91  19 2.15  10 2.29
  42  0.415  0.064  0.092-  26 1.88  29 1.96  21 2.14  10 2.25  16 2.37
  43  0.559  0.378  0.088-  33 1.85  26 1.86  17 2.05  11 2.34
  44  0.236  0.050  0.598-  27 1.89  36 1.94  18 2.04  12 2.35   2 2.36
  45  0.419  0.395  0.589-  32 1.93  35 1.97  18 1.99   7 2.30
  46  0.597  0.216  0.604-  31 2.00  28 2.01  18 2.15   4 2.22
  47  0.246  0.068  0.907-  26 1.87  25 2.02  21 2.14   2 2.31
  48  0.428  0.392  0.908-  33 1.84  26 1.96  19 2.02   7 2.37
  49  0.562  0.211  0.910-  29 1.94  26 1.95  17 1.99   4 2.25
  50  0.239  0.216  0.407-  27 1.85  32 1.97  18 2.06  10 2.32
  51  0.415  0.050  0.408-  31 2.00  36 2.01  18 2.01  10 2.26  16 2.34
  52  0.589  0.395  0.402-  35 1.89  28 1.99  18 2.10  11 2.25
  53  0.735  0.197  0.099-  30 1.93  29 1.98  17 2.11
  54  0.905  0.050  0.092-  30 1.91  25 1.92  23 2.04   5 2.24
  55  0.062  0.373  0.092-  30 1.88  37 1.95  19 2.10  15 2.33   6 2.36
  56  0.741  0.037  0.600-  40 1.96  31 1.97  20 2.11   8 2.33
  57  0.916  0.390  0.587-  39 1.89  28 1.91  20 2.13  13 2.34  14 2.37
  58  0.096  0.217  0.590-  27 1.87  32 1.88  20 2.13  12 2.30
  59  0.735  0.062  0.908-  29 1.88  30 1.94  23 2.14  14 2.24
  60  0.920  0.384  0.913-  37 1.90  30 1.93  17 2.05  14 2.30
  61  0.058  0.198  0.913-  25 1.87  30 1.92  19 2.05
  62  0.739  0.218  0.407-  28 1.90  31 1.97  20 2.00   6 2.27
  63  0.920  0.041  0.404-  27 1.93  20 1.96  40 1.96   5 2.13
  64  0.092  0.402  0.416-  39 1.82  32 1.92  20 2.05
  65  0.733  0.713  0.101-  23 1.97  33 1.98  34 2.04
  66  0.917  0.561  0.099-  37 1.93  34 1.93  17 2.13
  67  0.064  0.884  0.094-  25 1.90  34 1.98  21 2.06
  68  0.739  0.536  0.593-  28 1.91  35 1.93  22 2.07   3 2.28
  69  0.920  0.895  0.595-  40 1.93  27 1.99  22 2.10  12 2.26
  70  0.086  0.719  0.593-  36 1.90  39 1.96  22 1.98  13 2.36
  71  0.735  0.564  0.911-  34 1.88  33 1.91  17 2.13   3 2.22
  72  0.916  0.875  0.911-  34 1.87  25 1.96  23 2.05
  73  0.053  0.694  0.911-  34 1.90  37 1.90  21 2.05
  74  0.737  0.727  0.400-  40 1.86  35 1.93  22 2.17
  75  0.908  0.534  0.394-  28 1.92  39 2.02  22 2.10
  76  0.088  0.882  0.405-  36 1.92  22 2.00  27 2.05
  77  0.234  0.709  0.091-  37 1.88  38 1.91  21 1.96   9 2.14
  78  0.398  0.562  0.084-  38 1.87  19 1.99  33 2.00   1 2.33
  79  0.547  0.881  0.093-  38 1.88  29 1.90  23 2.20  16 2.28
  80  0.245  0.555  0.578-  39 1.86  32 1.92  24 1.94
  81  0.422  0.898  0.592-  31 1.84  36 1.97  24 2.09   2 2.37
  82  0.597  0.710  0.600-  35 1.94  40 1.99  24 2.19
  83  0.235  0.559  0.904-  38 1.94  37 1.96  19 2.05
  84  0.416  0.891  0.901-  29 1.86  38 1.94  21 2.05   2 2.23
  85  0.553  0.704  0.899-  38 1.97  23 2.07  33 2.09   8 2.30
  86  0.238  0.726  0.407-  36 1.96  39 1.98  24 2.08   9 2.30
  87  0.414  0.544  0.414-  32 1.91  35 1.94  24 1.94   1 2.27
  88  0.597  0.903  0.404-  31 1.86  40 1.99  24 2.08  16 2.32
 
  LATTYP: Found a hexagonal cell.
 ALAT       =    10.0190000534
 C/A-ratio  =     1.1196726572
  
  Lattice vectors:
  
 A1 = (  10.0190000534,   0.0000000000,   0.0000000000)
 A2 = (  -5.0095000267,   8.6767085668,   0.0000000000)
 A3 = (   0.0000000000,   0.0000000000,  11.2180004120)


Analysis of symmetry for initial positions (statically):
=====================================================================
 Subroutine PRICEL returns:
 Original cell was already a primitive cell.
 

 Routine SETGRP: Setting up the symmetry group for a 
 hexagonal supercell.


 Subroutine GETGRP returns: Found  1 space group operations
 (whereof  1 operations were pure point group operations)
 out of a pool of 24 trial point group operations.


The static configuration has the point symmetry C_1 .


Analysis of symmetry for dynamics (positions and initial velocities):
=====================================================================
 Subroutine PRICEL returns:
 Original cell was already a primitive cell.
 

 Routine SETGRP: Setting up the symmetry group for a 
 hexagonal supercell.


 Subroutine GETGRP returns: Found  1 space group operations
 (whereof  1 operations were pure point group operations)
 out of a pool of 24 trial point group operations.


The dynamic configuration has the point symmetry C_1 .


Analysis of structural, dynamic, and magnetic symmetry:
=====================================================================
 Subroutine PRICEL returns:
 Original cell was already a primitive cell.
 

 Routine SETGRP: Setting up the symmetry group for a 
 hexagonal supercell.


 Subroutine GETGRP returns: Found  1 space group operations
 (whereof  1 operations were pure point group operations)
 out of a pool of 24 trial point group operations.


The magnetic configuration has the point symmetry C_1 .


 Subroutine INISYM returns: Found  1 space group operations
 (whereof  1 operations are pure point group operations),
 and found     1 'primitive' translations

 
 

Automatic generation of k-mesh.
 generate k-points for:    2    2    2
Space group operators:
 irot       det(A)        alpha          n_x          n_y          n_z        tau_x        tau_y        tau_z
    1     1.000000     0.000000     1.000000     0.000000     0.000000     0.000000     0.000000     0.000000
 
 Subroutine IBZKPT returns following result:
 ===========================================
 
 Found      8 irreducible k-points:
 
 Following reciprocal coordinates:
            Coordinates               Weight
  0.000000  0.000000  0.000000      1.000000
  0.500000 -0.000000 -0.000000      1.000000
  0.000000  0.500000  0.000000      1.000000
  0.500000  0.500000 -0.000000      1.000000
  0.000000  0.000000  0.500000      1.000000
  0.500000 -0.000000  0.500000      1.000000
  0.000000  0.500000  0.500000      1.000000
  0.500000  0.500000  0.500000      1.000000
 
 Following cartesian coordinates:
            Coordinates               Weight
  0.000000  0.000000  0.000000      1.000000
  0.049905  0.028813 -0.000000      1.000000
  0.000000  0.057626  0.000000      1.000000
  0.049905  0.086438 -0.000000      1.000000
  0.000000  0.000000  0.044571      1.000000
  0.049905  0.028813  0.044571      1.000000
  0.000000  0.057626  0.044571      1.000000
  0.049905  0.086438  0.044571      1.000000
 


--------------------------------------------------------------------------------------------------------




 Dimension of arrays:
   k-points           NKPTS =      8   k-points in BZ     NKDIM =      8   number of bands    NBANDS=    480
   number of dos      NEDOS =    301   number of ions     NIONS =     88
   non local maximal  LDIM  =      6   non local SUM 2l+1 LMDIM =     18
   total plane-waves  NPLWV = 140000
   max r-space proj   IRMAX =   1632   max aug-charges    IRDMAX=   4555
   dimension x,y,z NGX =    50 NGY =   50 NGZ =   56
   dimension x,y,z NGXF=   100 NGYF=  100 NGZF=  112
   support grid    NGXF=   100 NGYF=  100 NGZF=  112
   ions per type =              16   8  16  48
   NGX,Y,Z   is equivalent  to a cutoff of   8.30,  8.30,  8.30 a.u.
   NGXF,Y,Z  is equivalent  to a cutoff of  16.59, 16.59, 16.60 a.u.

 SYSTEM =  unknown system                          
 POSCAR =  Na Mg Mn  O                             

 Startparameter for this run:
   NWRITE =      2    write-flag & timer
   PREC   = normal    normal or accurate (medium, high low for compatibility)
   ISTART =      0    job   : 0-new  1-cont  2-samecut
   ICHARG =      1    charge: 1-file 2-atom 10-const
   ISPIN  =      2    spin polarized calculation?
   LNONCOLLINEAR =      F non collinear calculations
   LSORBIT =      F    spin-orbit coupling
   INIWAV =      1    electr: 0-lowe 1-rand  2-diag
   LASPH  =      T    aspherical Exc in radial PAW
   METAGGA=      F    non-selfconsistent MetaGGA calc.

 Electronic Relaxation 1
   ENCUT  =  400.0 eV  29.40 Ry    5.42 a.u.  16.34 16.34 18.29*2*pi/ulx,y,z
   ENINI  =  400.0     initial cutoff
   ENAUG  =  758.8 eV  augmentation charge cutoff
   NELM   =    200;   NELMIN=  6; NELMDL=-12     # of ELM steps 
   EDIFF  = 0.1E-04   stopping-criterion for ELM
   LREAL  =      T    real-space projection
   NLSPLINE    = F    spline interpolate recip. space projectors
   LCOMPAT=      F    compatible to vasp.4.4
   GGA_COMPAT  = T    GGA compatible to vasp.4.4-vasp.4.6
   LMAXPAW     = -100 max onsite density
   LMAXMIX     =    4 max onsite mixed and CHGCAR
   VOSKOWN=      0    Vosko Wilk Nusair interpolation
   ROPT   =   -0.00050  -0.00050  -0.00050  -0.00050
 Ionic relaxation
   EDIFFG = 0.1E-03   stopping-criterion for IOM
   NSW    =      1    number of steps for IOM
   NBLOCK =      1;   KBLOCK =      1    inner block; outer block 
   IBRION =     -1    ionic relax: 0-MD 1-quasi-New 2-CG
   NFREE  =      0    steps in history (QN), initial steepest desc. (CG)
   ISIF   =      2    stress and relaxation
   IWAVPR =     10    prediction:  0-non 1-charg 2-wave 3-comb
   ISYM   =      2    0-nonsym 1-usesym 2-fastsym
   LCORR  =      T    Harris-Foulkes like correction to forces

   POTIM  = 0.5000    time-step for ionic-motion
   TEIN   =    0.0    initial temperature
   TEBEG  =    0.0;   TEEND  =   0.0 temperature during run
   SMASS  =  -3.00    Nose mass-parameter (am)
   estimated Nose-frequenzy (Omega)   =  0.10E-29 period in steps =****** mass=  -0.229E-26a.u.
   SCALEE = 1.0000    scale energy and forces
   NPACO  =    256;   APACO  = 16.0  distance and # of slots for P.C.
   PSTRESS=    0.0 pullay stress

  Mass of Ions in am
   POMASS =  22.99 24.30 54.94 16.00
  Ionic Valenz
   ZVAL   =   7.00  8.00 13.00  6.00
  Atomic Wigner-Seitz radii
   RWIGS  =  -1.00 -1.00 -1.00 -1.00
  virtual crystal weights 
   VCA    =   1.00  1.00  1.00  1.00
   NELECT =     672.0000    total number of electrons
   NUPDOWN=      48.0000    fix difference up-down

 DOS related values:
   EMIN   =  10.00;   EMAX   =-10.00  energy-range for DOS
   EFERMI =   0.00
   ISMEAR =     0;   SIGMA  =   0.05  broadening in eV -4-tet -1-fermi 0-gaus

 Electronic relaxation 2 (details)
   IALGO  =     48    algorithm
   LDIAG  =      T    sub-space diagonalisation (order eigenvalues)
   LSUBROT=      F    optimize rotation matrix (better conditioning)
   TURBO    =      0    0=normal 1=particle mesh
   IRESTART =      0    0=no restart 2=restart with 2 vectors
   NREBOOT  =      0    no. of reboots
   NMIN     =      0    reboot dimension
   EREF     =   0.00    reference energy to select bands
   IMIX   =      4    mixing-type and parameters
     AMIX     =   0.40;   BMIX     =  1.00
     AMIX_MAG =   1.60;   BMIX_MAG =  1.00
     AMIN     =   0.10
     WC   =   100.;   INIMIX=   1;  MIXPRE=   1;  MAXMIX= -45

 Intra band minimization:
   WEIMIN = 0.0000     energy-eigenvalue tresh-hold
   EBREAK =  0.52E-08  absolut break condition
   DEPER  =   0.30     relativ break condition  

   TIME   =   0.40     timestep for ELM

  volume/ion in A,a.u.               =      11.08        74.78
  Fermi-wavevector in a.u.,A,eV,Ry     =   1.445993  2.732531 28.448379  2.090897
  Thomas-Fermi vector in A             =   2.564112
 
 Write flags
   LWAVE        =      F    write WAVECAR
   LDOWNSAMPLE  =      F    k-point downsampling of WAVECAR
   LCHARG       =      F    write CHGCAR
   LVTOT        =      F    write LOCPOT, total local potential
   LVHAR        =      F    write LOCPOT, Hartree potential only
   LELF         =      F    write electronic localiz. function (ELF)
   LORBIT       =     11    0 simple, 1 ext, 2 COOP (PROOUT), +10 PAW based schemes


 Dipole corrections
   LMONO  =      F    monopole corrections only (constant potential shift)
   LDIPOL =      F    correct potential (dipole corrections)
   IDIPOL =      0    1-x, 2-y, 3-z, 4-all directions 
   EPSILON=  1.0000000 bulk dielectric constant

 Exchange correlation treatment:
   GGA     =    --    GGA type
   LEXCH   =     8    internal setting for exchange type
   VOSKOWN=      0    Vosko Wilk Nusair interpolation
   LHFCALC =     F    Hartree Fock is set to
   LHFONE  =     F    Hartree Fock one center treatment
   AEXX    =    0.0000 exact exchange contribution

 Linear response parameters
   LEPSILON=     F    determine dielectric tensor
   LRPA    =     F    only Hartree local field effects (RPA)
   LNABLA  =     F    use nabla operator in PAW spheres
   LVEL    =     F    velocity operator in full k-point grid
   LINTERFAST=   F  fast interpolation
   KINTER  =     0    interpolate to denser k-point grid
   CSHIFT  =0.1000    complex shift for real part using Kramers Kronig
   OMEGAMAX=  -1.0    maximum frequency
   DEG_THRESHOLD= 0.2000000E-02 threshold for treating states as degnerate
   RTIME   =   -0.100 relaxation time in fs
  (WPLASMAI=    0.000 imaginary part of plasma frequency in eV, 0.658/RTIME)
   DFIELD  = 0.0000000 0.0000000 0.0000000 field for delta impulse in time
 
 Orbital magnetization related:
   ORBITALMAG=     F  switch on orbital magnetization
   LCHIMAG   =     F  perturbation theory with respect to B field
   DQ        =  0.001000  dq finite difference perturbation B field
   LLRAUG    =     F  two centre corrections for induced B field



--------------------------------------------------------------------------------------------------------


 Static calculation
 charge density and potential will be updated during run
 spin polarized calculation
 RMM-DIIS sequential band-by-band
 perform sub-space diagonalisation
    before iterative eigenvector-optimisation
 modified Broyden-mixing scheme, WC =      100.0
 initial mixing is a Kerker type mixing with AMIX =  0.4000 and BMIX =      1.0000
 Hartree-type preconditioning will be used
 using additional bands          144
 real space projection scheme for non local part
 use partial core corrections
 calculate Harris-corrections to forces 
   (improved forces if not selfconsistent)
 use gradient corrections 
 use of overlap-Matrix (Vanderbilt PP)
 Gauss-broadening in eV      SIGMA  =   0.05


--------------------------------------------------------------------------------------------------------


  energy-cutoff  :      400.00
  volume of cell :      975.20
      direct lattice vectors                 reciprocal lattice vectors
    10.019000053  0.000000000  0.000000000     0.099810360  0.057625538 -0.000000000
    -5.009500027  8.676708567  0.000000000     0.000000000  0.115251076  0.000000000
     0.000000000  0.000000000 11.218000412     0.000000000  0.000000000  0.089142446

  length of vectors
    10.019000053 10.019000053 11.218000412     0.115251076  0.115251076  0.089142446


 
 k-points in units of 2pi/SCALE and weight: read from INCAR                         
   0.00000000  0.00000000  0.00000000       0.125
   0.04990518  0.02881277 -0.00000000       0.125
   0.00000000  0.05762554  0.00000000       0.125
   0.04990518  0.08643831 -0.00000000       0.125
   0.00000000  0.00000000  0.04457122       0.125
   0.04990518  0.02881277  0.04457122       0.125
   0.00000000  0.05762554  0.04457122       0.125
   0.04990518  0.08643831  0.04457122       0.125
 
 k-points in reciprocal lattice and weights: read from INCAR                         
   0.00000000  0.00000000  0.00000000       0.125
   0.50000000 -0.00000000 -0.00000000       0.125
   0.00000000  0.50000000  0.00000000       0.125
   0.50000000  0.50000000 -0.00000000       0.125
   0.00000000  0.00000000  0.50000000       0.125
   0.50000000 -0.00000000  0.50000000       0.125
   0.00000000  0.50000000  0.50000000       0.125
   0.50000000  0.50000000  0.50000000       0.125
 
 position of ions in fractional coordinates (direct lattice) 
   0.52934284  0.69823053  0.25426813
   0.36951239  0.01404219  0.75621944
   0.77989622  0.70215895  0.74543499
   0.56336500  0.34566004  0.74981366
   0.91686634  0.91676172  0.24846852
   0.90854423  0.34863253  0.25869227
   0.38040020  0.51670219  0.74817077
   0.58558361  0.88087879  0.75436260
   0.10812746  0.72622601  0.23854697
   0.30790125  0.10666981  0.25329470
   0.72522101  0.52813443  0.24182741
   0.06809401  0.05238722  0.74306826
   0.06758394  0.54718511  0.74427970
   0.79912206  0.22453412  0.75319305
   0.23722365  0.39016144  0.23661614
   0.55459361  0.02985595  0.24898020
   0.73788172  0.37751412  0.99989006
   0.41487980  0.21863475  0.50453555
   0.24365362  0.38271655  0.99021212
   0.91160050  0.20701975  0.48850150
   0.23400846  0.87368614  0.99730618
   0.91594167  0.71265388  0.49806024
   0.73426747  0.87278487  0.99710048
   0.41847986  0.71882557  0.49370118
   0.06975663  0.04889543  0.00539202
   0.40097005  0.21637468  0.00418195
   0.08956725  0.05884305  0.49764662
   0.75105931  0.38386330  0.49688267
   0.56727476  0.04495615  0.99553283
   0.90380297  0.21295979  0.00412726
   0.58232527  0.04492602  0.50181760
   0.24720634  0.38492131  0.50251023
   0.56848134  0.54370387  0.00768322
   0.90224285  0.71140456  0.00041165
   0.59056546  0.55359126  0.49486181
   0.24442654  0.88912056  0.50776072
   0.07106942  0.54712337  0.00667895
   0.39895990  0.72148902  0.99679003
   0.07825256  0.54986173  0.49978515
   0.75281498  0.88154972  0.50043321
   0.23255178  0.19936246  0.09648333
   0.41488146  0.06351279  0.09217864
   0.55946760  0.37793709  0.08825664
   0.23567680  0.04969873  0.59819663
   0.41862252  0.39540454  0.58918165
   0.59738109  0.21583415  0.60398732
   0.24642956  0.06787459  0.90652519
   0.42814425  0.39231005  0.90845959
   0.56189283  0.21097401  0.91041180
   0.23934912  0.21603929  0.40672489
   0.41497496  0.05008367  0.40786681
   0.58905328  0.39540570  0.40206007
   0.73541615  0.19721418  0.09882332
   0.90519337  0.04999949  0.09192815
   0.06243269  0.37346304  0.09151898
   0.74133134  0.03688166  0.59987696
   0.91576860  0.39002808  0.58741396
   0.09603669  0.21700740  0.59044034
   0.73477858  0.06159628  0.90752359
   0.92029707  0.38397971  0.91250665
   0.05784283  0.19799328  0.91280974
   0.73930248  0.21781647  0.40700747
   0.92025660  0.04070684  0.40369227
   0.09166046  0.40199345  0.41550631
   0.73313521  0.71333501  0.10096987
   0.91673541  0.56131193  0.09944820
   0.06420161  0.88413134  0.09362542
   0.73926083  0.53574693  0.59276072
   0.92019364  0.89469410  0.59459527
   0.08594642  0.71936264  0.59269832
   0.73450574  0.56363769  0.91095557
   0.91561879  0.87537572  0.91094666
   0.05325135  0.69385873  0.91083077
   0.73663643  0.72668339  0.40034942
   0.90808827  0.53445382  0.39447137
   0.08823301  0.88188971  0.40508556
   0.23413617  0.70899696  0.09095560
   0.39782744  0.56169341  0.08419709
   0.54705153  0.88088818  0.09285879
   0.24462965  0.55531080  0.57834371
   0.42197093  0.89829340  0.59185503
   0.59652228  0.70981870  0.60027365
   0.23476139  0.55870034  0.90427880
   0.41630053  0.89065455  0.90104293
   0.55274572  0.70439153  0.89919768
   0.23822048  0.72611059  0.40705472
   0.41423909  0.54411647  0.41440184
   0.59732096  0.90273056  0.40438223
 
 position of ions in cartesian coordinates  (Angst):
   1.80570003  6.05834283  2.85238000
   3.63180029  0.12184003  8.48327000
   4.29631503  6.09242857  8.36229000
   3.91276997  2.99919143  8.41141000
   4.59356603  7.95447430  2.78732000
   7.35623000  3.02498287  2.90201000
   1.22280997  4.48327430  8.39298000
   1.45419987  7.64312857  8.46244000
  -2.55470016  6.30125140  2.67602000
   2.55050019  0.92554283  2.84146000
   4.62029987  4.58246857  2.71282000
   0.41980016  0.45454860  8.33574000
  -2.06400032  4.74776573  8.34933000
   6.88160032  1.94821713  8.44932000
   0.42223005  3.38531713  2.65436000
   5.40691005  0.25905140  2.79306000
   5.50168000  3.27558000 11.21676714
   3.06143000  1.89703000  5.65988000
   0.52394700  3.32072000 11.10820000
   8.09626000  1.79625000  5.48001000
  -2.03220000  7.58072000 11.18778111
   5.60678000  6.18349000  5.58724000
   2.98441000  7.57290000 11.18547361
   0.59179300  6.23704000  5.53834000
   0.45394997  0.42425143  0.06048770
   2.93339000  1.87742000  0.04691310
   0.60260000  0.51056400  5.58260000
   5.60190000  3.33067000  5.57403000
   5.45831803  0.39007143 11.16788771
   7.98838000  1.84779000  0.04629959
   5.60926000  0.38981000  5.62939000
   0.54849700  3.33985000  5.63716000
   2.97193000  4.71756000  0.08619040
   5.47579000  6.17265000  0.00461787
   3.14366000  4.80335000  5.55136000
  -2.00514000  7.71464000  5.69606000
  -2.02877000  4.74723000  0.07492450
   0.38288000  6.26015000 11.18199101
  -1.97052000  4.77099000  5.60659000
   3.12633000  7.64895000  5.61386000
   1.33123000  1.72981000  1.08235000
   3.83853000  0.55108200  1.03406000
   3.71203000  3.27925000  0.99006300
   2.11228003  0.43122143  6.71057000
   2.21340000  3.43081000  6.60944000
   4.90394000  1.87273000  6.77553000
   2.12896000  0.58892800 10.16940000
   2.32430000  3.40396000 10.19110000
   4.57273000  1.83056000 10.21300000
   1.31579000  1.87451000  4.56264000
   3.90674003  0.43456143  4.57545000
   3.92094000  3.43082000  4.51031000
   6.38019000  1.71117000  1.10860000
   8.81866000  0.43383100  1.03125000
  -1.24535005  3.24043000  1.02666000
   7.24264003  0.32001143  6.72942000
   7.22124000  3.38416000  6.58961000
  -0.12490700  1.88291000  6.62356000
   7.05318000  0.53445300 10.18060000
   7.29691000  3.33168000 10.23650000
  -0.41232005  1.71793000 10.23990000
   6.31592000  1.88993000  4.56581000
   9.01613003  0.35320143  4.52862000
  -1.09544000  3.48798000  4.66115000
   3.77183000  6.18940000  1.13268000
   6.37288000  4.87034000  1.11561000
  -3.78582005  7.67135000  1.05029000
   4.72283000  4.64852000  6.64959000
   4.73745000  7.76300000  6.67017000
  -2.74255000  6.24170000  6.64889000
   4.53547000  4.89052000 10.21910000
   4.78839000  7.59538000 10.21900000
  -2.94236005  6.02041000 10.21770000
   3.74004000  6.30522000  4.49112000
   6.42079000  4.63730000  4.42518000
  -3.53382000  7.65190000  4.54425000
  -1.20591000  6.15176000  1.02034000
   1.17203000  4.87365000  0.94452300
   1.06810000  7.64321000  1.04169000
  -0.33088500  4.81827000  6.48786000
  -0.27227400  7.79423000  6.63943000
   2.42072000  6.15889000  6.73387000
  -0.44673500  4.84768000 10.14420000
  -0.29081900  7.72795000 10.10790000
   2.00931000  6.11180000 10.08720000
  -1.25072000  6.30025000  4.56634000
   1.42451000  4.72114000  4.64876000
   1.46233000  7.83273000  4.53636000
 


--------------------------------------------------------------------------------------------------------


 k-point  1 :   0.0000 0.0000 0.0000  plane waves:   17725
 k-point  2 :   0.5000-0.0000-0.0000  plane waves:   17736
 k-point  3 :   0.0000 0.5000 0.0000  plane waves:   17736
 k-point  4 :   0.5000 0.5000-0.0000  plane waves:   17736
 k-point  5 :   0.0000 0.0000 0.5000  plane waves:   17676
 k-point  6 :   0.5000-0.0000 0.5000  plane waves:   17700
 k-point  7 :   0.0000 0.5000 0.5000  plane waves:   17700
 k-point  8 :   0.5000 0.5000 0.5000  plane waves:   17700

 maximum and minimum number of plane-waves per node :     17736    17676

 maximum number of plane-waves:     17736
 maximum index in each direction: 
   IXMAX=   16   IYMAX=   16   IZMAX=   18
   IXMIN=  -16   IYMIN=  -16   IZMIN=  -18


 serial   3D FFT for wavefunctions
 parallel 3D FFT for charge:
    minimum data exchange during FFTs selected (reduces bandwidth)


 total amount of memory used by VASP MPI-rank0    94424. kBytes
=======================================================================

   base      :      30000. kBytes
   nonlr-proj:      13665. kBytes
   fftplans  :       1275. kBytes
   grid      :      22786. kBytes
   one-center:       2737. kBytes
   wavefun   :      23961. kBytes
 
     INWAV:  cpu time    0.0000: real time    0.0001
 Broyden mixing: mesh for mixing (old mesh)
   NGX = 33   NGY = 33   NGZ = 37
  (NGX  =100   NGY  =100   NGZ  =112)
  gives a total of  40293 points

 initial charge density was supplied:
 charge density of overlapping atoms calculated
 number of electron     672.0000000 magnetization      48.0000000
 keeping initial charge density in first step


--------------------------------------------------------------------------------------------------------


 Maximum index for non-local projection operator         1547
 Maximum index for augmentation-charges          329 (set IRDMAX)


--------------------------------------------------------------------------------------------------------


 First call to EWALD:  gamma=   0.179
 Maximum number of real-space cells 3x 3x 2
 Maximum number of reciprocal cells 3x 3x 3

    FEWALD:  cpu time    0.0027: real time    0.0027


--------------------------------------- Iteration      1(   1)  ---------------------------------------


    POTLOK:  cpu time    0.1895: real time    0.1906
    SETDIJ:  cpu time    4.6438: real time    4.6463
    EDDIAG:  cpu time    4.3885: real time    4.7991
  RMM-DIIS:  cpu time    9.0135: real time    9.0336
    ORTHCH:  cpu time    1.1783: real time    1.2715
       DOS:  cpu time    0.0020: real time    0.0021
    --------------------------------------------
      LOOP:  cpu time   19.4155: real time   19.9432

 eigenvalue-minimisations  :  7680
 total energy-change (2. order) : 0.1494973E+04  (-0.3499111E+05)
 number of electron     672.0000000 magnetization      48.0000000
 augmentation part      672.0000000 magnetization      48.0000000

 Free energy of the ion-electron system (eV)
  ---------------------------------------------------
  alpha Z        PSCENC =      2652.81237852
  Ewald energy   TEWEN  =    -41950.17697888
  -Hartree energ DENC   =    -25669.77892037
  -exchange      EXHF   =         0.00000000
  -V(xc)+E(xc)   XCENC  =      3605.66711477
  PAW double counting   =     55594.23204139   -59034.67079123
  entropy T*S    EENTRO =        -0.05483851
  eigenvalues    EBANDS =     -7565.25517256
  atomic energy  EATOM  =     73862.19814772
  Solvation  Ediel_sol  =         0.00000000
  ---------------------------------------------------
  free energy    TOTEN  =      1494.97298086 eV

  energy without entropy =     1495.02781936  energy(sigma->0) =     1495.00040011


--------------------------------------------------------------------------------------------------------




--------------------------------------- Iteration      1(   2)  ---------------------------------------


    EDDIAG:  cpu time    4.4175: real time    4.8145
  RMM-DIIS:  cpu time    9.0427: real time    9.0482
    ORTHCH:  cpu time    1.1576: real time    1.2416
       DOS:  cpu time    0.0018: real time    0.0018
    --------------------------------------------
      LOOP:  cpu time   14.6196: real time   15.1060

 eigenvalue-minimisations  :  7680
 total energy-change (2. order) :-0.2216112E+04  (-0.8000270E+04)
 number of electron     672.0000000 magnetization      48.0000000
 augmentation part      672.0000000 magnetization      48.0000000

 Free energy of the ion-electron system (eV)
  ---------------------------------------------------
  alpha Z        PSCENC =      2652.81237852
  Ewald energy   TEWEN  =    -41950.17697888
  -Hartree energ DENC   =    -25669.77892037
  -exchange      EXHF   =         0.00000000
  -V(xc)+E(xc)   XCENC  =      3605.66711477
  PAW double counting   =     55594.23204139   -59034.67079123
  entropy T*S    EENTRO =        -0.04281630
  eigenvalues    EBANDS =     -9781.37963290
  atomic energy  EATOM  =     73862.19814772
  Solvation  Ediel_sol  =         0.00000000
  ---------------------------------------------------
  free energy    TOTEN  =      -721.13945728 eV

  energy without entropy =     -721.09664097  energy(sigma->0) =     -721.11804913


--------------------------------------------------------------------------------------------------------




--------------------------------------- Iteration      1(   3)  ---------------------------------------


    EDDIAG:  cpu time    4.4310: real time    4.8405
  RMM-DIIS:  cpu time    8.9951: real time    9.0186
    ORTHCH:  cpu time    1.2022: real time    1.2964
       DOS:  cpu time    0.0027: real time    0.0027
    --------------------------------------------
      LOOP:  cpu time   14.6310: real time   15.1581

 eigenvalue-minimisations  :  7680
 total energy-change (2. order) : 0.7389492E+02  (-0.1417910E+04)
 number of electron     672.0000000 magnetization      48.0000000
 augmentation part      672.0000000 magnetization      48.0000000

 Free energy of the ion-electron system (eV)
  ---------------------------------------------------
  alpha Z        PSCENC =      2652.81237852
  Ewald energy   TEWEN  =    -41950.17697888
  -Hartree energ DENC   =    -25669.77892037
  -exchange      EXHF   =         0.00000000
  -V(xc)+E(xc)   XCENC  =      3605.66711477
  PAW double counting   =     55594.23204139   -59034.67079123
  entropy T*S    EENTRO =        -0.03866912
  eigenvalues    EBANDS =     -9707.48885681
  atomic energy  EATOM  =     73862.19814772
  Solvation  Ediel_sol  =         0.00000000
  ---------------------------------------------------
  free energy    TOTEN  =      -647.24453401 eV

  energy without entropy =     -647.20586489  energy(sigma->0) =     -647.22519945


--------------------------------------------------------------------------------------------------------




--------------------------------------- Iteration      1(   4)  ---------------------------------------


    EDDIAG:  cpu time    4.3823: real time    4.8792
  RMM-DIIS:  cpu time    9.0488: real time    9.0568
    ORTHCH:  cpu time    1.1655: real time    1.2606
       DOS:  cpu time    0.0011: real time    0.0011
    --------------------------------------------
      LOOP:  cpu time   14.5977: real time   15.1977

 eigenvalue-minimisations  :  7680
 total energy-change (2. order) :-0.4651074E+03  (-0.4282401E+03)
 number of electron     672.0000000 magnetization      48.0000000
 augmentation part      672.0000000 magnetization      48.0000000

 Free energy of the ion-electron system (eV)
  ---------------------------------------------------
  alpha Z        PSCENC =      2652.81237852
  Ewald energy   TEWEN  =    -41950.17697888
  -Hartree energ DENC   =    -25669.77892037
  -exchange      EXHF   =         0.00000000
  -V(xc)+E(xc)   XCENC  =      3605.66711477
  PAW double counting   =     55594.23204139   -59034.67079123
  entropy T*S    EENTRO =        -0.00000000
  eigenvalues    EBANDS =    -10172.63489291
  atomic energy  EATOM  =     73862.19814772
  Solvation  Ediel_sol  =         0.00000000
  ---------------------------------------------------
  free energy    TOTEN  =     -1112.35190099 eV

  energy without entropy =    -1112.35190099  energy(sigma->0) =    -1112.35190099


--------------------------------------------------------------------------------------------------------




--------------------------------------- Iteration      1(   5)  ---------------------------------------


    EDDIAG:  cpu time    4.3844: real time    4.8112
  RMM-DIIS:  cpu time    9.0079: real time    9.0285
    ORTHCH:  cpu time    1.2421: real time    1.3308
       DOS:  cpu time    0.0014: real time    0.0014
    --------------------------------------------
      LOOP:  cpu time   14.6358: real time   15.1720

 eigenvalue-minimisations  :  7680
 total energy-change (2. order) :-0.1038955E+03  (-0.1596071E+03)
 number of electron     672.0000000 magnetization      48.0000000
 augmentation part      672.0000000 magnetization      48.0000000

 Free energy of the ion-electron system (eV)
  ---------------------------------------------------
  alpha Z        PSCENC =      2652.81237852
  Ewald energy   TEWEN  =    -41950.17697888
  -Hartree energ DENC   =    -25669.77892037
  -exchange      EXHF   =         0.00000000
  -V(xc)+E(xc)   XCENC  =      3605.66711477
  PAW double counting   =     55594.23204139   -59034.67079123
  entropy T*S    EENTRO =        -0.00000000
  eigenvalues    EBANDS =    -10276.53038487
  atomic energy  EATOM  =     73862.19814772
  Solvation  Ediel_sol  =         0.00000000
  ---------------------------------------------------
  free energy    TOTEN  =     -1216.24739295 eV

  energy without entropy =    -1216.24739295  energy(sigma->0) =    -1216.24739295


--------------------------------------------------------------------------------------------------------




--------------------------------------- Iteration      1(   6)  ---------------------------------------


    EDDIAG:  cpu time    4.3664: real time    4.7896
  RMM-DIIS:  cpu time    9.0194: real time    9.0306
    ORTHCH:  cpu time    1.1577: real time    1.2400
       DOS:  cpu time    0.0017: real time    0.0017
    --------------------------------------------
      LOOP:  cpu time   14.5452: real time   15.0619

 eigenvalue-minimisations  :  7680
 total energy-change (2. order) :-0.8844273E+01  (-0.7894349E+02)
 number of electron     672.0000000 magnetization      48.0000000
 augmentation part      672.0000000 magnetization      48.0000000

 Free energy of the ion-electron system (eV)
  ---------------------------------------------------
  alpha Z        PSCENC =      2652.81237852
  Ewald energy   TEWEN  =    -41950.17697888
  -Hartree energ DENC   =    -25669.77892037
  -exchange      EXHF   =         0.00000000
  -V(xc)+E(xc)   XCENC  =      3605.66711477
  PAW double counting   =     55594.23204139   -59034.67079123
  entropy T*S    EENTRO =        -0.00000000
  eigenvalues    EBANDS =    -10285.37465769
  atomic energy  EATOM  =     73862.19814772
  Solvation  Ediel_sol  =         0.00000000
  ---------------------------------------------------
  free energy    TOTEN  =     -1225.09166576 eV

  energy without entropy =    -1225.09166576  energy(sigma->0) =    -1225.09166576


--------------------------------------------------------------------------------------------------------




--------------------------------------- Iteration      1(   7)  ---------------------------------------


    EDDIAG:  cpu time    4.3931: real time    4.8145
  RMM-DIIS:  cpu time    9.0182: real time    9.0316
    ORTHCH:  cpu time    1.2418: real time    1.3323
       DOS:  cpu time    0.0019: real time    0.0019
    --------------------------------------------
      LOOP:  cpu time   14.6550: real time   15.1803

 eigenvalue-minimisations  :  7680
 total energy-change (2. order) :-0.1968026E+01  (-0.4827805E+02)
 number of electron     672.0000000 magnetization      48.0000000
 augmentation part      672.0000000 magnetization      48.0000000

 Free energy of the ion-electron system (eV)
  ---------------------------------------------------
  alpha Z        PSCENC =      2652.81237852
  Ewald energy   TEWEN  =    -41950.17697888
  -Hartree energ DENC   =    -25669.77892037
  -exchange      EXHF   =         0.00000000
  -V(xc)+E(xc)   XCENC  =      3605.66711477
  PAW double counting   =     55594.23204139   -59034.67079123
  entropy T*S    EENTRO =        -0.00000000
  eigenvalues    EBANDS =    -10287.34268398
  atomic energy  EATOM  =     73862.19814772
  Solvation  Ediel_sol  =         0.00000000
  ---------------------------------------------------
  free energy    TOTEN  =     -1227.05969206 eV

  energy without entropy =    -1227.05969206  energy(sigma->0) =    -1227.05969206


--------------------------------------------------------------------------------------------------------




--------------------------------------- Iteration      1(   8)  ---------------------------------------


    EDDIAG:  cpu time    4.3726: real time    4.7914
  RMM-DIIS:  cpu time    9.0088: real time    9.0209
    ORTHCH:  cpu time    1.1584: real time    1.2404
       DOS:  cpu time    0.0014: real time    0.0014
    --------------------------------------------
      LOOP:  cpu time   14.5412: real time   15.0541

 eigenvalue-minimisations  :  7680
 total energy-change (2. order) : 0.5020500E+01  (-0.2995665E+02)
 number of electron     672.0000000 magnetization      48.0000000
 augmentation part      672.0000000 magnetization      48.0000000

 Free energy of the ion-electron system (eV)
  ---------------------------------------------------
  alpha Z        PSCENC =      2652.81237852
  Ewald energy   TEWEN  =    -41950.17697888
  -Hartree energ DENC   =    -25669.77892037
  -exchange      EXHF   =         0.00000000
  -V(xc)+E(xc)   XCENC  =      3605.66711477
  PAW double counting   =     55594.23204139   -59034.67079123
  entropy T*S    EENTRO =        -0.00000000
  eigenvalues    EBANDS =    -10282.32218384
  atomic energy  EATOM  =     73862.19814772
  Solvation  Ediel_sol  =         0.00000000
  ---------------------------------------------------
  free energy    TOTEN  =     -1222.03919192 eV

  energy without entropy =    -1222.03919192  energy(sigma->0) =    -1222.03919192


--------------------------------------------------------------------------------------------------------




--------------------------------------- Iteration      1(   9)  ---------------------------------------


    EDDIAG:  cpu time    4.4048: real time    4.8112
  RMM-DIIS:  cpu time   19.1327: real time   19.1628
    ORTHCH:  cpu time    1.1582: real time    1.2383
       DOS:  cpu time    0.0016: real time    0.0016
    --------------------------------------------
      LOOP:  cpu time   24.6973: real time   25.2139

 eigenvalue-minimisations  : 21791
 total energy-change (2. order) : 0.9286467E+01  (-0.1322179E+02)
 number of electron     672.0000000 magnetization      48.0000000
 augmentation part      672.0000000 magnetization      48.0000000

 Free energy of the ion-electron system (eV)
  ---------------------------------------------------
  alpha Z        PSCENC =      2652.81237852
  Ewald energy   TEWEN  =    -41950.17697888
  -Hartree energ DENC   =    -25669.77892037
  -exchange      EXHF   =         0.00000000
  -V(xc)+E(xc)   XCENC  =      3605.66711477
  PAW double counting   =     55594.23204139   -59034.67079123
  entropy T*S    EENTRO =        -0.00000000
  eigenvalues    EBANDS =    -10273.03571679
  atomic energy  EATOM  =     73862.19814772
  Solvation  Ediel_sol  =         0.00000000
  ---------------------------------------------------
  free energy    TOTEN  =     -1212.75272487 eV

  energy without entropy =    -1212.75272486  energy(sigma->0) =    -1212.75272487


--------------------------------------------------------------------------------------------------------




--------------------------------------- Iteration      1(  10)  ---------------------------------------


    EDDIAG:  cpu time    4.3939: real time    4.7932
  RMM-DIIS:  cpu time   17.6612: real time   17.7248
    ORTHCH:  cpu time    1.1741: real time    1.2565
       DOS:  cpu time    0.0016: real time    0.0016
    --------------------------------------------
      LOOP:  cpu time   23.2308: real time   23.7761

 eigenvalue-minimisations  : 19628
 total energy-change (2. order) :-0.1899812E+01  (-0.5297438E+00)
 number of electron     672.0000000 magnetization      48.0000000
 augmentation part      672.0000000 magnetization      48.0000000

 Free energy of the ion-electron system (eV)
  ---------------------------------------------------
  alpha Z        PSCENC =      2652.81237852
  Ewald energy   TEWEN  =    -41950.17697888
  -Hartree energ DENC   =    -25669.77892037
  -exchange      EXHF   =         0.00000000
  -V(xc)+E(xc)   XCENC  =      3605.66711477
  PAW double counting   =     55594.23204139   -59034.67079123
  entropy T*S    EENTRO =        -0.00000001
  eigenvalues    EBANDS =    -10274.93552833
  atomic energy  EATOM  =     73862.19814772
  Solvation  Ediel_sol  =         0.00000000
  ---------------------------------------------------
  free energy    TOTEN  =     -1214.65253642 eV

  energy without entropy =    -1214.65253641  energy(sigma->0) =    -1214.65253642


--------------------------------------------------------------------------------------------------------




--------------------------------------- Iteration      1(  11)  ---------------------------------------


    EDDIAG:  cpu time    4.4206: real time    4.8415
  RMM-DIIS:  cpu time   19.6597: real time   19.6847
    ORTHCH:  cpu time    1.2040: real time    1.3488
       DOS:  cpu time    0.0016: real time    0.0016
    --------------------------------------------
      LOOP:  cpu time   25.2858: real time   25.8766

 eigenvalue-minimisations  : 22631
 total energy-change (2. order) : 0.6982083E-01  (-0.4359473E-01)
 number of electron     672.0000000 magnetization      48.0000000
 augmentation part      672.0000000 magnetization      48.0000000

 Free energy of the ion-electron system (eV)
  ---------------------------------------------------
  alpha Z        PSCENC =      2652.81237852
  Ewald energy   TEWEN  =    -41950.17697888
  -Hartree energ DENC   =    -25669.77892037
  -exchange      EXHF   =         0.00000000
  -V(xc)+E(xc)   XCENC  =      3605.66711477
  PAW double counting   =     55594.23204139   -59034.67079123
  entropy T*S    EENTRO =        -0.00000001
  eigenvalues    EBANDS =    -10274.86570751
  atomic energy  EATOM  =     73862.19814772
  Solvation  Ediel_sol  =         0.00000000
  ---------------------------------------------------
  free energy    TOTEN  =     -1214.58271559 eV

  energy without entropy =    -1214.58271558  energy(sigma->0) =    -1214.58271559


--------------------------------------------------------------------------------------------------------




--------------------------------------- Iteration      1(  12)  ---------------------------------------


    EDDIAG:  cpu time    4.3905: real time    4.7933
  RMM-DIIS:  cpu time   21.6648: real time   21.6892
    ORTHCH:  cpu time    1.1633: real time    1.2410
       DOS:  cpu time    0.0012: real time    0.0012
    CHARGE:  cpu time    1.7411: real time    1.7688
    MIXING:  cpu time    0.0010: real time    0.0011
    --------------------------------------------
      LOOP:  cpu time   28.9619: real time   29.4946

 eigenvalue-minimisations  : 24414
 total energy-change (2. order) :-0.8433097E-03  (-0.4280389E-02)
 number of electron     671.9999706 magnetization      48.0000022
 augmentation part      239.0039089 magnetization      29.0229282

 Broyden mixing:
  rms(total) = 0.12488E+02    rms(broyden)= 0.12479E+02
  rms(prec ) = 0.14357E+02
  weight for this iteration     100.00

 Free energy of the ion-electron system (eV)
  ---------------------------------------------------
  alpha Z        PSCENC =      2652.81237852
  Ewald energy   TEWEN  =    -41950.17697888
  -Hartree energ DENC   =    -25669.77892037
  -exchange      EXHF   =         0.00000000
  -V(xc)+E(xc)   XCENC  =      3605.66711477
  PAW double counting   =     55594.23204139   -59034.67079123
  entropy T*S    EENTRO =        -0.00000001
  eigenvalues    EBANDS =    -10274.86655082
  atomic energy  EATOM  =     73862.19814772
  Solvation  Ediel_sol  =         0.00000000
  ---------------------------------------------------
  free energy    TOTEN  =     -1214.58355890 eV

  energy without entropy =    -1214.58355889  energy(sigma->0) =    -1214.58355890


--------------------------------------------------------------------------------------------------------




--------------------------------------- Iteration      1(  13)  ---------------------------------------


    POTLOK:  cpu time    0.2013: real time    0.2016
    SETDIJ:  cpu time    4.9974: real time    4.9994
    EDDIAG:  cpu time    4.4010: real time    4.8205
  RMM-DIIS:  cpu time   17.3200: real time   17.3321
    ORTHCH:  cpu time    1.1578: real time    1.2394
       DOS:  cpu time    0.0015: real time    0.0015
    CHARGE:  cpu time    1.7355: real time    1.7712
    MIXING:  cpu time    0.0012: real time    0.0013
    --------------------------------------------
      LOOP:  cpu time   29.8157: real time   30.3671

 eigenvalue-minimisations  : 18798
 total energy-change (2. order) : 0.2278993E+03  (-0.1222563E+03)
 number of electron     671.9999795 magnetization      48.0000024
 augmentation part      269.1830324 magnetization      26.3435000

 Broyden mixing:
  rms(total) = 0.14003E+02    rms(broyden)= 0.14000E+02
  rms(prec ) = 0.15782E+02
  weight for this iteration     100.00

 eigenvalues of (default mixing * dielectric matrix)
  average eigenvalue GAMMA=   0.3163
  0.3163

 Free energy of the ion-electron system (eV)
  ---------------------------------------------------
  alpha Z        PSCENC =      2652.81237852
  Ewald energy   TEWEN  =    -41950.17697888
  -Hartree energ DENC   =    -24993.97562193
  -exchange      EXHF   =         0.00000000
  -V(xc)+E(xc)   XCENC  =      3695.68108610
  PAW double counting   =     59837.59568641   -63262.48856495
  entropy T*S    EENTRO =        -0.07938551
  eigenvalues    EBANDS =    -10828.25104550
  atomic energy  EATOM  =     73862.19814772
  Solvation  Ediel_sol  =         0.00000000
  ---------------------------------------------------
  free energy    TOTEN  =      -986.68429802 eV

  energy without entropy =     -986.60491251  energy(sigma->0) =     -986.64460527


--------------------------------------------------------------------------------------------------------




--------------------------------------- Iteration      1(  14)  ---------------------------------------


    POTLOK:  cpu time    0.1745: real time    0.1746
    SETDIJ:  cpu time    4.9539: real time    4.9564
    EDDIAG:  cpu time    4.3991: real time    4.8238
  RMM-DIIS:  cpu time   17.7959: real time   17.8071
    ORTHCH:  cpu time    1.1548: real time    1.2408
       DOS:  cpu time    0.0015: real time    0.0015
    CHARGE:  cpu time    1.7269: real time    1.7856
    MIXING:  cpu time    0.0009: real time    0.0009
    --------------------------------------------
      LOOP:  cpu time   30.2075: real time   30.7908

 eigenvalue-minimisations  : 19379
 total energy-change (2. order) : 0.7106324E+02  (-0.1788322E+02)
 number of electron     671.9999740 magnetization      48.0000039
 augmentation part      246.5103718 magnetization      32.1717204

 Broyden mixing:
  rms(total) = 0.52418E+01    rms(broyden)= 0.52373E+01
  rms(prec ) = 0.56762E+01
  weight for this iteration     100.00

 eigenvalues of (default mixing * dielectric matrix)
  average eigenvalue GAMMA=   0.7270
  1.0976  0.3563

 Free energy of the ion-electron system (eV)
  ---------------------------------------------------
  alpha Z        PSCENC =      2652.81237852
  Ewald energy   TEWEN  =    -41950.17697888
  -Hartree energ DENC   =    -25606.39774346
  -exchange      EXHF   =         0.00000000
  -V(xc)+E(xc)   XCENC  =      3672.69646005
  PAW double counting   =     63204.81275170   -66686.79113816
  entropy T*S    EENTRO =        -0.00000000
  eigenvalues    EBANDS =    -10064.77493320
  atomic energy  EATOM  =     73862.19814772
  Solvation  Ediel_sol  =         0.00000000
  ---------------------------------------------------
  free energy    TOTEN  =      -915.62105571 eV

  energy without entropy =     -915.62105571  energy(sigma->0) =     -915.62105571


--------------------------------------------------------------------------------------------------------




--------------------------------------- Iteration      1(  15)  ---------------------------------------


    POTLOK:  cpu time    0.1704: real time    0.1704
    SETDIJ:  cpu time    4.9835: real time    4.9849
    EDDIAG:  cpu time    4.4268: real time    4.8432
  RMM-DIIS:  cpu time   18.0253: real time   18.0654
    ORTHCH:  cpu time    1.1951: real time    1.3316
       DOS:  cpu time    0.0028: real time    0.0028
    CHARGE:  cpu time    1.7591: real time    1.7599
    MIXING:  cpu time    0.0010: real time    0.0010
    --------------------------------------------
      LOOP:  cpu time   30.5640: real time   31.1593

 eigenvalue-minimisations  : 20186
 total energy-change (2. order) : 0.1438430E+02  (-0.1984549E+01)
 number of electron     671.9999750 magnetization      48.0000052
 augmentation part      249.6913190 magnetization      33.8510608

 Broyden mixing:
  rms(total) = 0.21229E+01    rms(broyden)= 0.21226E+01
  rms(prec ) = 0.21991E+01
  weight for this iteration     100.00

 eigenvalues of (default mixing * dielectric matrix)
  average eigenvalue GAMMA=   0.9596
  0.3797  0.7662  1.7330

 Free energy of the ion-electron system (eV)
  ---------------------------------------------------
  alpha Z        PSCENC =      2652.81237852
  Ewald energy   TEWEN  =    -41950.17697888
  -Hartree energ DENC   =    -25522.32678282
  -exchange      EXHF   =         0.00000000
  -V(xc)+E(xc)   XCENC  =      3706.06032175
  PAW double counting   =     67247.46123914   -70769.49710300
  entropy T*S    EENTRO =        -0.00000000
  eigenvalues    EBANDS =    -10127.76797331
  atomic energy  EATOM  =     73862.19814772
  Solvation  Ediel_sol  =         0.00000000
  ---------------------------------------------------
  free energy    TOTEN  =      -901.23675088 eV

  energy without entropy =     -901.23675088  energy(sigma->0) =     -901.23675088


--------------------------------------------------------------------------------------------------------




--------------------------------------- Iteration      1(  16)  ---------------------------------------


    POTLOK:  cpu time    0.1705: real time    0.1710
    SETDIJ:  cpu time    5.0437: real time    5.0447
    EDDIAG:  cpu time    4.3821: real time    4.8021
  RMM-DIIS:  cpu time   17.4717: real time   17.4826
    ORTHCH:  cpu time    1.2654: real time    1.3551
       DOS:  cpu time    0.0015: real time    0.0015
    CHARGE:  cpu time    1.7610: real time    1.7617
    MIXING:  cpu time    0.0010: real time    0.0010
    --------------------------------------------
      LOOP:  cpu time   30.0967: real time   30.6196

 eigenvalue-minimisations  : 19091
 total energy-change (2. order) :-0.1696813E+01  (-0.6501723E+00)
 number of electron     671.9999756 magnetization      48.0000056
 augmentation part      251.2369133 magnetization      33.9444241

 Broyden mixing:
  rms(total) = 0.13990E+01    rms(broyden)= 0.13984E+01
  rms(prec ) = 0.14971E+01
  weight for this iteration     100.00

 eigenvalues of (default mixing * dielectric matrix)
  average eigenvalue GAMMA=   0.9790
  2.0770  0.9123  0.3864  0.5403

 Free energy of the ion-electron system (eV)
  ---------------------------------------------------
  alpha Z        PSCENC =      2652.81237852
  Ewald energy   TEWEN  =    -41950.17697888
  -Hartree energ DENC   =    -25470.03012068
  -exchange      EXHF   =         0.00000000
  -V(xc)+E(xc)   XCENC  =      3707.19320284
  PAW double counting   =     70218.46792354   -73770.84297668
  entropy T*S    EENTRO =        -0.00000000
  eigenvalues    EBANDS =    -10152.55514034
  atomic energy  EATOM  =     73862.19814772
  Solvation  Ediel_sol  =         0.00000000
  ---------------------------------------------------
  free energy    TOTEN  =      -902.93356396 eV

  energy without entropy =     -902.93356396  energy(sigma->0) =     -902.93356396


--------------------------------------------------------------------------------------------------------




--------------------------------------- Iteration      1(  17)  ---------------------------------------


    POTLOK:  cpu time    0.1695: real time    0.1701
    SETDIJ:  cpu time    5.0423: real time    5.0437
    EDDIAG:  cpu time    4.3706: real time    4.7830
  RMM-DIIS:  cpu time   18.1668: real time   18.1949
    ORTHCH:  cpu time    1.1595: real time    1.2426
       DOS:  cpu time    0.0011: real time    0.0011
    CHARGE:  cpu time    1.7630: real time    1.7665
    MIXING:  cpu time    0.0021: real time    0.0021
    --------------------------------------------
      LOOP:  cpu time   30.6749: real time   31.2040

 eigenvalue-minimisations  : 20472
 total energy-change (2. order) : 0.2050914E+00  (-0.5813547E-01)
 number of electron     671.9999756 magnetization      48.0000060
 augmentation part      251.0935744 magnetization      33.9410659

 Broyden mixing:
  rms(total) = 0.75892E+00    rms(broyden)= 0.75883E+00
  rms(prec ) = 0.85671E+00
  weight for this iteration     100.00

 eigenvalues of (default mixing * dielectric matrix)
  average eigenvalue GAMMA=   1.0093
  2.2389  1.1478  0.3784  0.7100  0.5714

 Free energy of the ion-electron system (eV)
  ---------------------------------------------------
  alpha Z        PSCENC =      2652.81237852
  Ewald energy   TEWEN  =    -41950.17697888
  -Hartree energ DENC   =    -25463.53274394
  -exchange      EXHF   =         0.00000000
  -V(xc)+E(xc)   XCENC  =      3704.18603413
  PAW double counting   =     71042.30551480   -74602.71472932
  entropy T*S    EENTRO =        -0.00000000
  eigenvalues    EBANDS =    -10147.80609564
  atomic energy  EATOM  =     73862.19814772
  Solvation  Ediel_sol  =         0.00000000
  ---------------------------------------------------
  free energy    TOTEN  =      -902.72847260 eV

  energy without entropy =     -902.72847260  energy(sigma->0) =     -902.72847260


--------------------------------------------------------------------------------------------------------




--------------------------------------- Iteration      1(  18)  ---------------------------------------


    POTLOK:  cpu time    0.1730: real time    0.1735
    SETDIJ:  cpu time    5.0489: real time    5.0530
    EDDIAG:  cpu time    4.3638: real time    4.7863
  RMM-DIIS:  cpu time   17.5638: real time   17.5865
    ORTHCH:  cpu time    1.1573: real time    1.2383
       DOS:  cpu time    0.0011: real time    0.0011
    CHARGE:  cpu time    1.7687: real time    1.7695
    MIXING:  cpu time    0.0011: real time    0.0011
    --------------------------------------------
      LOOP:  cpu time   30.0777: real time   30.6093

 eigenvalue-minimisations  : 19105
 total energy-change (2. order) : 0.3986855E+00  (-0.6954061E-01)
 number of electron     671.9999753 magnetization      48.0000062
 augmentation part      250.5787284 magnetization      33.8987211

 Broyden mixing:
  rms(total) = 0.27840E+00    rms(broyden)= 0.27809E+00
  rms(prec ) = 0.29273E+00
  weight for this iteration     100.00

 eigenvalues of (default mixing * dielectric matrix)
  average eigenvalue GAMMA=   1.0179
  2.4575  1.3575  0.8538  0.3794  0.5909  0.4681

 Free energy of the ion-electron system (eV)
  ---------------------------------------------------
  alpha Z        PSCENC =      2652.81237852
[...]
   4      -0.781    -0.604     1.384    -0.073    -0.419    -0.243
   5      -0.962    -0.753     1.715     0.094    -0.465     0.143
   6      -0.811    -0.712     1.522     0.041    -0.451     0.276
   7      -0.611    -0.883     1.495     0.009     0.057     0.427
   8      -0.749    -0.836     1.585    -0.064    -0.494    -0.204
   9      -0.842    -0.714     1.556    -0.090     0.256     0.342
  10      -0.585    -0.807     1.393     0.060    -0.043    -0.381
  11      -0.735    -0.915     1.650     0.015     0.082    -0.423
  12      -0.920    -0.986     1.906     0.010    -0.105    -0.029
  13      -0.986    -0.973     1.960     0.041    -0.019    -0.000
  14      -0.780    -0.700     1.479     0.173     0.352    -0.294
  15      -0.578    -0.610     1.188    -0.025     0.023    -0.007
  16      -0.940    -0.911     1.851     0.038     0.058     0.062
  17       1.602     1.295    -2.898    -0.009    -0.050     0.050
  18       1.336     1.504    -2.840     0.082    -0.048    -0.144
  19       1.399     1.544    -2.942     0.117    -0.044    -0.015
  20       1.467     1.534    -3.000    -0.117     0.044     0.035
  21       1.340     1.612    -2.952    -0.068    -0.096    -0.122
  22       1.497     1.365    -2.862     0.109     0.088     0.029
  23       1.419     1.404    -2.822    -0.043     0.082    -0.051
  24       1.226     1.772    -2.997     0.031    -0.141     0.027
  25      -0.721    -0.660     1.381    -0.123    -0.893     0.254
  26      -0.152    -0.130     0.281    -1.053    -1.152     0.046
  27       1.607    -0.815    -0.792    -0.670    -1.040     0.018
  28       0.713     0.782    -1.495     1.314     0.125     0.082
  29       0.446     0.414    -0.860    -0.636    -0.206     0.365
  30      -0.324    -1.013     1.337    -0.708    -0.108     0.532
  31       0.014     0.978    -0.992    -0.126     1.796     0.051
  32      -1.331    -3.190     4.520     0.285     0.200     0.515
  33       0.184    -1.506     1.322     0.428    -0.353    -1.278
  34      -0.690    -0.144     0.833     0.981    -0.627     0.014
  35       0.531    -0.274    -0.257     0.634     0.145    -0.398
  36       0.098    -1.063     0.965    -0.881    -0.421    -0.232
  37       0.389    -1.055     0.666     0.523     0.342    -0.948
  38       1.851    -1.704    -0.147     0.427     0.296    -0.544
  39      -1.140    -1.867     3.007    -0.051    -0.203    -0.435
  40       1.777     0.857    -2.634    -0.227    -0.008    -1.670
  41      -3.964     3.077     0.886    -5.423     2.010    -3.712
  42      -1.733     1.972    -0.239     6.219     1.166     3.525
  43       3.868    -8.239     4.371     1.347    -6.262     2.218
  44      -1.287     0.489     0.798     5.438    -3.031    -2.390
  45      -3.718     2.977     0.741    -4.458    -2.020     4.151
  46       5.379    -5.399     0.020    -0.547     3.818     0.582
  47      -1.293     2.933    -1.641    -4.436     0.985    -4.441
  48       6.046    -4.782    -1.265    -2.175    -4.766    -1.697
  49      -2.745     1.009     1.736     3.812     2.667     2.696
  50       5.203    -5.093    -0.110    -1.143     5.577     0.722
  51      -3.611     2.867     0.744    -2.569    -1.857     4.733
  52      -2.406     0.398     2.008     6.340    -2.654    -5.220
  53      -2.948     3.270    -0.322    -4.996     2.596    -3.564
  54      -5.330     1.948     3.382     4.256     3.915     5.608
  55       4.528    -7.027     2.499    -0.603    -4.465    -0.854
  56      -4.519     3.974     0.545     4.103    -3.058    -4.273
  57      -3.723     2.177     1.546    -4.623    -2.038     3.409
  58       6.343    -7.080     0.737     1.098     5.863    -0.753
  59      -3.680     3.751    -0.071    -5.146     2.476    -2.968
  60       5.128    -4.658    -0.470     0.344    -4.754    -0.268
  61      -3.063     2.511     0.552     5.255     1.621     4.973
  62       5.615    -6.560     0.945     1.612     4.154    -0.982
  63      -2.180     1.173     1.008    -5.983    -1.736     4.081
  64      -2.953     1.646     1.307     4.715    -2.670    -4.492
  65      -1.093    -0.852     1.945    -3.804     2.608    -3.249
  66      -3.652     3.715    -0.063     4.039     1.455     3.154
  67       5.093    -5.896     0.803     0.908    -4.766    -0.935
  68      -2.070     3.718    -1.648     5.544    -2.845    -3.139
  69      -3.143     2.793     0.350    -4.993    -4.441     3.106
  70       4.815    -6.885     2.070    -1.215     5.655     0.633
  71      -1.946     2.940    -0.994    -6.825     2.819    -2.648
  72       5.813    -6.989     1.175     1.803    -5.014     0.325
  73      -5.000     4.760     0.240     5.037     2.364     5.098
  74       8.059    -7.001    -1.058     0.427     3.343    -0.725
  75      -0.859     1.337    -0.478    -4.565    -1.248     4.373
  76      -1.563     1.437     0.126     3.210    -4.882    -2.669
  77      -2.980     0.313     2.667    -5.433     3.085    -4.456
  78      -2.856     0.241     2.615     4.775     0.638     3.499
  79       7.662    -6.025    -1.637    -1.417    -4.537     0.481
  80      -4.692    -0.974     5.666     3.378    -3.078    -4.764
  81      -4.639     2.797     1.842    -4.555     0.627     5.287
  82       5.716    -4.886    -0.829    -0.282     4.573     0.143
  83      -2.060     1.342     0.718    -4.922     3.382    -3.314
  84       5.287    -5.783     0.496    -1.420    -4.460    -0.459
  85      -2.076     3.236    -1.160     3.744     2.483     2.466
  86       5.696    -5.420    -0.276     0.793     5.118    -0.647
  87      -4.337     1.992     2.346    -3.385    -1.064     4.149
  88      -2.559     2.990    -0.431     5.930    -0.147    -4.344
 ---------------------------------------------------------------------


 Total hyperfine coupling parameters after diagonalization (MHz)
 (convention: |A_zz| > |A_xx| > |A_yy|)
 ----------------------------------------------------------------------
  ion      A_xx      A_yy      A_zz     asymmetry (A_yy - A_xx)/ A_zz 
 ----------------------------------------------------------------------
   1       1.967     1.721     4.147      -0.059
   2       1.676     1.311     3.870      -0.094
   3       2.048     1.792     4.400      -0.058
   4       2.304     1.977     4.371      -0.075
   5       2.092     1.727     4.610      -0.079
   6       2.403     2.165     4.739      -0.050
   7       1.889     1.544     4.072      -0.085
   8       2.497     2.291     4.943      -0.042
   9       2.215     1.943     4.524      -0.060
  10       1.394     1.091     3.429      -0.088
  11       2.050     1.799     4.505      -0.056
  12       0.124     0.060     2.957      -0.022
  13      -0.074     0.010     2.907       0.029
  14       2.028     1.587     4.153      -0.106
  15       1.346     1.287     3.099      -0.019
  16      -0.087    -0.007     2.733       0.029
  17      14.502    10.307    14.809      -0.283
  18      12.763     8.614    13.003      -0.319
  19      15.224    10.947    15.499      -0.276
  20      14.965    10.585    15.207      -0.288
  21      14.744    10.459    15.047      -0.285
  22      12.508     8.341    12.765      -0.326
  23      13.086     8.894    13.175      -0.318
  24      14.672    10.441    15.217      -0.278
  25      98.011    97.650   100.443      -0.004
  26      95.571    93.977    97.138      -0.016
  27      95.915    95.432    98.872      -0.005
  28      94.259    93.322    96.892      -0.010
  29      95.479    94.709    96.815      -0.008
  30      97.495    95.962    98.965      -0.015
  31      93.508    90.179    93.925      -0.035
  32     103.663   101.701   109.526      -0.018
  33      97.177    95.060    99.041      -0.021
  34      97.028    95.106    97.822      -0.020
  35      95.712    94.802    96.582      -0.009
  36      97.369    95.309    98.056      -0.021
  37      97.782    95.564    98.330      -0.023
  38      94.362    92.410    96.278      -0.020
  39      98.569    97.801   102.767      -0.007
  40      97.496    92.779    97.980      -0.048
  41       6.720     1.298    16.602      -0.327
  42       4.819    -0.314    14.420      -0.356
  43       8.714     0.807    20.377      -0.388
  44       8.478     3.771    17.105      -0.275
  45       2.760    -1.032    13.013      -0.291
  46       2.029    -1.736    11.197      -0.336
  47       6.266     3.425    16.443      -0.173
  48       5.852     0.744    16.063      -0.318
  49       3.766    -0.359    11.261      -0.366
  50       6.487     3.631    18.182      -0.157
  51       0.893    -0.602    11.477      -0.130
  52       7.328     1.704    19.168      -0.293
  53       4.668     1.349    15.425      -0.215
  54       4.110    -0.472    17.451      -0.263
  55       6.925     0.608    15.905      -0.397
  56       4.036    -0.120    15.192      -0.274
  57       7.197     2.077    15.740      -0.325
  58       8.464     3.659    21.145      -0.227
  59       6.015     1.244    15.820      -0.302
  60       3.811     2.321    14.857      -0.100
  61       6.477     2.311    17.656      -0.236
  62       6.228     0.121    15.327      -0.399
  63       5.441    -0.077    15.102      -0.365
  64       4.603     1.225    15.554      -0.217
  65       6.125     3.068    14.447      -0.212
  66       6.210     2.505    15.107      -0.245
  67       5.528     1.753    16.073      -0.235
  68       4.780     2.182    16.605      -0.156
  69       4.010    -1.294    14.339      -0.370
  70       6.486     1.316    17.823      -0.290
  71       5.882     1.293    17.334      -0.265
  72       5.261    -0.384    16.136      -0.350
  73       3.982    -0.204    17.031      -0.246
  74       8.386     3.264    19.557      -0.262
  75       5.477     1.989    14.668      -0.238
  76       5.396     1.046    14.009      -0.311
  77       6.452     1.410    17.413      -0.290
  78       5.205    -1.533    11.577      -0.582
  79       6.146     3.457    19.278      -0.139
  80       2.613    -1.306    14.860      -0.264
  81       7.433     0.192    16.344      -0.443
  82       4.503     2.720    15.715      -0.113
  83       3.898     0.347    13.968      -0.254
  84       7.581     3.272    17.464      -0.247
  85       1.932    -0.508    10.637      -0.229
  86      -1.583     1.341    12.847       0.228
  87       3.710    -0.863    12.202      -0.375
  88       7.011     1.060    16.651      -0.357
 ---------------------------------------------------------------------



--------------------------------------------------------------------------------------------------------


 stress matrix after NEB project (eV)
    -49.96652     -2.25396      0.47451
     -2.25779    -43.81573      3.39914
      0.50715      3.35845    -64.37096
  FORCES: max atom, RMS     2.426068    1.158828
  FORCE total and by dimension   10.870768    1.894306
  Stress total and by dimension   92.701600   64.370964
     LOOP+:  cpu time  731.0892: real time  746.3991
    4ORBIT:  cpu time    0.0000: real time    0.0000
 


 total charge     
 
# of ion       s       p       d       tot
------------------------------------------
    1        0.048   5.989   0.000   6.037
    2        0.052   5.995   0.000   6.046
    3        0.050   5.993   0.000   6.043
    4        0.053   5.994   0.000   6.048
    5        0.054   5.998   0.000   6.051
    6        0.050   5.992   0.000   6.043
    7        0.047   5.989   0.000   6.036
    8        0.052   5.994   0.000   6.046
    9        0.054   5.997   0.000   6.051
   10        0.053   5.997   0.000   6.050
   11        0.052   5.994   0.000   6.046
   12        0.049   5.995   0.000   6.044
   13        0.048   5.991   0.000   6.039
   14        0.051   5.993   0.000   6.044
   15        0.044   5.986   0.000   6.031
   16        0.052   5.997   0.000   6.049
   17        0.146   6.123   0.080   6.350
   18        0.150   6.130   0.085   6.366
   19        0.150   6.129   0.085   6.364
   20        0.150   6.128   0.084   6.362
   21        0.149   6.128   0.084   6.360
   22        0.149   6.128   0.084   6.361
   23        0.146   6.124   0.080   6.350
   24        0.152   6.132   0.088   6.372
   25        0.377   6.458   4.834  11.670
   26        0.386   6.478   4.854  11.718
   27        0.380   6.461   4.850  11.691
   28        0.367   6.438   4.807  11.612
   29        0.380   6.464   4.842  11.687
   30        0.377   6.459   4.824  11.660
   31        0.372   6.443   4.820  11.635
   32        0.374   6.452   4.825  11.651
   33        0.373   6.442   4.834  11.649
   34        0.373   6.447   4.828  11.649
   35        0.371   6.446   4.821  11.638
   36        0.361   6.423   4.795  11.579
   37        0.379   6.465   4.838  11.681
   38        0.379   6.465   4.832  11.676
   39        0.382   6.466   4.850  11.698
   40        0.363   6.429   4.807  11.599
   41        1.599   3.512   0.000   5.111
   42        1.599   3.508   0.000   5.106
   43        1.603   3.525   0.000   5.129
   44        1.599   3.518   0.000   5.117
   45        1.598   3.509   0.000   5.106
   46        1.594   3.473   0.000   5.067
   47        1.598   3.492   0.000   5.090
   48        1.601   3.525   0.000   5.126
   49        1.596   3.522   0.000   5.118
   50        1.600   3.507   0.000   5.108
   51        1.596   3.493   0.000   5.089
   52        1.603   3.476   0.000   5.078
   53        1.598   3.480   0.000   5.078
   54        1.603   3.494   0.000   5.097
   55        1.598   3.516   0.000   5.114
   56        1.598   3.477   0.000   5.076
   57        1.600   3.511   0.000   5.110
   58        1.605   3.495   0.000   5.100
   59        1.598   3.515   0.000   5.112
   60        1.598   3.521   0.000   5.119
   61        1.602   3.502   0.000   5.103
   62        1.598   3.515   0.000   5.113
   63        1.602   3.508   0.000   5.110
   64        1.600   3.536   0.000   5.136
   65        1.594   3.495   0.000   5.089
   66        1.595   3.508   0.000   5.102
   67        1.596   3.507   0.000   5.103
   68        1.599   3.505   0.000   5.104
   69        1.599   3.486   0.000   5.084
   70        1.600   3.497   0.000   5.098
   71        1.602   3.505   0.000   5.106
   72        1.599   3.507   0.000   5.105
   73        1.604   3.488   0.000   5.093
   74        1.599   3.501   0.000   5.101
   75        1.596   3.485   0.000   5.081
   76        1.598   3.483   0.000   5.081
   77        1.603   3.533   0.000   5.137
   78        1.597   3.527   0.000   5.123
   79        1.602   3.501   0.000   5.102
   80        1.602   3.530   0.000   5.132
   81        1.599   3.506   0.000   5.105
   82        1.597   3.472   0.000   5.069
   83        1.598   3.495   0.000   5.092
   84        1.600   3.528   0.000   5.128
   85        1.595   3.476   0.000   5.070
   86        1.601   3.462   0.000   5.064
   87        1.597   3.533   0.000   5.131
   88        1.599   3.503   0.000   5.102
--------------------------------------------------
tot         84.751 416.315  77.931 578.998
 


 magnetization (x)
 
# of ion       s       p       d       tot
------------------------------------------
    1        0.002   0.000   0.000   0.002
    2        0.002   0.000   0.000   0.002
    3        0.002   0.000   0.000   0.002
    4        0.002   0.001   0.000   0.003
    5        0.002   0.000   0.000   0.002
    6        0.002   0.000   0.000   0.003
    7        0.002   0.000   0.000   0.002
    8        0.002   0.000   0.000   0.003
    9        0.002   0.000   0.000   0.002
   10        0.001   0.000   0.000   0.002
   11        0.002   0.000   0.000   0.002
   12        0.001   0.000   0.000   0.001
   13        0.001   0.000   0.000   0.001
   14        0.002   0.001   0.000   0.002
   15        0.001   0.001   0.000   0.002
   16        0.001   0.000   0.000   0.001
   17        0.007   0.002   0.001   0.011
   18        0.006   0.002   0.001   0.009
   19        0.008   0.003   0.001   0.012
   20        0.008   0.003   0.001   0.012
   21        0.008   0.002   0.001   0.011
   22        0.006   0.001   0.001   0.009
   23        0.006   0.002   0.001   0.009
   24        0.008   0.003   0.001   0.012
   25        0.016   0.030   2.751   2.798
   26        0.015   0.031   2.727   2.773
   27        0.015   0.029   2.738   2.782
   28        0.015   0.028   2.777   2.820
   29        0.015   0.030   2.736   2.781
   30        0.016   0.031   2.755   2.801
   31        0.014   0.028   2.759   2.801
   32        0.018   0.032   2.760   2.810
   33        0.015   0.029   2.764   2.808
   34        0.015   0.029   2.755   2.800
   35        0.015   0.030   2.762   2.808
   36        0.015   0.029   2.798   2.843
   37        0.015   0.031   2.750   2.796
   38        0.015   0.030   2.748   2.793
   39        0.016   0.031   2.746   2.793
   40        0.015   0.029   2.778   2.822
   41        0.002   0.046   0.000   0.048
   42        0.002   0.029   0.000   0.030
   43        0.002   0.062   0.000   0.064
   44        0.002   0.051   0.000   0.053
   45        0.002   0.011   0.000   0.013
   46        0.001   0.005   0.000   0.007
   47        0.002   0.038   0.000   0.040
   48        0.002   0.035   0.000   0.037
   49        0.001   0.018   0.000   0.019
   50        0.002   0.045   0.000   0.048
   51        0.001   0.003   0.000   0.004
   52        0.002   0.042   0.000   0.045
   53        0.002   0.028   0.000   0.030
   54        0.002   0.031   0.000   0.033
   55        0.002   0.043   0.000   0.045
   56        0.002   0.020   0.000   0.022
   57        0.002   0.041   0.000   0.043
   58        0.003   0.055   0.000   0.058
   59        0.002   0.039   0.000   0.041
   60        0.002   0.031   0.000   0.033
   61        0.002   0.041   0.000   0.044
   62        0.002   0.035   0.000   0.037
   63        0.002   0.021   0.000   0.023
   64        0.002   0.038   0.000   0.040
   65        0.002   0.030   0.000   0.033
   66        0.002   0.038   0.000   0.040
   67        0.002   0.033   0.000   0.035
   68        0.002   0.037   0.000   0.039
   69        0.002   0.020   0.000   0.021
   70        0.002   0.039   0.000   0.041
   71        0.002   0.032   0.000   0.035
   72        0.002   0.036   0.000   0.038
   73        0.002   0.023   0.000   0.025
   74        0.003   0.056   0.000   0.058
   75        0.002   0.027   0.000   0.029
   76        0.002   0.021   0.000   0.023
   77        0.002   0.048   0.000   0.050
   78        0.001   0.025   0.000   0.026
   79        0.002   0.052   0.000   0.054
   80        0.001   0.025   0.000   0.026
   81        0.002   0.044   0.000   0.046
   82        0.002   0.029   0.000   0.031
   83        0.002   0.022   0.000   0.023
   84        0.002   0.052   0.000   0.054
   85        0.001  -0.002   0.000  -0.000
   86        0.002  -0.007   0.000  -0.006
   87        0.001   0.021   0.000   0.022
   88        0.002   0.040   0.000   0.042
--------------------------------------------------
tot          0.423   2.050  44.115  46.589
 

 total amount of memory used by VASP MPI-rank0    94424. kBytes
=======================================================================

   base      :      30000. kBytes
   nonlr-proj:      13665. kBytes
   fftplans  :       1275. kBytes
   grid      :      22786. kBytes
   one-center:       2737. kBytes
   wavefun   :      23961. kBytes
 
  
  
 General timing and accounting informations for this job:
 ========================================================
  
                  Total CPU time used (sec):      751.915
                            User time (sec):      744.050
                          System time (sec):        7.865
                         Elapsed time (sec):      769.792
  
                   Maximum memory used (kb):      193760.
                   Average memory used (kb):           0.
  
                          Minor page faults:       302926
                          Major page faults:            0
                 Voluntary context switches:       256712
