 vasp.5.4.4.18Apr17-6-g9f103f2a35 (build Dec 02 2020 12:53:39) complex          
  
 executed on             LinuxIFC date 2021.07.31  08:59:19
 running on  112 total cores
 distrk:  each k-point on  112 cores,    1 groups
 distr:  one band on NCORES_PER_BAND=   1 cores,  112 groups


--------------------------------------------------------------------------------------------------------


 INCAR:
 POTCAR:    PAW_PBE Na_pv 19Sep2006               
 POTCAR:    PAW_PBE Mg_pv 13Apr2007               
 POTCAR:    PAW_PBE Mn_pv 02Aug2007               
 POTCAR:    PAW_PBE O 08Apr2002                   

 ----------------------------------------------------------------------------- 
|                                                                             |
|           W    W    AA    RRRRR   N    N  II  N    N   GGGG   !!!           |
|           W    W   A  A   R    R  NN   N  II  NN   N  G    G  !!!           |
|           W    W  A    A  R    R  N N  N  II  N N  N  G       !!!           |
|           W WW W  AAAAAA  RRRRR   N  N N  II  N  N N  G  GGG   !            |
|           WW  WW  A    A  R   R   N   NN  II  N   NN  G    G                |
|           W    W  A    A  R    R  N    N  II  N    N   GGGG   !!!           |
|                                                                             |
|      For optimal performance we recommend to set                            |
|        NCORE= 4 - approx SQRT( number of cores)                             |
|      NCORE specifies how many cores store one orbital (NPAR=cpu/NCORE).     |
|      This setting can  greatly improve the performance of VASP for DFT.     |
|      The default,   NCORE=1            might be grossly inefficient         |
|      on modern multi-core architectures or massively parallel machines.     |
|      Do your own testing !!!!                                               |
|      Unfortunately you need to use the default for GW and RPA calculations. |
|      (for HF NCORE is supported but not extensively tested yet)             |
|                                                                             |
 ----------------------------------------------------------------------------- 

 POTCAR:    PAW_PBE Na_pv 19Sep2006               
   VRHFIN =Na: p6s1                                                             
   LEXCH  = PE                                                                  
   EATOM  =   766.0439 eV,   56.3026 Ry                                         
                                                                                
   TITEL  = PAW_PBE Na_pv 19Sep2006                                             
   LULTRA =        F    use ultrasoft PP ?                                      
   IUNSCR =        1    unscreen: 0-lin 1-nonlin 2-no                           
   RPACOR =    1.800    partial core radius                                     
   POMASS =   22.990; ZVAL   =    7.000    mass and valenz                      
   RCORE  =    2.200    outmost cutoff radius                                   
   RWIGS  =    2.200; RWIGS  =    1.164    wigner-seitz radius (au A)           
   ENMAX  =  259.561; ENMIN  =  194.671 eV                                      
   ICORE  =        2    local potential                                         
   LCOR   =        T    correct aug charges                                     
   LPAW   =        T    paw PP                                                  
   EAUG   =  368.056                                                            
   DEXC   =    0.000                                                            
   RMAX   =    2.245    core radius for proj-oper                               
   RAUG   =    1.300    factor for augmentation sphere                          
   RDEP   =    2.259    radius for radial grids                                 
   RDEPT  =    1.738    core radius for aug-charge                              
                                                                                
   Atomic configuration                                                         
    5 entries                                                                   
     n  l   j            E        occ.                                          
     1  0  0.50     -1033.6933   2.0000                                         
     2  0  0.50       -56.7526   2.0000                                         
     2  1  1.50       -28.6721   6.0000                                         
     3  0  0.50        -2.7440   1.0000                                         
     3  2  1.50        -1.3606   0.0000                                         
   Description                                                                  
     l       E           TYP  RCUT    TYP  RCUT                                 
     1    -28.6720912     23  2.000                                             
     1      6.8029130     23  2.000                                             
     0     -2.7439560     23  2.200                                             
     0     34.0145650     23  2.200                                             
     2     -1.3605826     23  2.200                                             
  local pseudopotential read in
  partial core-charges read in
  partial kinetic energy density read in
  atomic valenz-charges read in
  non local Contribution for L=           1  read in
    real space projection operators read in
  non local Contribution for L=           1  read in
    real space projection operators read in
  non local Contribution for L=           0  read in
    real space projection operators read in
  non local Contribution for L=           0  read in
    real space projection operators read in
    PAW grid and wavefunctions read in
 
   number of l-projection  operators is LMAX  =           4
   number of lm-projection operators is LMMAX =           8
 
 POTCAR:    PAW_PBE Mg_pv 13Apr2007               
   VRHFIN =Mg: p6s2                                                             
   LEXCH  = PE                                                                  
   EATOM  =  1056.7344 eV,   77.6678 Ry                                         
                                                                                
   TITEL  = PAW_PBE Mg_pv 13Apr2007                                             
   LULTRA =        F    use ultrasoft PP ?                                      
   IUNSCR =        1    unscreen: 0-lin 1-nonlin 2-no                           
   RPACOR =    1.500    partial core radius                                     
   POMASS =   24.305; ZVAL   =    8.000    mass and valenz                      
   RCORE  =    2.000    outmost cutoff radius                                   
   RWIGS  =    2.000; RWIGS  =    1.058    wigner-seitz radius (au A)           
   ENMAX  =  403.929; ENMIN  =  302.947 eV                                      
   RCLOC  =    1.506    cutoff for local pot                                    
   LCOR   =        T    correct aug charges                                     
   LPAW   =        T    paw PP                                                  
   EAUG   =  758.780                                                            
   DEXC   =    0.000                                                            
   RMAX   =    2.045    core radius for proj-oper                               
   RAUG   =    1.300    factor for augmentation sphere                          
   RDEP   =    2.025    radius for radial grids                                 
   RDEPT  =    1.557    core radius for aug-charge                              
                                                                                
   Atomic configuration                                                         
    5 entries                                                                   
     n  l   j            E        occ.                                          
     1  0  0.50     -1259.6230   2.0000                                         
     2  0  0.50       -79.8442   2.0000                                         
     2  1  1.50       -46.6121   6.0000                                         
     3  0  0.50        -4.7055   2.0000                                         
     3  2  1.50        -1.3606   0.0000                                         
   Description                                                                  
     l       E           TYP  RCUT    TYP  RCUT                                 
     1    -46.6121073     23  1.600                                             
     1      2.7211652     23  1.600                                             
     0     -4.7054661     23  2.000                                             
     0     61.2262170     23  2.000                                             
     2     -1.3605826     23  2.000                                             
  local pseudopotential read in
  partial core-charges read in
  partial kinetic energy density read in
  atomic valenz-charges read in
  non local Contribution for L=           1  read in
    real space projection operators read in
  non local Contribution for L=           1  read in
    real space projection operators read in
  non local Contribution for L=           0  read in
    real space projection operators read in
  non local Contribution for L=           0  read in
    real space projection operators read in
  non local Contribution for L=           2  read in
    real space projection operators read in
    PAW grid and wavefunctions read in
 
   number of l-projection  operators is LMAX  =           5
   number of lm-projection operators is LMMAX =          13
 
 POTCAR:    PAW_PBE Mn_pv 02Aug2007               
   VRHFIN =Mn: 3p4s3d                                                           
   LEXCH  = PE                                                                  
   EATOM  =  2025.2664 eV,  148.8529 Ry                                         
                                                                                
   TITEL  = PAW_PBE Mn_pv 02Aug2007                                             
   LULTRA =        F    use ultrasoft PP ?                                      
   IUNSCR =        1    unscreen: 0-lin 1-nonlin 2-no                           
   RPACOR =    2.080    partial core radius                                     
   POMASS =   54.938; ZVAL   =   13.000    mass and valenz                      
   RCORE  =    2.300    outmost cutoff radius                                   
   RWIGS  =    2.500; RWIGS  =    1.323    wigner-seitz radius (au A)           
   ENMAX  =  269.864; ENMIN  =  202.398 eV                                      
   ICORE  =        3    local potential                                         
   LCOR   =        T    correct aug charges                                     
   LPAW   =        T    paw PP                                                  
   EAUG   =  569.085                                                            
   DEXC   =    0.000                                                            
   RMAX   =    2.343    core radius for proj-oper                               
   RAUG   =    1.300    factor for augmentation sphere                          
   RDEP   =    2.338    radius for radial grids                                 
   RDEPT  =    1.798    core radius for aug-charge                              
                                                                                
   Atomic configuration                                                         
    8 entries                                                                   
     n  l   j            E        occ.                                          
     1  0  0.50     -6424.8287   2.0000                                         
     2  0  0.50      -739.1154   2.0000                                         
     2  1  1.50      -625.3949   6.0000                                         
     3  0  0.50       -81.6100   2.0000                                         
     3  1  1.50       -50.4667   6.0000                                         
     3  2  2.50        -3.3745   6.0000                                         
     4  0  0.50        -4.1331   1.0000                                         
     4  3  2.50        -1.3606   0.0000                                         
   Description                                                                  
     l       E           TYP  RCUT    TYP  RCUT                                 
     1    -50.4666628     23  2.000                                             
     1     -1.3605826     23  2.000                                             
     2     -3.3744729     23  2.300                                             
     2     -4.7350555     23  2.300                                             
     0     -4.1331431     23  2.300                                             
     0      7.6656591     23  2.300                                             
     3      9.5240782     23  2.300                                             
  local pseudopotential read in
  partial core-charges read in
  partial kinetic energy density read in
  atomic valenz-charges read in
  non local Contribution for L=           1  read in
    real space projection operators read in
  non local Contribution for L=           1  read in
    real space projection operators read in
  non local Contribution for L=           2  read in
    real space projection operators read in
  non local Contribution for L=           2  read in
    real space projection operators read in
  non local Contribution for L=           0  read in
    real space projection operators read in
  non local Contribution for L=           0  read in
    real space projection operators read in
    PAW grid and wavefunctions read in
 
   number of l-projection  operators is LMAX  =           6
   number of lm-projection operators is LMMAX =          18
 
 POTCAR:    PAW_PBE O 08Apr2002                   
   VRHFIN =O: s2p4                                                              
   LEXCH  = PE                                                                  
   EATOM  =   432.3788 eV,   31.7789 Ry                                         
                                                                                
   TITEL  = PAW_PBE O 08Apr2002                                                 
   LULTRA =        F    use ultrasoft PP ?                                      
   IUNSCR =        1    unscreen: 0-lin 1-nonlin 2-no                           
   RPACOR =    1.200    partial core radius                                     
   POMASS =   16.000; ZVAL   =    6.000    mass and valenz                      
   RCORE  =    1.520    outmost cutoff radius                                   
   RWIGS  =    1.550; RWIGS  =    0.820    wigner-seitz radius (au A)           
   ENMAX  =  400.000; ENMIN  =  300.000 eV                                      
   ICORE  =        2    local potential                                         
   LCOR   =        T    correct aug charges                                     
   LPAW   =        T    paw PP                                                  
   EAUG   =  605.392                                                            
   DEXC   =    0.000                                                            
   RMAX   =    1.553    core radius for proj-oper                               
   RAUG   =    1.300    factor for augmentation sphere                          
   RDEP   =    1.550    radius for radial grids                                 
   RDEPT  =    1.329    core radius for aug-charge                              
                                                                                
   Atomic configuration                                                         
    4 entries                                                                   
     n  l   j            E        occ.                                          
     1  0  0.50      -514.6923   2.0000                                         
     2  0  0.50       -23.9615   2.0000                                         
     2  1  0.50        -9.0305   4.0000                                         
     3  2  1.50        -9.5241   0.0000                                         
   Description                                                                  
     l       E           TYP  RCUT    TYP  RCUT                                 
     0    -23.9615318     23  1.200                                             
     0     -9.5240782     23  1.200                                             
     1     -9.0304911     23  1.520                                             
     1      8.1634956     23  1.520                                             
     2     -9.5240782      7  1.500                                             
  local pseudopotential read in
  partial core-charges read in
  partial kinetic energy density read in
  kinetic energy density of atom read in
  atomic valenz-charges read in
  non local Contribution for L=           0  read in
    real space projection operators read in
  non local Contribution for L=           0  read in
    real space projection operators read in
  non local Contribution for L=           1  read in
    real space projection operators read in
  non local Contribution for L=           1  read in
    real space projection operators read in
    PAW grid and wavefunctions read in
 
   number of l-projection  operators is LMAX  =           4
   number of lm-projection operators is LMMAX =           8
 
 Optimization of the real space projectors (new method)

 maximal supplied QI-value         = 17.01
 optimisation between [QCUT,QGAM] = [ 10.20, 20.41] = [ 29.16,116.64] Ry 
 Optimized for a Real-space Cutoff    1.30 Angstroem

   l    n(q)    QCUT    max X(q) W(low)/X(q) W(high)/X(q)  e(spline) 
   1      7    10.205     4.940    0.23E-03    0.84E-03    0.11E-06
   1      7    10.205     6.253    0.40E-03    0.13E-02    0.18E-06
   0      8    10.205    37.438    0.23E-03    0.37E-03    0.42E-07
   0      8    10.205     9.606    0.16E-03    0.26E-03    0.31E-07
 Optimization of the real space projectors (new method)

 maximal supplied QI-value         = 18.90
 optimisation between [QCUT,QGAM] = [ 10.20, 20.41] = [ 29.16,116.64] Ry 
 Optimized for a Real-space Cutoff    1.26 Angstroem

   l    n(q)    QCUT    max X(q) W(low)/X(q) W(high)/X(q)  e(spline) 
   1      7    10.205     2.974    0.63E-04    0.14E-03    0.13E-06
   1      7    10.205     4.279    0.11E-03    0.45E-03    0.24E-06
   0      8    10.205    16.381    0.44E-03    0.15E-03    0.55E-07
   0      8    10.205     5.611    0.31E-03    0.11E-03    0.40E-07
   2      7    10.205     4.652    0.50E-03    0.47E-03    0.57E-07
 Optimization of the real space projectors (new method)

 maximal supplied QI-value         = 16.25
 optimisation between [QCUT,QGAM] = [ 10.24, 20.48] = [ 29.35,117.42] Ry 
 Optimized for a Real-space Cutoff    1.34 Angstroem

   l    n(q)    QCUT    max X(q) W(low)/X(q) W(high)/X(q)  e(spline) 
   1      8    10.239     3.658    0.23E-03    0.30E-03    0.98E-07
   1      8    10.239     5.612    0.32E-03    0.65E-03    0.21E-06
   2      7    10.239    55.373    0.42E-03    0.45E-03    0.65E-07
   2      7    10.239    50.863    0.43E-03    0.48E-03    0.67E-07
   0      8    10.239    79.536    0.11E-03    0.21E-03    0.56E-07
   0      8    10.239    38.668    0.96E-04    0.19E-03    0.52E-07
 Optimization of the real space projectors (new method)

 maximal supplied QI-value         = 24.76
 optimisation between [QCUT,QGAM] = [ 10.15, 20.30] = [ 28.85,115.39] Ry 
 Optimized for a Real-space Cutoff    1.38 Angstroem

   l    n(q)    QCUT    max X(q) W(low)/X(q) W(high)/X(q)  e(spline) 
   0      8    10.150    20.381    0.22E-03    0.32E-03    0.29E-06
   0      8    10.150    15.268    0.23E-03    0.35E-03    0.30E-06
   1      8    10.150     5.964    0.46E-03    0.53E-03    0.21E-06
   1      8    10.150     5.382    0.38E-03    0.45E-03    0.19E-06
  PAW_PBE Na_pv 19Sep2006               :
 energy of atom  1       EATOM= -766.0439
 kinetic energy error for atom=    0.0103 (will be added to EATOM!!)
  PAW_PBE Mg_pv 13Apr2007               :
 energy of atom  2       EATOM=-1056.7344
 kinetic energy error for atom=    0.0820 (will be added to EATOM!!)
  PAW_PBE Mn_pv 02Aug2007               :
 energy of atom  3       EATOM=-2025.2664
 kinetic energy error for atom=    0.0284 (will be added to EATOM!!)
  PAW_PBE O 08Apr2002                   :
 energy of atom  4       EATOM= -432.3788
 kinetic energy error for atom=    0.1156 (will be added to EATOM!!)
 
 
 POSCAR: Na Mg Mn  O                             
  positions in cartesian coordinates
  No initial velocities read in

 METAGGA = SCAN     LMAXTAU =  6    LMIXTAU =  F

 exchange correlation table for  LEXCH =        8
   RHO(1)=    0.500       N(1)  =     2000
   RHO(2)=  100.500       N(2)  =     4000

 VTST: version 3.2, (02/03/18)

 CHAIN: initializing optimizer
 
 OPT: Using VASP Dynamics algorithm
 CHAIN: Read ICHAIN            0
 
 POSCAR: Na Mg Mn  O                             
  positions in cartesian coordinates
  No initial velocities read in
 


--------------------------------------------------------------------------------------------------------


 ion  position               nearest neighbor table
   1  0.506  0.589  0.248-  52 2.22  65 2.33  33 2.88  35 2.92
   2  0.301  0.598  0.756-  85 2.24  83 2.33  80 2.35
   3  0.826  0.205  0.746-  58 2.23  59 2.23  61 2.28  56 2.36
   4  0.149  0.257  0.756-  47 2.25
   5  0.152  0.577  0.255-  64 2.14  55 2.32
   6  0.671  0.945  0.243-  54 2.25  63 2.33  40 2.93
   7  0.939  0.582  0.755-  60 2.20  73 2.23  57 2.36  37 2.84  39 2.97
   8  0.509  0.407  0.751-  49 2.30  46 2.37
   9  0.463  0.254  0.246-  42 2.21  51 2.34  62 2.38
  10  0.336  0.928  0.252-  79 2.32  88 2.34  86 2.34
  11  0.808  0.374  0.252-  62 2.16  55 2.17  53 2.31
  12  0.661  0.784  0.734-  82 2.22  69 2.27
  13  0.013  0.915  0.763-  73 2.27  47 2.33
  14  0.463  0.989  0.748-  81 2.14  84 2.19  29 2.98
  15  0.020  0.106  0.249-  41 2.24  76 2.29  25 2.82  27 2.87
  16  0.976  0.751  0.260-  75 2.14  66 2.34  86 2.37
  17  0.648  0.417  0.994-  43 2.01  49 2.02  60 2.07  53 2.10  71 2.13  66 2.24  29 2.80  26 2.86

  18  0.329  0.271  0.501-  50 2.01  46 2.04  44 2.08  51 2.09  45 2.10  52 2.14  31 2.82  36 2.85

  19  0.148  0.417  0.013-  41 2.00  83 2.01  78 2.05  55 2.08  61 2.12  48 2.13  30 2.84
  20  0.812  0.256  0.489-  56 2.02  57 2.03  63 2.04  62 2.08  58 2.16  64 2.20  28 2.81  40 2.81

  21  0.158  0.928  0.000-  67 1.96  84 2.04  42 2.08  47 2.10  73 2.12  77 2.13  29 2.84  26 2.86

  22  0.828  0.779  0.494-  68 2.01  76 2.03  69 2.04  75 2.08  74 2.08  70 2.10  27 2.78  36 2.82
                            40 2.84
  23  0.659  0.924  0.994-  65 2.00  72 2.02  59 2.05  54 2.08  79 2.10  85 2.16  25 2.86
  24  0.322  0.758  0.508-  82 1.95  87 2.02  80 2.05  86 2.07  81 2.07  88 2.12  35 2.77  39 2.79
                            32 2.83
  25  0.988  0.088  0.999-  61 1.87  41 1.89  72 1.93  54 1.95  47 1.96  67 1.98  15 2.82  23 2.86
                            34 2.86  26 2.87  30 2.93
  26  0.319  0.257  0.996-  47 1.89  41 1.89  43 1.90  42 1.95  49 1.98  48 1.98  21 2.86  17 2.86
                            29 2.86  25 2.87  33 2.87
  27  0.987  0.099  0.503-  69 1.87  63 1.90  76 1.92  58 1.94  44 1.95  50 2.00  22 2.78  36 2.80
                            15 2.87  40 2.88  32 2.90
  28  0.675  0.440  0.487-  57 1.88  75 1.89  46 1.90  62 1.94  52 1.95  68 2.04  20 2.81  39 2.84
                            31 2.98  35 3.06
  29  0.486  0.094  0.999-  84 1.83  42 1.85  49 1.85  53 1.90  79 1.92  59 2.08  17 2.80  21 2.84
                            26 2.86  30 2.91  38 2.93  14 2.98
  30  0.821  0.259  0.008-  53 1.89  59 1.94  55 1.97  54 1.97  60 1.98  61 1.99  19 2.84  37 2.89
                            29 2.91  25 2.93
  31  0.481  0.099  0.494-  81 1.85  46 1.87  51 1.90  88 1.94  62 1.99  56 2.03  18 2.82  36 2.85
                            40 2.95  28 2.98
  32  0.157  0.433  0.502-  50 1.84  87 1.85  80 1.91  64 1.94  58 1.98  45 2.07  24 2.83  35 2.85
                            39 2.89  27 2.90
  33  0.483  0.588  0.992-  71 1.84  48 1.89  43 1.89  65 1.93  78 1.94  85 1.97  38 2.82  26 2.87
                             1 2.88  34 2.95
  34  0.823  0.758  0.002-  66 1.86  67 1.88  72 1.89  73 1.95  71 1.98  65 1.99  25 2.86  37 2.87
                            33 2.95
  35  0.485  0.602  0.507-  45 1.88  87 1.88  74 1.93  82 1.95  52 1.95  68 2.06  24 2.77  32 2.85
                            40 2.87   1 2.92  28 3.06
  36  0.152  0.943  0.500-  76 1.85  44 1.86  70 1.87  51 1.93  81 2.01  86 2.07  27 2.80  22 2.82
                            31 2.85  18 2.85  39 2.90
  37  0.987  0.591  0.005-  66 1.80  60 1.89  73 1.90  77 1.92  83 1.94  55 2.02   7 2.84  34 2.87
                            30 2.89  38 2.96
  38  0.328  0.757  0.012-  78 1.86  85 1.92  79 1.92  83 1.94  84 1.96  77 2.00  33 2.82  29 2.93
                            37 2.96
  39  0.001  0.609  0.495-  64 1.91  57 1.92  80 1.93  70 1.94  86 1.94  75 1.95  24 2.79  28 2.84
                            32 2.89  36 2.90   7 2.97
  40  0.655  0.932  0.503-  56 1.86  74 1.87  82 1.89  63 1.90  88 1.94  69 1.94  20 2.81  22 2.84
                            35 2.87  27 2.88   6 2.93  31 2.95
  41  0.154  0.240  0.089-  25 1.89  26 1.89  19 2.00  15 2.24
  42  0.340  0.107  0.092-  29 1.85  26 1.95  21 2.08   9 2.21
  43  0.477  0.425  0.082-  33 1.89  26 1.90  17 2.01
  44  0.149  0.094  0.595-  36 1.86  27 1.95  18 2.08
  45  0.336  0.448  0.606-  35 1.88  32 2.07  18 2.10
  46  0.517  0.276  0.577-  31 1.87  28 1.90  18 2.04   8 2.37
  47  0.158  0.106  0.901-  26 1.89  25 1.96  21 2.10   4 2.25  13 2.33
  48  0.326  0.428  0.901-  33 1.89  26 1.98  19 2.13
  49  0.477  0.241  0.903-  29 1.85  26 1.98  17 2.02   8 2.30
  50  0.156  0.277  0.416-  32 1.84  27 2.00  18 2.01
  51  0.318  0.090  0.401-  31 1.90  36 1.93  18 2.09   9 2.34
  52  0.513  0.459  0.406-  28 1.95  35 1.95  18 2.14   1 2.22
  53  0.651  0.241  0.094-  30 1.89  29 1.90  17 2.10  11 2.31
  54  0.832  0.095  0.098-  25 1.95  30 1.97  23 2.08   6 2.25
  55  0.975  0.423  0.111-  30 1.97  37 2.02  19 2.08  11 2.17   5 2.32
  56  0.647  0.087  0.590-  40 1.86  20 2.02  31 2.03   3 2.36
  57  0.833  0.442  0.578-  28 1.88  39 1.92  20 2.03   7 2.36
  58  0.994  0.264  0.598-  27 1.94  32 1.98  20 2.16   3 2.23
  59  0.669  0.105  0.902-  30 1.94  23 2.05  29 2.08   3 2.23
  60  0.837  0.430  0.910-  37 1.89  30 1.98  17 2.07   7 2.20
  61  0.975  0.238  0.909-  25 1.87  30 1.99  19 2.12   3 2.28
  62  0.640  0.264  0.392-  28 1.94  31 1.99  20 2.08  11 2.16   9 2.38
  63  0.820  0.078  0.407-  40 1.90  27 1.90  20 2.04   6 2.33
  64  0.010  0.454  0.403-  39 1.91  32 1.94   5 2.14  20 2.20
  65  0.644  0.747  0.088-  33 1.93  34 1.99  23 2.00   1 2.33
  66  0.846  0.613  0.089-  37 1.80  34 1.86  17 2.24  16 2.34
  67  0.985  0.917  0.089-  34 1.88  21 1.96  25 1.98
  68  0.668  0.603  0.592-  22 2.01  28 2.04  35 2.06
  69  0.826  0.947  0.595-  27 1.87  40 1.94  22 2.04  12 2.27
  70  0.006  0.775  0.589-  36 1.87  39 1.94  22 2.10
  71  0.647  0.605  0.906-  33 1.84  34 1.98  17 2.13
  72  0.833  0.919  0.907-  34 1.89  25 1.93  23 2.02
  73  0.977  0.741  0.907-  37 1.90  34 1.95  21 2.12   7 2.23  13 2.27
  74  0.637  0.769  0.411-  40 1.87  35 1.93  22 2.08
  75  0.835  0.604  0.400-  28 1.89  39 1.95  22 2.08  16 2.14
  76  0.007  0.953  0.405-  36 1.85  27 1.92  22 2.03  15 2.29
  77  0.150  0.745  0.102-  37 1.92  38 2.00  21 2.13
  78  0.332  0.598  0.095-  38 1.86  33 1.94  19 2.05
  79  0.487  0.935  0.093-  38 1.92  29 1.92  23 2.10  10 2.32
  80  0.141  0.583  0.597-  32 1.91  39 1.93  24 2.05   2 2.35
  81  0.329  0.948  0.589-  31 1.85  36 2.01  24 2.07  14 2.14
  82  0.497  0.775  0.596-  40 1.89  24 1.95  35 1.95  12 2.22
  83  0.159  0.595  0.922-  37 1.94  38 1.94  19 2.01   2 2.33
  84  0.338  0.926  0.917-  29 1.83  38 1.96  21 2.04  14 2.19
  85  0.465  0.745  0.899-  38 1.92  33 1.97  23 2.16   2 2.24
  86  0.163  0.774  0.401-  39 1.94  24 2.07  36 2.07  10 2.34  16 2.37
  87  0.320  0.584  0.416-  32 1.85  35 1.88  24 2.02
  88  0.498  0.940  0.407-  40 1.94  31 1.94  24 2.12  10 2.34
 
  LATTYP: Found a hexagonal cell.
 ALAT       =    10.0190000534
 C/A-ratio  =     1.1196726572
  
  Lattice vectors:
  
 A1 = (  10.0190000534,   0.0000000000,   0.0000000000)
 A2 = (  -5.0095000267,   8.6767085668,   0.0000000000)
 A3 = (   0.0000000000,   0.0000000000,  11.2180004120)


Analysis of symmetry for initial positions (statically):
=====================================================================
 Subroutine PRICEL returns:
 Original cell was already a primitive cell.
 

 Routine SETGRP: Setting up the symmetry group for a 
 hexagonal supercell.


 Subroutine GETGRP returns: Found  1 space group operations
 (whereof  1 operations were pure point group operations)
 out of a pool of 24 trial point group operations.


The static configuration has the point symmetry C_1 .


Analysis of symmetry for dynamics (positions and initial velocities):
=====================================================================
 Subroutine PRICEL returns:
 Original cell was already a primitive cell.
 

 Routine SETGRP: Setting up the symmetry group for a 
 hexagonal supercell.


 Subroutine GETGRP returns: Found  1 space group operations
 (whereof  1 operations were pure point group operations)
 out of a pool of 24 trial point group operations.


The dynamic configuration has the point symmetry C_1 .


Analysis of structural, dynamic, and magnetic symmetry:
=====================================================================
 Subroutine PRICEL returns:
 Original cell was already a primitive cell.
 

 Routine SETGRP: Setting up the symmetry group for a 
 hexagonal supercell.


 Subroutine GETGRP returns: Found  1 space group operations
 (whereof  1 operations were pure point group operations)
 out of a pool of 24 trial point group operations.


The magnetic configuration has the point symmetry C_1 .


 Subroutine INISYM returns: Found  1 space group operations
 (whereof  1 operations are pure point group operations),
 and found     1 'primitive' translations

 
 

Automatic generation of k-mesh.
 generate k-points for:    2    2    2
Space group operators:
 irot       det(A)        alpha          n_x          n_y          n_z        tau_x        tau_y        tau_z
    1     1.000000     0.000000     1.000000     0.000000     0.000000     0.000000     0.000000     0.000000
 
 Subroutine IBZKPT returns following result:
 ===========================================
 
 Found      8 irreducible k-points:
 
 Following reciprocal coordinates:
            Coordinates               Weight
  0.000000  0.000000  0.000000      1.000000
  0.500000 -0.000000 -0.000000      1.000000
  0.000000  0.500000  0.000000      1.000000
  0.500000  0.500000 -0.000000      1.000000
  0.000000  0.000000  0.500000      1.000000
  0.500000 -0.000000  0.500000      1.000000
  0.000000  0.500000  0.500000      1.000000
  0.500000  0.500000  0.500000      1.000000
 
 Following cartesian coordinates:
            Coordinates               Weight
  0.000000  0.000000  0.000000      1.000000
  0.049905  0.028813 -0.000000      1.000000
  0.000000  0.057626  0.000000      1.000000
  0.049905  0.086438 -0.000000      1.000000
  0.000000  0.000000  0.044571      1.000000
  0.049905  0.028813  0.044571      1.000000
  0.000000  0.057626  0.044571      1.000000
  0.049905  0.086438  0.044571      1.000000
 


--------------------------------------------------------------------------------------------------------




 Dimension of arrays:
   k-points           NKPTS =      8   k-points in BZ     NKDIM =      8   number of bands    NBANDS=    448
   number of dos      NEDOS =    301   number of ions     NIONS =     88
   non local maximal  LDIM  =      6   non local SUM 2l+1 LMDIM =     18
   total plane-waves  NPLWV = 140000
   max r-space proj   IRMAX =   1632   max aug-charges    IRDMAX=   4555
   dimension x,y,z NGX =    50 NGY =   50 NGZ =   56
   dimension x,y,z NGXF=   100 NGYF=  100 NGZF=  112
   support grid    NGXF=   100 NGYF=  100 NGZF=  112
   ions per type =              16   8  16  48
   NGX,Y,Z   is equivalent  to a cutoff of   8.30,  8.30,  8.30 a.u.
   NGXF,Y,Z  is equivalent  to a cutoff of  16.59, 16.59, 16.60 a.u.

 SYSTEM =  unknown system                          
 POSCAR =  Na Mg Mn  O                             

 Startparameter for this run:
   NWRITE =      2    write-flag & timer
   PREC   = normal    normal or accurate (medium, high low for compatibility)
   ISTART =      0    job   : 0-new  1-cont  2-samecut
   ICHARG =      1    charge: 1-file 2-atom 10-const
   ISPIN  =      2    spin polarized calculation?
   LNONCOLLINEAR =      F non collinear calculations
   LSORBIT =      F    spin-orbit coupling
   INIWAV =      1    electr: 0-lowe 1-rand  2-diag
   LASPH  =      T    aspherical Exc in radial PAW
   METAGGA=      F    non-selfconsistent MetaGGA calc.

 Electronic Relaxation 1
   ENCUT  =  400.0 eV  29.40 Ry    5.42 a.u.  16.34 16.34 18.29*2*pi/ulx,y,z
   ENINI  =  400.0     initial cutoff
   ENAUG  =  758.8 eV  augmentation charge cutoff
   NELM   =    200;   NELMIN=  6; NELMDL=-12     # of ELM steps 
   EDIFF  = 0.1E-04   stopping-criterion for ELM
   LREAL  =      T    real-space projection
   NLSPLINE    = F    spline interpolate recip. space projectors
   LCOMPAT=      F    compatible to vasp.4.4
   GGA_COMPAT  = T    GGA compatible to vasp.4.4-vasp.4.6
   LMAXPAW     = -100 max onsite density
   LMAXMIX     =    4 max onsite mixed and CHGCAR
   VOSKOWN=      0    Vosko Wilk Nusair interpolation
   ROPT   =   -0.00050  -0.00050  -0.00050  -0.00050
 Ionic relaxation
   EDIFFG = 0.1E-03   stopping-criterion for IOM
   NSW    =      1    number of steps for IOM
   NBLOCK =      1;   KBLOCK =      1    inner block; outer block 
   IBRION =     -1    ionic relax: 0-MD 1-quasi-New 2-CG
   NFREE  =      0    steps in history (QN), initial steepest desc. (CG)
   ISIF   =      2    stress and relaxation
   IWAVPR =     10    prediction:  0-non 1-charg 2-wave 3-comb
   ISYM   =      2    0-nonsym 1-usesym 2-fastsym
   LCORR  =      T    Harris-Foulkes like correction to forces

   POTIM  = 0.5000    time-step for ionic-motion
   TEIN   =    0.0    initial temperature
   TEBEG  =    0.0;   TEEND  =   0.0 temperature during run
   SMASS  =  -3.00    Nose mass-parameter (am)
   estimated Nose-frequenzy (Omega)   =  0.10E-29 period in steps =****** mass=  -0.229E-26a.u.
   SCALEE = 1.0000    scale energy and forces
   NPACO  =    256;   APACO  = 16.0  distance and # of slots for P.C.
   PSTRESS=    0.0 pullay stress

  Mass of Ions in am
   POMASS =  22.99 24.30 54.94 16.00
  Ionic Valenz
   ZVAL   =   7.00  8.00 13.00  6.00
  Atomic Wigner-Seitz radii
   RWIGS  =  -1.00 -1.00 -1.00 -1.00
  virtual crystal weights 
   VCA    =   1.00  1.00  1.00  1.00
   NELECT =     672.0000    total number of electrons
   NUPDOWN=      48.0000    fix difference up-down

 DOS related values:
   EMIN   =  10.00;   EMAX   =-10.00  energy-range for DOS
   EFERMI =   0.00
   ISMEAR =     0;   SIGMA  =   0.05  broadening in eV -4-tet -1-fermi 0-gaus

 Electronic relaxation 2 (details)
   IALGO  =     48    algorithm
   LDIAG  =      T    sub-space diagonalisation (order eigenvalues)
   LSUBROT=      F    optimize rotation matrix (better conditioning)
   TURBO    =      0    0=normal 1=particle mesh
   IRESTART =      0    0=no restart 2=restart with 2 vectors
   NREBOOT  =      0    no. of reboots
   NMIN     =      0    reboot dimension
   EREF     =   0.00    reference energy to select bands
   IMIX   =      4    mixing-type and parameters
     AMIX     =   0.40;   BMIX     =  1.00
     AMIX_MAG =   1.60;   BMIX_MAG =  1.00
     AMIN     =   0.10
     WC   =   100.;   INIMIX=   1;  MIXPRE=   1;  MAXMIX= -45

 Intra band minimization:
   WEIMIN = 0.0000     energy-eigenvalue tresh-hold
   EBREAK =  0.56E-08  absolut break condition
   DEPER  =   0.30     relativ break condition  

   TIME   =   0.40     timestep for ELM

  volume/ion in A,a.u.               =      11.08        74.78
  Fermi-wavevector in a.u.,A,eV,Ry     =   1.445993  2.732531 28.448379  2.090897
  Thomas-Fermi vector in A             =   2.564112
 
 Write flags
   LWAVE        =      F    write WAVECAR
   LDOWNSAMPLE  =      F    k-point downsampling of WAVECAR
   LCHARG       =      F    write CHGCAR
   LVTOT        =      F    write LOCPOT, total local potential
   LVHAR        =      F    write LOCPOT, Hartree potential only
   LELF         =      F    write electronic localiz. function (ELF)
   LORBIT       =     11    0 simple, 1 ext, 2 COOP (PROOUT), +10 PAW based schemes


 Dipole corrections
   LMONO  =      F    monopole corrections only (constant potential shift)
   LDIPOL =      F    correct potential (dipole corrections)
   IDIPOL =      0    1-x, 2-y, 3-z, 4-all directions 
   EPSILON=  1.0000000 bulk dielectric constant

 Exchange correlation treatment:
   GGA     =    --    GGA type
   LEXCH   =     8    internal setting for exchange type
   VOSKOWN=      0    Vosko Wilk Nusair interpolation
   LHFCALC =     F    Hartree Fock is set to
   LHFONE  =     F    Hartree Fock one center treatment
   AEXX    =    0.0000 exact exchange contribution

 Linear response parameters
   LEPSILON=     F    determine dielectric tensor
   LRPA    =     F    only Hartree local field effects (RPA)
   LNABLA  =     F    use nabla operator in PAW spheres
   LVEL    =     F    velocity operator in full k-point grid
   LINTERFAST=   F  fast interpolation
   KINTER  =     0    interpolate to denser k-point grid
   CSHIFT  =0.1000    complex shift for real part using Kramers Kronig
   OMEGAMAX=  -1.0    maximum frequency
   DEG_THRESHOLD= 0.2000000E-02 threshold for treating states as degnerate
   RTIME   =   -0.100 relaxation time in fs
  (WPLASMAI=    0.000 imaginary part of plasma frequency in eV, 0.658/RTIME)
   DFIELD  = 0.0000000 0.0000000 0.0000000 field for delta impulse in time
 
 Orbital magnetization related:
   ORBITALMAG=     F  switch on orbital magnetization
   LCHIMAG   =     F  perturbation theory with respect to B field
   DQ        =  0.001000  dq finite difference perturbation B field
   LLRAUG    =     F  two centre corrections for induced B field



--------------------------------------------------------------------------------------------------------


 Static calculation
 charge density and potential will be updated during run
 spin polarized calculation
 RMM-DIIS sequential band-by-band
 perform sub-space diagonalisation
    before iterative eigenvector-optimisation
 modified Broyden-mixing scheme, WC =      100.0
 initial mixing is a Kerker type mixing with AMIX =  0.4000 and BMIX =      1.0000
 Hartree-type preconditioning will be used
 using additional bands          112
 real space projection scheme for non local part
 use partial core corrections
 calculate Harris-corrections to forces 
   (improved forces if not selfconsistent)
 use gradient corrections 
 use of overlap-Matrix (Vanderbilt PP)
 Gauss-broadening in eV      SIGMA  =   0.05


--------------------------------------------------------------------------------------------------------


  energy-cutoff  :      400.00
  volume of cell :      975.20
      direct lattice vectors                 reciprocal lattice vectors
    10.019000053  0.000000000  0.000000000     0.099810360  0.057625538 -0.000000000
    -5.009500027  8.676708567  0.000000000     0.000000000  0.115251076  0.000000000
     0.000000000  0.000000000 11.218000412     0.000000000  0.000000000  0.089142446

  length of vectors
    10.019000053 10.019000053 11.218000412     0.115251076  0.115251076  0.089142446


 
 k-points in units of 2pi/SCALE and weight: read from INCAR                         
   0.00000000  0.00000000  0.00000000       0.125
   0.04990518  0.02881277 -0.00000000       0.125
   0.00000000  0.05762554  0.00000000       0.125
   0.04990518  0.08643831 -0.00000000       0.125
   0.00000000  0.00000000  0.04457122       0.125
   0.04990518  0.02881277  0.04457122       0.125
   0.00000000  0.05762554  0.04457122       0.125
   0.04990518  0.08643831  0.04457122       0.125
 
 k-points in reciprocal lattice and weights: read from INCAR                         
   0.00000000  0.00000000  0.00000000       0.125
   0.50000000 -0.00000000 -0.00000000       0.125
   0.00000000  0.50000000  0.00000000       0.125
   0.50000000  0.50000000 -0.00000000       0.125
   0.00000000  0.00000000  0.50000000       0.125
   0.50000000 -0.00000000  0.50000000       0.125
   0.00000000  0.50000000  0.50000000       0.125
   0.50000000  0.50000000  0.50000000       0.125
 
 position of ions in fractional coordinates (direct lattice) 
   0.50616066  0.58914539  0.24845070
   0.30063480  0.59827525  0.75631037
   0.82559307  0.20507974  0.74602155
   0.14933592  0.25703295  0.75615972
   0.15222662  0.57746453  0.25457656
   0.67056142  0.94545463  0.24251470
   0.93862007  0.58242033  0.75505078
   0.50887099  0.40718205  0.75053394
   0.46304275  0.25442169  0.24610536
   0.33612404  0.92811593  0.25242021
   0.80806355  0.37372368  0.25207344
   0.66089225  0.78394638  0.73375198
   0.01286390  0.91491836  0.76314224
   0.46328768  0.98899673  0.74752805
   0.02018101  0.10571784  0.24865305
   0.97626676  0.75131584  0.25962916
   0.64785884  0.41726076  0.99423830
   0.32916604  0.27122958  0.50129611
   0.14840151  0.41734259  0.01262253
   0.81235023  0.25590118  0.48885539
   0.15806430  0.92828749  0.00037672
   0.82787704  0.77908575  0.49411301
   0.65913944  0.92382036  0.99404125
   0.32224156  0.75844659  0.50835976
   0.98813756  0.08834818  0.99881236
   0.31873449  0.25725538  0.99577038
   0.98651289  0.09878804  0.50319752
   0.67463842  0.44039972  0.48715634
   0.48579188  0.09417643  0.99852356
   0.82118643  0.25867989  0.00784450
   0.48094871  0.09852584  0.49422266
   0.15737742  0.43273667  0.50244694
   0.48328739  0.58819770  0.99232631
   0.82292748  0.75843506  0.00210894
   0.48539624  0.60212694  0.50736760
   0.15248364  0.94252791  0.50048224
   0.98712293  0.59136134  0.00547691
   0.32792906  0.75712811  0.01171216
   0.00123113  0.60932322  0.49468442
   0.65465871  0.93239158  0.50314849
   0.15360085  0.23988820  0.08888447
   0.34029767  0.10715688  0.09169994
   0.47712375  0.42506095  0.08152968
   0.14897103  0.09377997  0.59476464
   0.33587858  0.44800629  0.60554731
   0.51699720  0.27568518  0.57699855
   0.15830073  0.10642480  0.90133710
   0.32619556  0.42821307  0.90139059
   0.47742873  0.24052669  0.90251378
   0.15560706  0.27661526  0.41562576
   0.31798449  0.08997437  0.40149758
   0.51253451  0.45890674  0.40600105
   0.65079743  0.24132538  0.09355232
   0.83219195  0.09506762  0.09789267
   0.97523555  0.42273979  0.11098591
   0.64689296  0.08699283  0.58960864
   0.83326930  0.44248230  0.57763325
   0.99438903  0.26434448  0.59808163
   0.66857206  0.10495927  0.90242464
   0.83741777  0.43026223  0.91007306
   0.97493363  0.23836112  0.90873593
   0.63952134  0.26368985  0.39207790
   0.82012021  0.07764136  0.40734711
   0.00986374  0.45351529  0.40292207
   0.64369665  0.74696412  0.08844428
   0.84553971  0.61336507  0.08923694
   0.98469880  0.91738243  0.08942057
   0.66792018  0.60349382  0.59227668
   0.82624112  0.94743184  0.59489390
   0.00624669  0.77466126  0.58863253
   0.64727432  0.60461752  0.90562486
   0.83345937  0.91931519  0.90676588
   0.97680566  0.74060803  0.90709571
   0.63693738  0.76865668  0.41147618
   0.83501419  0.60397787  0.40015242
   0.00717281  0.95269075  0.40545015
   0.15014960  0.74472479  0.10175343
   0.33227903  0.59821532  0.09462025
   0.48663344  0.93455484  0.09345783
   0.14129085  0.58251582  0.59690941
   0.32928891  0.94773841  0.58918254
   0.49749502  0.77521562  0.59620697
   0.15858680  0.59529716  0.92152787
   0.33814463  0.92618646  0.91740057
   0.46501729  0.74461070  0.89895700
   0.16285303  0.77394440  0.40074522
   0.31966423  0.58399680  0.41606256
   0.49792973  0.93993591  0.40715367
 
 position of ions in cartesian coordinates  (Angst):
   2.11989981  5.11184283  2.78712000
   0.01500016  5.19106000  8.48429000
   7.24427005  1.77941713  8.36887000
   0.20859005  2.23020000  8.48260000
  -1.36765003  5.01049143  2.85584000
   1.98209989  8.20343427  2.72053000
   6.48639992  5.05349143  8.47016000
   3.05859995  3.53300000  8.41949000
   3.36469992  2.20754283  2.76081000
  -1.28177003  8.05299143  2.83165000
   6.22382003  3.24269143  2.82776000
   2.69430008  6.80207430  8.23123000
  -4.45440016  7.93848000  8.56093000
  -0.31269987  8.58123637  8.38577000
  -0.32739995  0.91728287  2.78939000
   6.01749997  6.51894857  2.91252000
   4.40063000  3.62045000 11.15336571
   1.93919000  2.35338000  5.62354000
  -0.60384300  3.62116000  0.14159959
   6.85700000  2.22038000  5.48398000
  -3.06661000  8.05448000  0.00422609
   4.39167000  6.75990000  5.54296000
   1.97604000  8.01572000 11.15115511
  -0.57090000  6.58082000  5.70278000
   9.45757003  0.76657143 11.20467741
   1.90468000  2.23213000 11.17055251
   9.38899405  0.85715500  5.64487000
   4.55302000  3.82122000  5.46492000
   4.39537203  0.81714143 11.20143771
   6.93161000  2.24449000  0.08799959
   4.32506000  0.85488000  5.54419000
  -0.59103000  3.75473000  5.63645000
   1.89548000  5.10362000 11.13191691
   4.44553000  6.58072000  0.02365810
   1.84683000  5.22448000  5.69165000
  -3.19386000  8.17804000  5.61441000
   6.92756005  5.13107000  0.06144000
  -0.50731200  6.56938000  0.13138700
  -3.04007000  5.28692000  5.54937000
   1.88821000  8.09009000  5.64432000
   0.33720700  2.08144000  0.99710600
   2.87264000  0.92976900  1.02869000
   2.65096000  3.68813000  0.91460000
   1.02275003  0.81370143  6.67207000
   1.12088000  3.88722000  6.79303000
   3.79875000  2.39204000  6.47277000
   1.05288000  0.92341700 10.11120000
   1.12302000  3.71548000 10.11180000
   3.57844000  2.08698000 10.12440000
   0.17332300  2.40011000  4.66249000
   2.73516003  0.78068143  4.50400000
   2.83619000  3.98180000  4.55452000
   5.31142000  2.09391000  1.04947000
   7.86149000  0.82487400  1.09816000
   7.65317000  3.66799000  1.24504000
   6.04543003  0.75481143  6.61423000
   6.13191000  3.83929000  6.47989000
   8.63855005  2.29364000  6.70928000
   6.17263000  0.91070100 10.12340000
   6.23469000  3.73326000 10.20920000
   8.57379000  2.06819000 10.19420000
   5.08641000  2.28796000  4.39833000
   7.82784003  0.67367143  4.56962000
  -2.17306000  3.93502000  4.51998000
   2.70728000  6.48119000  0.99216800
   5.39881000  5.32199000  1.00106000
   5.27007000  7.95986000  1.00312000
   3.66869000  5.23634000  6.64416000
   3.53195000  8.22059000  6.67352000
  -3.81808000  6.72151000  6.60328000
   3.45621000  5.24609000 10.15930000
   3.74512000  7.97663000 10.17210000
   6.07654000  6.42604000 10.17580000
   2.53089000  6.66941000  4.61594000
   5.34038000  5.24054000  4.48891000
  -4.70064000  8.26622000  4.54834000
  -2.22635000  6.46176000  1.14147000
   0.33234400  5.19054000  1.06145000
   0.19392800  8.10886000  1.04841000
  -1.50252000  5.05432000  6.69613000
  -1.44855000  8.22325000  6.60945000
   1.10096000  6.72632000  6.68825000
  -1.39326000  5.16522000 10.33770000
  -1.25186000  8.03625000 10.29140000
   0.92888100  6.46077000 10.08450000
  -2.24545000  6.71529000  4.49556000
   0.27718400  5.06717000  4.66739000
   0.28014900  8.15555000  4.56745000
 


--------------------------------------------------------------------------------------------------------


 k-point  1 :   0.0000 0.0000 0.0000  plane waves:   17725
 k-point  2 :   0.5000-0.0000-0.0000  plane waves:   17736
 k-point  3 :   0.0000 0.5000 0.0000  plane waves:   17736
 k-point  4 :   0.5000 0.5000-0.0000  plane waves:   17736
 k-point  5 :   0.0000 0.0000 0.5000  plane waves:   17676
 k-point  6 :   0.5000-0.0000 0.5000  plane waves:   17700
 k-point  7 :   0.0000 0.5000 0.5000  plane waves:   17700
 k-point  8 :   0.5000 0.5000 0.5000  plane waves:   17700

 maximum and minimum number of plane-waves per node :     17736    17676

 maximum number of plane-waves:     17736
 maximum index in each direction: 
   IXMAX=   16   IYMAX=   16   IZMAX=   18
   IXMIN=  -16   IYMIN=  -16   IZMIN=  -18


 serial   3D FFT for wavefunctions
 parallel 3D FFT for charge:
    minimum data exchange during FFTs selected (reduces bandwidth)


 total amount of memory used by VASP MPI-rank0    88175. kBytes
=======================================================================

   base      :      30000. kBytes
   nonlr-proj:      13666. kBytes
   fftplans  :        992. kBytes
   grid      :      21513. kBytes
   one-center:       2737. kBytes
   wavefun   :      19267. kBytes
 
     INWAV:  cpu time    0.0000: real time    0.0001
 Broyden mixing: mesh for mixing (old mesh)
   NGX = 33   NGY = 33   NGZ = 37
  (NGX  =100   NGY  =100   NGZ  =112)
  gives a total of  40293 points

 initial charge density was supplied:
 charge density of overlapping atoms calculated
 number of electron     672.0000000 magnetization      48.0000000
 keeping initial charge density in first step


--------------------------------------------------------------------------------------------------------


 Maximum index for non-local projection operator         1546
 Maximum index for augmentation-charges          286 (set IRDMAX)


--------------------------------------------------------------------------------------------------------


 First call to EWALD:  gamma=   0.179
 Maximum number of real-space cells 3x 3x 2
 Maximum number of reciprocal cells 3x 3x 3

    FEWALD:  cpu time    0.0028: real time    0.0030


--------------------------------------- Iteration      1(   1)  ---------------------------------------


    POTLOK:  cpu time    0.2026: real time    0.2038
    SETDIJ:  cpu time    3.1185: real time    3.1196
    EDDIAG:  cpu time    3.7126: real time    3.7162
  RMM-DIIS:  cpu time    6.5196: real time    6.6167
    ORTHCH:  cpu time    1.1615: real time    1.1637
       DOS:  cpu time    0.0017: real time    0.0018
    --------------------------------------------
      LOOP:  cpu time   14.7165: real time   14.8218

 eigenvalue-minimisations  :  7168
 total energy-change (2. order) : 0.1867498E+04  (-0.3595128E+05)
 number of electron     672.0000000 magnetization      48.0000000
 augmentation part      672.0000000 magnetization      48.0000000

 Free energy of the ion-electron system (eV)
  ---------------------------------------------------
  alpha Z        PSCENC =      2652.81237852
  Ewald energy   TEWEN  =    -41811.76711523
  -Hartree energ DENC   =    -25799.25289694
  -exchange      EXHF   =         0.00000000
  -V(xc)+E(xc)   XCENC  =      3606.09051849
  PAW double counting   =     55594.23204139   -59034.67079123
  entropy T*S    EENTRO =        -0.05440261
  eigenvalues    EBANDS =     -7202.09005030
  atomic energy  EATOM  =     73862.19814772
  Solvation  Ediel_sol  =         0.00000000
  ---------------------------------------------------
  free energy    TOTEN  =      1867.49782981 eV

  energy without entropy =     1867.55223242  energy(sigma->0) =     1867.52503112


--------------------------------------------------------------------------------------------------------




--------------------------------------- Iteration      1(   2)  ---------------------------------------


    EDDIAG:  cpu time    3.7605: real time    3.7646
  RMM-DIIS:  cpu time    6.6198: real time    6.6220
    ORTHCH:  cpu time    1.1485: real time    1.1510
       DOS:  cpu time    0.0014: real time    0.0014
    --------------------------------------------
      LOOP:  cpu time   11.5303: real time   11.5389

 eigenvalue-minimisations  :  7168
 total energy-change (2. order) :-0.2711383E+04  (-0.8685112E+04)
 number of electron     672.0000000 magnetization      48.0000000
 augmentation part      672.0000000 magnetization      48.0000000

 Free energy of the ion-electron system (eV)
  ---------------------------------------------------
  alpha Z        PSCENC =      2652.81237852
  Ewald energy   TEWEN  =    -41811.76711523
  -Hartree energ DENC   =    -25799.25289694
  -exchange      EXHF   =         0.00000000
  -V(xc)+E(xc)   XCENC  =      3606.09051849
  PAW double counting   =     55594.23204139   -59034.67079123
  entropy T*S    EENTRO =        -0.04808581
  eigenvalues    EBANDS =     -9913.47983866
  atomic energy  EATOM  =     73862.19814772
  Solvation  Ediel_sol  =         0.00000000
  ---------------------------------------------------
  free energy    TOTEN  =      -843.88564175 eV

  energy without entropy =     -843.83755594  energy(sigma->0) =     -843.86159884


--------------------------------------------------------------------------------------------------------




--------------------------------------- Iteration      1(   3)  ---------------------------------------


    EDDIAG:  cpu time    3.7630: real time    3.7655
  RMM-DIIS:  cpu time    6.6009: real time    6.6049
    ORTHCH:  cpu time    1.1525: real time    1.1549
       DOS:  cpu time    0.0015: real time    0.0015
    --------------------------------------------
      LOOP:  cpu time   11.5178: real time   11.5267

 eigenvalue-minimisations  :  7168
 total energy-change (2. order) : 0.3091958E+03  (-0.1561831E+04)
 number of electron     672.0000000 magnetization      48.0000000
 augmentation part      672.0000000 magnetization      48.0000000

 Free energy of the ion-electron system (eV)
  ---------------------------------------------------
  alpha Z        PSCENC =      2652.81237852
  Ewald energy   TEWEN  =    -41811.76711523
  -Hartree energ DENC   =    -25799.25289694
  -exchange      EXHF   =         0.00000000
  -V(xc)+E(xc)   XCENC  =      3606.09051849
  PAW double counting   =     55594.23204139   -59034.67079123
  entropy T*S    EENTRO =        -0.03510161
  eigenvalues    EBANDS =     -9604.29698369
  atomic energy  EATOM  =     73862.19814772
  Solvation  Ediel_sol  =         0.00000000
  ---------------------------------------------------
  free energy    TOTEN  =      -534.68980257 eV

  energy without entropy =     -534.65470097  energy(sigma->0) =     -534.67225177


--------------------------------------------------------------------------------------------------------




--------------------------------------- Iteration      1(   4)  ---------------------------------------


    EDDIAG:  cpu time    3.7400: real time    3.7524
  RMM-DIIS:  cpu time    6.6664: real time    6.6695
    ORTHCH:  cpu time    1.1686: real time    1.1708
       DOS:  cpu time    0.0012: real time    0.0012
    --------------------------------------------
      LOOP:  cpu time   11.5762: real time   11.5938

 eigenvalue-minimisations  :  7168
 total energy-change (2. order) :-0.5232621E+03  (-0.5070322E+03)
 number of electron     672.0000000 magnetization      48.0000000
 augmentation part      672.0000000 magnetization      48.0000000

 Free energy of the ion-electron system (eV)
  ---------------------------------------------------
  alpha Z        PSCENC =      2652.81237852
  Ewald energy   TEWEN  =    -41811.76711523
  -Hartree energ DENC   =    -25799.25289694
  -exchange      EXHF   =         0.00000000
  -V(xc)+E(xc)   XCENC  =      3606.09051849
  PAW double counting   =     55594.23204139   -59034.67079123
  entropy T*S    EENTRO =        -0.00198505
  eigenvalues    EBANDS =    -10127.59216589
  atomic energy  EATOM  =     73862.19814772
  Solvation  Ediel_sol  =         0.00000000
  ---------------------------------------------------
  free energy    TOTEN  =     -1057.95186822 eV

  energy without entropy =    -1057.94988316  energy(sigma->0) =    -1057.95087569


--------------------------------------------------------------------------------------------------------




--------------------------------------- Iteration      1(   5)  ---------------------------------------


    EDDIAG:  cpu time    3.7529: real time    3.7555
  RMM-DIIS:  cpu time    6.6157: real time    6.6178
    ORTHCH:  cpu time    1.1480: real time    1.1502
       DOS:  cpu time    0.0010: real time    0.0010
    --------------------------------------------
      LOOP:  cpu time   11.5175: real time   11.5244

 eigenvalue-minimisations  :  7168
 total energy-change (2. order) :-0.1477022E+03  (-0.2127016E+03)
 number of electron     672.0000000 magnetization      48.0000000
 augmentation part      672.0000000 magnetization      48.0000000

 Free energy of the ion-electron system (eV)
  ---------------------------------------------------
  alpha Z        PSCENC =      2652.81237852
  Ewald energy   TEWEN  =    -41811.76711523
  -Hartree energ DENC   =    -25799.25289694
  -exchange      EXHF   =         0.00000000
  -V(xc)+E(xc)   XCENC  =      3606.09051849
  PAW double counting   =     55594.23204139   -59034.67079123
  entropy T*S    EENTRO =        -0.00000000
  eigenvalues    EBANDS =    -10275.29636520
  atomic energy  EATOM  =     73862.19814772
  Solvation  Ediel_sol  =         0.00000000
  ---------------------------------------------------
  free energy    TOTEN  =     -1205.65408247 eV

  energy without entropy =    -1205.65408247  energy(sigma->0) =    -1205.65408247


--------------------------------------------------------------------------------------------------------




--------------------------------------- Iteration      1(   6)  ---------------------------------------


    EDDIAG:  cpu time    3.7357: real time    3.7387
  RMM-DIIS:  cpu time    6.5509: real time    6.5916
    ORTHCH:  cpu time    1.1595: real time    1.1617
       DOS:  cpu time    0.0014: real time    0.0014
    --------------------------------------------
      LOOP:  cpu time   11.4475: real time   11.4934

 eigenvalue-minimisations  :  7168
 total energy-change (2. order) :-0.2164914E+02  (-0.1154509E+03)
 number of electron     672.0000000 magnetization      48.0000000
 augmentation part      672.0000000 magnetization      48.0000000

 Free energy of the ion-electron system (eV)
  ---------------------------------------------------
  alpha Z        PSCENC =      2652.81237852
  Ewald energy   TEWEN  =    -41811.76711523
  -Hartree energ DENC   =    -25799.25289694
  -exchange      EXHF   =         0.00000000
  -V(xc)+E(xc)   XCENC  =      3606.09051849
  PAW double counting   =     55594.23204139   -59034.67079123
  entropy T*S    EENTRO =        -0.00000000
  eigenvalues    EBANDS =    -10296.94550805
  atomic energy  EATOM  =     73862.19814772
  Solvation  Ediel_sol  =         0.00000000
  ---------------------------------------------------
  free energy    TOTEN  =     -1227.30322532 eV

  energy without entropy =    -1227.30322532  energy(sigma->0) =    -1227.30322532


--------------------------------------------------------------------------------------------------------




--------------------------------------- Iteration      1(   7)  ---------------------------------------


    EDDIAG:  cpu time    3.7876: real time    3.7905
  RMM-DIIS:  cpu time    6.5942: real time    6.5973
    ORTHCH:  cpu time    1.1521: real time    1.1545
       DOS:  cpu time    0.0015: real time    0.0015
    --------------------------------------------
      LOOP:  cpu time   11.5354: real time   11.5437

 eigenvalue-minimisations  :  7168
 total energy-change (2. order) :-0.6699185E+01  (-0.7644595E+02)
 number of electron     672.0000000 magnetization      48.0000000
 augmentation part      672.0000000 magnetization      48.0000000

 Free energy of the ion-electron system (eV)
  ---------------------------------------------------
  alpha Z        PSCENC =      2652.81237852
  Ewald energy   TEWEN  =    -41811.76711523
  -Hartree energ DENC   =    -25799.25289694
  -exchange      EXHF   =         0.00000000
  -V(xc)+E(xc)   XCENC  =      3606.09051849
  PAW double counting   =     55594.23204139   -59034.67079123
  entropy T*S    EENTRO =        -0.00000000
  eigenvalues    EBANDS =    -10303.64469350
  atomic energy  EATOM  =     73862.19814772
  Solvation  Ediel_sol  =         0.00000000
  ---------------------------------------------------
  free energy    TOTEN  =     -1234.00241078 eV

  energy without entropy =    -1234.00241078  energy(sigma->0) =    -1234.00241078


--------------------------------------------------------------------------------------------------------




--------------------------------------- Iteration      1(   8)  ---------------------------------------


    EDDIAG:  cpu time    3.8189: real time    3.8219
  RMM-DIIS:  cpu time    6.6091: real time    6.6169
    ORTHCH:  cpu time    1.1569: real time    1.1592
       DOS:  cpu time    0.0010: real time    0.0010
    --------------------------------------------
      LOOP:  cpu time   11.5859: real time   11.5991

 eigenvalue-minimisations  :  7168
 total energy-change (2. order) : 0.4689798E+01  (-0.5309122E+02)
 number of electron     672.0000000 magnetization      48.0000000
 augmentation part      672.0000000 magnetization      48.0000000

 Free energy of the ion-electron system (eV)
  ---------------------------------------------------
  alpha Z        PSCENC =      2652.81237852
  Ewald energy   TEWEN  =    -41811.76711523
  -Hartree energ DENC   =    -25799.25289694
  -exchange      EXHF   =         0.00000000
  -V(xc)+E(xc)   XCENC  =      3606.09051849
  PAW double counting   =     55594.23204139   -59034.67079123
  entropy T*S    EENTRO =        -0.00000000
  eigenvalues    EBANDS =    -10298.95489569
  atomic energy  EATOM  =     73862.19814772
  Solvation  Ediel_sol  =         0.00000000
  ---------------------------------------------------
  free energy    TOTEN  =     -1229.31261296 eV

  energy without entropy =    -1229.31261296  energy(sigma->0) =    -1229.31261296


--------------------------------------------------------------------------------------------------------




--------------------------------------- Iteration      1(   9)  ---------------------------------------


    EDDIAG:  cpu time    3.7279: real time    3.7304
  RMM-DIIS:  cpu time   13.7656: real time   13.7891
    ORTHCH:  cpu time    1.1543: real time    1.1566
       DOS:  cpu time    0.0010: real time    0.0010
    --------------------------------------------
      LOOP:  cpu time   18.6488: real time   18.6770

 eigenvalue-minimisations  : 20198
 total energy-change (2. order) : 0.1825356E+02  (-0.2381968E+02)
 number of electron     672.0000000 magnetization      48.0000000
 augmentation part      672.0000000 magnetization      48.0000000

 Free energy of the ion-electron system (eV)
  ---------------------------------------------------
  alpha Z        PSCENC =      2652.81237852
  Ewald energy   TEWEN  =    -41811.76711523
  -Hartree energ DENC   =    -25799.25289694
  -exchange      EXHF   =         0.00000000
  -V(xc)+E(xc)   XCENC  =      3606.09051849
  PAW double counting   =     55594.23204139   -59034.67079123
  entropy T*S    EENTRO =        -0.00000000
  eigenvalues    EBANDS =    -10280.70133753
  atomic energy  EATOM  =     73862.19814772
  Solvation  Ediel_sol  =         0.00000000
  ---------------------------------------------------
  free energy    TOTEN  =     -1211.05905481 eV

  energy without entropy =    -1211.05905481  energy(sigma->0) =    -1211.05905481


--------------------------------------------------------------------------------------------------------




--------------------------------------- Iteration      1(  10)  ---------------------------------------


    EDDIAG:  cpu time    3.7669: real time    3.7694
  RMM-DIIS:  cpu time   15.6576: real time   15.7276
    ORTHCH:  cpu time    1.1549: real time    1.1572
       DOS:  cpu time    0.0010: real time    0.0010
    --------------------------------------------
      LOOP:  cpu time   20.5803: real time   20.6553

 eigenvalue-minimisations  : 20156
 total energy-change (2. order) :-0.3069869E+01  (-0.1035377E+01)
 number of electron     672.0000000 magnetization      48.0000000
 augmentation part      672.0000000 magnetization      48.0000000

 Free energy of the ion-electron system (eV)
  ---------------------------------------------------
  alpha Z        PSCENC =      2652.81237852
  Ewald energy   TEWEN  =    -41811.76711523
  -Hartree energ DENC   =    -25799.25289694
  -exchange      EXHF   =         0.00000000
  -V(xc)+E(xc)   XCENC  =      3606.09051849
  PAW double counting   =     55594.23204139   -59034.67079123
  entropy T*S    EENTRO =        -0.00000001
  eigenvalues    EBANDS =    -10283.77120639
  atomic energy  EATOM  =     73862.19814772
  Solvation  Ediel_sol  =         0.00000000
  ---------------------------------------------------
  free energy    TOTEN  =     -1214.12892367 eV

  energy without entropy =    -1214.12892366  energy(sigma->0) =    -1214.12892367


--------------------------------------------------------------------------------------------------------




--------------------------------------- Iteration      1(  11)  ---------------------------------------


    EDDIAG:  cpu time    3.7782: real time    3.7816
  RMM-DIIS:  cpu time   15.2739: real time   15.2802
    ORTHCH:  cpu time    1.1537: real time    1.1562
       DOS:  cpu time    0.0011: real time    0.0011
    --------------------------------------------
      LOOP:  cpu time   20.2069: real time   20.2191

 eigenvalue-minimisations  : 21705
 total energy-change (2. order) : 0.1050842E+00  (-0.9783159E-01)
 number of electron     672.0000000 magnetization      48.0000000
 augmentation part      672.0000000 magnetization      48.0000000

 Free energy of the ion-electron system (eV)
  ---------------------------------------------------
  alpha Z        PSCENC =      2652.81237852
  Ewald energy   TEWEN  =    -41811.76711523
  -Hartree energ DENC   =    -25799.25289694
  -exchange      EXHF   =         0.00000000
  -V(xc)+E(xc)   XCENC  =      3606.09051849
  PAW double counting   =     55594.23204139   -59034.67079123
  entropy T*S    EENTRO =        -0.00000001
  eigenvalues    EBANDS =    -10283.66612221
  atomic energy  EATOM  =     73862.19814772
  Solvation  Ediel_sol  =         0.00000000
  ---------------------------------------------------
  free energy    TOTEN  =     -1214.02383949 eV

  energy without entropy =    -1214.02383948  energy(sigma->0) =    -1214.02383949


--------------------------------------------------------------------------------------------------------




--------------------------------------- Iteration      1(  12)  ---------------------------------------


    EDDIAG:  cpu time    3.7739: real time    3.7763
  RMM-DIIS:  cpu time   16.0460: real time   16.0723
    ORTHCH:  cpu time    1.1593: real time    1.1615
       DOS:  cpu time    0.0013: real time    0.0013
    CHARGE:  cpu time    1.3583: real time    1.3591
    MIXING:  cpu time    0.0029: real time    0.0031
    --------------------------------------------
      LOOP:  cpu time   22.3417: real time   22.3736

 eigenvalue-minimisations  : 22853
 total energy-change (2. order) : 0.6940901E-02  (-0.6898905E-02)
 number of electron     671.9999998 magnetization      48.0000020
 augmentation part      239.0690513 magnetization      29.0319836

 Broyden mixing:
  rms(total) = 0.12584E+02    rms(broyden)= 0.12575E+02
  rms(prec ) = 0.14434E+02
  weight for this iteration     100.00

 Free energy of the ion-electron system (eV)
  ---------------------------------------------------
  alpha Z        PSCENC =      2652.81237852
  Ewald energy   TEWEN  =    -41811.76711523
  -Hartree energ DENC   =    -25799.25289694
  -exchange      EXHF   =         0.00000000
  -V(xc)+E(xc)   XCENC  =      3606.09051849
  PAW double counting   =     55594.23204139   -59034.67079123
  entropy T*S    EENTRO =        -0.00000001
  eigenvalues    EBANDS =    -10283.65918131
  atomic energy  EATOM  =     73862.19814772
  Solvation  Ediel_sol  =         0.00000000
  ---------------------------------------------------
  free energy    TOTEN  =     -1214.01689859 eV

  energy without entropy =    -1214.01689858  energy(sigma->0) =    -1214.01689859


--------------------------------------------------------------------------------------------------------




--------------------------------------- Iteration      1(  13)  ---------------------------------------


    POTLOK:  cpu time    0.1958: real time    0.1962
    SETDIJ:  cpu time    3.3027: real time    3.3033
    EDDIAG:  cpu time    3.7522: real time    3.7554
  RMM-DIIS:  cpu time   12.9853: real time   13.0279
    ORTHCH:  cpu time    1.1717: real time    1.1743
       DOS:  cpu time    0.0014: real time    0.0014
    CHARGE:  cpu time    1.3468: real time    1.3480
    MIXING:  cpu time    0.0007: real time    0.0008
    --------------------------------------------
      LOOP:  cpu time   22.7567: real time   22.8073

 eigenvalue-minimisations  : 17326
 total energy-change (2. order) : 0.2250964E+03  (-0.1381722E+03)
 number of electron     672.0000039 magnetization      48.0000024
 augmentation part      268.9466848 magnetization      26.5861841

 Broyden mixing:
  rms(total) = 0.13925E+02    rms(broyden)= 0.13922E+02
  rms(prec ) = 0.15637E+02
  weight for this iteration     100.00

 eigenvalues of (default mixing * dielectric matrix)
  average eigenvalue GAMMA=   0.3182
  0.3182

 Free energy of the ion-electron system (eV)
  ---------------------------------------------------
  alpha Z        PSCENC =      2652.81237852
  Ewald energy   TEWEN  =    -41811.76711523
  -Hartree energ DENC   =    -25128.50198261
  -exchange      EXHF   =         0.00000000
  -V(xc)+E(xc)   XCENC  =      3696.31442658
  PAW double counting   =     59908.79836687   -63334.00367364
  entropy T*S    EENTRO =        -0.09378832
  eigenvalues    EBANDS =    -10834.67723425
  atomic energy  EATOM  =     73862.19814772
  Solvation  Ediel_sol  =         0.00000000
  ---------------------------------------------------
  free energy    TOTEN  =      -988.92047436 eV

  energy without entropy =     -988.82668604  energy(sigma->0) =     -988.87358020


--------------------------------------------------------------------------------------------------------




--------------------------------------- Iteration      1(  14)  ---------------------------------------


    POTLOK:  cpu time    0.2082: real time    0.2087
    SETDIJ:  cpu time    3.2962: real time    3.2970
    EDDIAG:  cpu time    3.8428: real time    3.8451
  RMM-DIIS:  cpu time   13.6252: real time   13.6419
    ORTHCH:  cpu time    1.1729: real time    1.1755
       DOS:  cpu time    0.0010: real time    0.0010
    CHARGE:  cpu time    1.3471: real time    1.3474
    MIXING:  cpu time    0.0007: real time    0.0007
    --------------------------------------------
      LOOP:  cpu time   23.4941: real time   23.5174

 eigenvalue-minimisations  : 17723
 total energy-change (2. order) : 0.7430512E+02  (-0.1869656E+02)
 number of electron     672.0000014 magnetization      48.0000039
 augmentation part      246.6553675 magnetization      32.2136245

 Broyden mixing:
  rms(total) = 0.52616E+01    rms(broyden)= 0.52572E+01
  rms(prec ) = 0.56720E+01
  weight for this iteration     100.00

 eigenvalues of (default mixing * dielectric matrix)
  average eigenvalue GAMMA=   0.7311
  1.1025  0.3597

 Free energy of the ion-electron system (eV)
  ---------------------------------------------------
  alpha Z        PSCENC =      2652.81237852
  Ewald energy   TEWEN  =    -41811.76711523
  -Hartree energ DENC   =    -25739.52373999
  -exchange      EXHF   =         0.00000000
  -V(xc)+E(xc)   XCENC  =      3674.18096569
  PAW double counting   =     63337.05822290   -66819.52784950
  entropy T*S    EENTRO =        -0.00000000
  eigenvalues    EBANDS =    -10070.04636057
  atomic energy  EATOM  =     73862.19814772
  Solvation  Ediel_sol  =         0.00000000
  ---------------------------------------------------
  free energy    TOTEN  =      -914.61535045 eV

  energy without entropy =     -914.61535045  energy(sigma->0) =     -914.61535045


--------------------------------------------------------------------------------------------------------




--------------------------------------- Iteration      1(  15)  ---------------------------------------


    POTLOK:  cpu time    0.1939: real time    0.1951
    SETDIJ:  cpu time    3.3051: real time    3.3060
    EDDIAG:  cpu time    3.7581: real time    3.7620
  RMM-DIIS:  cpu time   13.6508: real time   13.6568
    ORTHCH:  cpu time    1.1624: real time    1.1649
       DOS:  cpu time    0.0012: real time    0.0012
    CHARGE:  cpu time    1.3453: real time    1.3458
    MIXING:  cpu time    0.0007: real time    0.0007
    --------------------------------------------
      LOOP:  cpu time   23.4175: real time   23.4324

 eigenvalue-minimisations  : 18422
 total energy-change (2. order) : 0.1351525E+02  (-0.2009899E+01)
 number of electron     672.0000018 magnetization      48.0000051
 augmentation part      249.6873542 magnetization      33.8099137

 Broyden mixing:
  rms(total) = 0.21287E+01    rms(broyden)= 0.21284E+01
  rms(prec ) = 0.22087E+01
  weight for this iteration     100.00

 eigenvalues of (default mixing * dielectric matrix)
  average eigenvalue GAMMA=   0.9596
  0.3852  0.7592  1.7342

 Free energy of the ion-electron system (eV)
  ---------------------------------------------------
  alpha Z        PSCENC =      2652.81237852
  Ewald energy   TEWEN  =    -41811.76711523
  -Hartree energ DENC   =    -25660.10345539
  -exchange      EXHF   =         0.00000000
  -V(xc)+E(xc)   XCENC  =      3706.76091913
  PAW double counting   =     67456.80725386   -70979.96048917
  entropy T*S    EENTRO =        -0.00000000
  eigenvalues    EBANDS =    -10127.84774062
  atomic energy  EATOM  =     73862.19814772
  Solvation  Ediel_sol  =         0.00000000
  ---------------------------------------------------
  free energy    TOTEN  =      -901.10010117 eV

  energy without entropy =     -901.10010117  energy(sigma->0) =     -901.10010117


--------------------------------------------------------------------------------------------------------




--------------------------------------- Iteration      1(  16)  ---------------------------------------


    POTLOK:  cpu time    0.2076: real time    0.2076
    SETDIJ:  cpu time    3.3397: real time    3.3405
    EDDIAG:  cpu time    3.8044: real time    3.8182
  RMM-DIIS:  cpu time   13.1328: real time   13.1401
    ORTHCH:  cpu time    1.1570: real time    1.1593
       DOS:  cpu time    0.0010: real time    0.0010
    CHARGE:  cpu time    1.3513: real time    1.3519
    MIXING:  cpu time    0.0012: real time    0.0012
    --------------------------------------------
      LOOP:  cpu time   22.9949: real time   23.0197

 eigenvalue-minimisations  : 17406
 total energy-change (2. order) :-0.1573457E+01  (-0.7051140E+00)
 number of electron     672.0000020 magnetization      48.0000055
 augmentation part      251.2146875 magnetization      33.8986884

 Broyden mixing:
  rms(total) = 0.14014E+01    rms(broyden)= 0.14008E+01
  rms(prec ) = 0.14933E+01
  weight for this iteration     100.00

 eigenvalues of (default mixing * dielectric matrix)
  average eigenvalue GAMMA=   0.9743
  2.0732  0.9026  0.3925  0.5291

 Free energy of the ion-electron system (eV)
  ---------------------------------------------------
  alpha Z        PSCENC =      2652.81237852
  Ewald energy   TEWEN  =    -41811.76711523
  -Hartree energ DENC   =    -25608.72001513
  -exchange      EXHF   =         0.00000000
  -V(xc)+E(xc)   XCENC  =      3708.01162179
  PAW double counting   =     70442.93624789   -73996.36001353
  entropy T*S    EENTRO =        -0.00000000
  eigenvalues    EBANDS =    -10151.78481071
  atomic energy  EATOM  =     73862.19814772
  Solvation  Ediel_sol  =         0.00000000
  ---------------------------------------------------
  free energy    TOTEN  =      -902.67355867 eV

  energy without entropy =     -902.67355867  energy(sigma->0) =     -902.67355867


--------------------------------------------------------------------------------------------------------




--------------------------------------- Iteration      1(  17)  ---------------------------------------


    POTLOK:  cpu time    0.2118: real time    0.2122
    SETDIJ:  cpu time    3.3438: real time    3.3457
    EDDIAG:  cpu time    3.7374: real time    3.7398
  RMM-DIIS:  cpu time   13.7429: real time   13.7652
    ORTHCH:  cpu time    1.1557: real time    1.1579
       DOS:  cpu time    0.0010: real time    0.0010
    CHARGE:  cpu time    1.3539: real time    1.3545
    MIXING:  cpu time    0.0014: real time    0.0014
    --------------------------------------------
      LOOP:  cpu time   23.5480: real time   23.5777

 eigenvalue-minimisations  : 18601
 total energy-change (2. order) : 0.1904831E+00  (-0.6218191E-01)
 number of electron     672.0000020 magnetization      48.0000058
 augmentation part      251.0871016 magnetization      33.8916911

 Broyden mixing:
  rms(total) = 0.75415E+00    rms(broyden)= 0.75407E+00
  rms(prec ) = 0.84798E+00
  weight for this iteration     100.00

 eigenvalues of (default mixing * dielectric matrix)
  average eigenvalue GAMMA=   1.0045
  2.2390  1.1336  0.3829  0.7012  0.5657

 Free energy of the ion-electron system (eV)
  ---------------------------------------------------
  alpha Z        PSCENC =      2652.81237852
  Ewald energy   TEWEN  =    -41811.76711523
  -Hartree energ DENC   =    -25601.87885768
  -exchange      EXHF   =         0.00000000
  -V(xc)+E(xc)   XCENC  =      3704.97714757
  PAW double counting   =     71243.59884817   -74804.86475298
  entropy T*S    EENTRO =        -0.00000000
  eigenvalues    EBANDS =    -10147.55887172
  atomic energy  EATOM  =     73862.19814772
  Solvation  Ediel_sol  =         0.00000000
  ---------------------------------------------------
  free energy    TOTEN  =      -902.48307561 eV

  energy without entropy =     -902.48307561  energy(sigma->0) =     -902.48307561


--------------------------------------------------------------------------------------------------------




--------------------------------------- Iteration      1(  18)  ---------------------------------------


    POTLOK:  cpu time    0.1986: real time    0.1987
    SETDIJ:  cpu time    3.3207: real time    3.3215
    EDDIAG:  cpu time    3.7744: real time    3.7767
  RMM-DIIS:  cpu time   13.2306: real time   13.2478
    ORTHCH:  cpu time    1.2076: real time    1.2098
       DOS:  cpu time    0.0010: real time    0.0010
    CHARGE:  cpu time    1.3499: real time    1.3505
    MIXING:  cpu time    0.0009: real time    0.0009
    --------------------------------------------
      LOOP:  cpu time   23.0836: real time   23.1069

 eigenvalue-minimisations  : 17589
 total energy-change (2. order) : 0.3853214E+00  (-0.7156174E-01)
 number of electron     672.0000019 magnetization      48.0000059
 augmentation part      250.5937959 magnetization      33.8542601

 Broyden mixing:
  rms(total) = 0.26488E+00    rms(broyden)= 0.26457E+00
  rms(prec ) = 0.27766E+00
  weight for this iteration     100.00

 eigenvalues of (default mixing * dielectric matrix)
  average eigenvalue GAMMA=   1.0233
  2.4756  1.3570  0.8520  0.3844  0.5850  0.4855

 Free energy of the ion-electron system (eV)
[...]
   4      -0.889    -0.755     1.645     0.093     0.497    -0.264
   5      -0.700    -1.022     1.723    -0.050    -0.060    -0.538
   6      -0.562    -0.655     1.217     0.029     0.021    -0.088
   7      -0.866    -0.970     1.836    -0.064    -0.020     0.050
   8      -0.753    -0.608     1.361    -0.144    -0.386    -0.148
   9      -0.799    -0.794     1.593    -0.071     0.396     0.188
  10      -0.846    -0.699     1.545     0.062    -0.464     0.293
  11      -0.852    -0.607     1.458     0.067    -0.427     0.233
  12      -0.871    -0.672     1.543     0.138     0.535    -0.257
  13      -0.793    -0.737     1.529    -0.083    -0.479    -0.170
  14      -0.863    -0.882     1.745    -0.098    -0.185    -0.166
  15      -0.971    -0.965     1.936    -0.039     0.015     0.017
  16      -0.953    -0.717     1.670    -0.113     0.434     0.211
  17       1.611     1.350    -2.960    -0.009     0.142    -0.005
  18       1.519     1.354    -2.873    -0.024    -0.072     0.085
  19       1.223     1.672    -2.895    -0.096    -0.113     0.035
  20       1.217     1.586    -2.803    -0.183     0.134    -0.054
  21       1.644     1.266    -2.910     0.145    -0.058    -0.152
  22       1.489     1.423    -2.912    -0.017    -0.075     0.176
  23       1.436     1.382    -2.818    -0.012    -0.113    -0.012
  24       1.441     1.514    -2.954    -0.030     0.128     0.006
  25      -0.230     0.038     0.192    -0.342    -0.876    -0.318
  26      -0.759     0.563     0.196    -0.844    -1.049    -0.146
  27      -0.468     0.697    -0.229    -1.494     0.415    -1.792
  28       0.151    -2.265     2.114    -1.082    -1.132     0.232
  29       0.962    -0.960    -0.002     0.594    -0.164    -0.705
  30       0.482     0.686    -1.168     0.655     0.040    -0.695
  31       2.265    -3.301     1.036     0.224    -0.529     0.451
  32       0.339    -0.248    -0.092     1.055     0.674     0.396
  33      -0.566     0.178     0.389    -0.464    -0.081     0.085
  34      -2.072     0.766     1.305     0.539    -1.160     0.150
  35      -0.323     0.237     0.086    -0.218     1.649     0.927
  36       0.925     0.307    -1.232     0.865     0.211     1.361
  37      -0.744     1.477    -0.734     1.210    -0.781    -0.825
  38       2.214    -3.338     1.124     0.298     1.334    -0.031
  39       0.650    -1.453     0.803     0.921    -0.609     1.262
  40       0.120     0.059    -0.180    -0.348     0.881    -0.095
  41      -3.439     3.394     0.045    -6.161     2.408    -3.873
  42      -3.188     3.767    -0.579     4.853     2.692     3.127
  43       4.157    -6.313     2.156    -0.851    -4.394     0.677
  44      -2.223     0.339     1.884     4.947    -1.289    -5.417
  45      -1.228     1.174     0.054    -4.500    -1.011     3.998
  46       6.401    -6.792     0.390    -2.918     4.772    -0.585
  47      -3.105     3.454    -0.349    -4.774     1.908    -4.354
  48       4.442    -5.956     1.514    -0.880    -5.469     0.614
  49      -2.537     1.411     1.126     5.038     2.171     4.213
  50       4.342    -7.846     3.504     0.271     6.455    -0.736
  51      -4.827     5.541    -0.714    -3.674    -2.587     2.983
  52      -4.150     4.468    -0.318     4.244     0.425    -4.545
  53      -5.669     5.350     0.318    -4.607     2.802    -2.711
  54      -3.269     2.484     0.785     5.010     3.122     3.571
  55       4.368    -5.146     0.778    -0.724    -4.312    -0.337
  56      -3.009     1.363     1.646     4.686    -1.341    -4.234
  57      -2.129     0.478     1.651    -5.651    -4.549     4.439
  58       6.158    -6.284     0.126     0.859     5.210    -1.043
  59      -1.487     1.282     0.205    -4.478     0.359    -5.752
  60       6.184    -6.007    -0.177    -0.091    -3.896     0.300
  61      -1.045     1.843    -0.799     6.249     1.200     4.272
  62       5.016    -5.176     0.160    -0.324     3.930    -2.198
  63      -2.355     3.223    -0.868    -5.009    -2.585     2.212
  64      -2.612     2.332     0.279     5.506    -2.522    -3.685
  65      -3.750     2.079     1.671    -3.984     2.235    -4.945
  66      -4.099     3.673     0.426     6.809     2.592     3.055
  67       3.918    -6.208     2.291    -0.920    -5.579    -0.790
  68      -4.508     3.361     1.147     2.900    -1.517    -3.936
  69      -2.429     2.134     0.295    -4.925    -1.099     4.875
  70       6.301    -7.650     1.349     1.074     4.194     0.682
  71      -4.483     3.531     0.952    -4.775     2.571    -3.376
  72       6.162    -6.143    -0.019    -0.169    -3.930     0.507
  73      -1.927     2.955    -1.028     4.992     2.549     3.787
  74       5.827    -6.201     0.374    -1.149     5.084    -0.539
  75      -3.337     0.570     2.766    -4.384    -3.153     4.173
  76      -3.451     4.463    -1.012     4.104    -3.043    -2.938
  77      -4.691     2.927     1.764    -3.639     0.868    -4.304
  78      -0.527    -0.478     1.005     5.694     1.871     3.262
  79       4.636    -6.383     1.747     0.596    -5.615    -0.905
  80      -1.772     2.947    -1.175     5.221    -2.463    -2.492
  81      -2.920     0.181     2.740    -4.884    -0.467     6.956
  82       5.077    -6.274     1.197    -0.104     4.243     0.179
  83      -3.322     2.084     1.238    -4.913     1.299    -5.183
  84       6.392    -7.110     0.718     0.623    -4.631    -0.641
  85      -0.956     2.844    -1.888     5.320     2.992     2.283
  86       3.014    -3.705     0.690     0.300     5.322     2.200
  87      -2.760     1.686     1.074    -5.942    -3.373     4.377
  88      -4.292     4.772    -0.480     4.706    -2.459    -3.261
 ---------------------------------------------------------------------


 Total hyperfine coupling parameters after diagonalization (MHz)
 (convention: |A_zz| > |A_xx| > |A_yy|)
 ----------------------------------------------------------------------
  ion      A_xx      A_yy      A_zz     asymmetry (A_yy - A_xx)/ A_zz 
 ----------------------------------------------------------------------
   1       0.922     0.730     3.478      -0.055
   2       2.322     1.952     4.687      -0.079
   3       1.443     1.165     3.316      -0.084
   4       2.242     1.896     4.712      -0.073
   5       2.692     2.253     5.210      -0.084
   6       0.825     0.711     2.600      -0.044
   7       0.389     0.224     3.062      -0.054
   8       1.888     1.494     3.846      -0.102
   9       2.525     2.317     4.925      -0.042
  10       1.638     1.334     3.982      -0.076
  11       1.717     1.350     3.868      -0.095
  12       1.529     1.055     3.808      -0.125
  13       2.006     1.737     4.322      -0.062
  14       1.712     1.494     4.254      -0.051
  15      -0.090    -0.012     2.854       0.027
  16       2.549     2.138     4.975      -0.083
  17      15.959    11.645    16.225      -0.266
  18      14.369    10.142    14.543      -0.291
  19      14.000     9.896    14.486      -0.283
  20      13.256     9.303    13.774      -0.287
  21      14.700    10.563    15.175      -0.273
  22      13.859     9.514    13.931      -0.312
  23      13.076     8.875    13.137      -0.320
  24      14.131     9.740    14.222      -0.309
  25      97.641    96.308    98.301      -0.014
  26     101.345    99.092   101.976      -0.022
  27      99.622    98.434   103.143      -0.012
  28      96.164    93.514    98.924      -0.027
  29      93.483    91.885    94.551      -0.017
  30      95.547    94.034    96.820      -0.016
  31      96.459    92.199    98.022      -0.043
  32      96.216    95.609    98.188      -0.006
  33      94.730    93.657    94.954      -0.011
  34     101.062    97.674   101.867      -0.033
  35      96.473    94.131    97.951      -0.024
  36      94.990    92.769    96.697      -0.023
  37      92.563    91.817    95.762      -0.008
  38      96.526    92.931    99.406      -0.036
  39      98.786    95.412    99.258      -0.034
  40      93.923    93.008    94.938      -0.010
  41       6.975     2.110    18.454      -0.264
  42       4.226     0.523    14.559      -0.254
  43       5.690     0.643    14.787      -0.341
  44       6.839     1.465    16.710      -0.322
  45       7.088     3.200    15.380      -0.253
  46       6.275     0.934    17.901      -0.298
  47       5.228     2.432    16.591      -0.169
  48       5.027     1.675    16.428      -0.204
  49       7.233     3.207    17.300      -0.233
  50       6.744     1.245    19.589      -0.281
  51       6.800     2.005    16.723      -0.287
  52       3.642    -1.667    13.290      -0.399
  53       8.427     1.486    17.780      -0.390
  54       4.219    -0.144    14.477      -0.301
  55       4.412     1.060    13.622      -0.246
  56       4.916     0.032    13.770      -0.355
  57       5.246     1.591    18.191      -0.201
  58       5.546     1.219    17.130      -0.253
  59       4.170    -1.436    13.287      -0.422
  60       4.723     0.711    14.771      -0.272
  61       5.030     0.347    15.629      -0.300
  62       3.868    -0.936    12.502      -0.384
  63       5.650     1.847    14.892      -0.255
  64       2.366    -1.628    12.911      -0.309
  65       2.147    -0.980    13.249      -0.236
  66       9.859     2.992    20.482      -0.335
  67       5.663     1.273    16.584      -0.265
  68      -3.358     0.351     9.345       0.397
  69       7.270     3.024    17.394      -0.244
  70       8.458     1.755    18.297      -0.366
  71       6.674     1.161    16.158      -0.341
  72       7.505     3.211    17.480      -0.246
  73       1.290    -0.517    12.839      -0.141
  74       4.472     0.825    16.111      -0.226
  75       5.893     1.806    16.333      -0.250
  76       8.165     4.232    18.110      -0.217
  77       5.276     0.378    14.232      -0.344
  78       8.679     3.286    16.945      -0.318
  79       4.217     0.308    15.848      -0.247
  80       6.405     3.446    16.408      -0.180
  81       6.643    -0.226    17.563      -0.391
  82       6.313     1.549    15.635      -0.305
  83       4.558    -0.097    15.161      -0.307
  84       6.517     1.212    17.412      -0.305
  85       4.556     1.950    15.134      -0.172
  86       4.628     1.590    14.413      -0.211
  87       7.017     2.674    19.016      -0.228
  88       4.521     0.061    15.086      -0.296
 ---------------------------------------------------------------------



--------------------------------------------------------------------------------------------------------


 stress matrix after NEB project (eV)
    -47.37373      3.62379     -3.80840
      3.62281    -40.75230     -3.23861
     -3.79491     -3.21303    -59.29746
  FORCES: max atom, RMS     2.894606    1.130791
  FORCE total and by dimension   10.607759    2.839005
  Stress total and by dimension   86.586276   59.297462
     LOOP+:  cpu time  566.2239: real time  567.2090
    4ORBIT:  cpu time    0.0000: real time    0.0000
 


 total charge     
 
# of ion       s       p       d       tot
------------------------------------------
    1        0.050   5.994   0.000   6.044
    2        0.053   5.995   0.000   6.049
    3        0.054   5.998   0.000   6.052
    4        0.053   5.995   0.000   6.047
    5        0.056   5.999   0.000   6.055
    6        0.049   5.992   0.000   6.041
    7        0.050   5.994   0.000   6.044
    8        0.044   5.986   0.000   6.031
    9        0.051   5.993   0.000   6.044
   10        0.052   5.994   0.000   6.046
   11        0.059   6.003   0.000   6.062
   12        0.051   5.994   0.000   6.044
   13        0.049   5.991   0.000   6.040
   14        0.053   5.997   0.000   6.050
   15        0.049   5.993   0.000   6.041
   16        0.054   5.998   0.000   6.053
   17        0.144   6.119   0.077   6.341
   18        0.145   6.122   0.079   6.346
   19        0.148   6.127   0.083   6.358
   20        0.145   6.120   0.077   6.343
   21        0.147   6.125   0.081   6.353
   22        0.150   6.130   0.085   6.365
   23        0.149   6.127   0.083   6.359
   24        0.153   6.135   0.089   6.377
   25        0.378   6.458   4.839  11.675
   26        0.372   6.450   4.826  11.648
   27        0.374   6.453   4.836  11.663
   28        0.370   6.443   4.808  11.621
   29        0.394   6.489   4.875  11.758
   30        0.358   6.418   4.790  11.566
   31        0.377   6.451   4.835  11.663
   32        0.376   6.458   4.839  11.673
   33        0.386   6.477   4.853  11.715
   34        0.374   6.452   4.825  11.651
   35        0.370   6.442   4.822  11.634
   36        0.378   6.455   4.842  11.675
   37        0.387   6.479   4.854  11.720
   38        0.371   6.443   4.815  11.629
   39        0.371   6.446   4.820  11.637
   40        0.392   6.492   4.868  11.752
   41        1.603   3.519   0.000   5.122
   42        1.601   3.518   0.000   5.119
   43        1.599   3.529   0.000   5.128
   44        1.600   3.501   0.000   5.102
   45        1.595   3.492   0.000   5.087
   46        1.601   3.513   0.000   5.113
   47        1.599   3.513   0.000   5.112
   48        1.597   3.500   0.000   5.097
   49        1.600   3.507   0.000   5.107
   50        1.603   3.498   0.000   5.101
   51        1.599   3.506   0.000   5.105
   52        1.597   3.489   0.000   5.085
   53        1.599   3.514   0.000   5.113
   54        1.598   3.487   0.000   5.085
   55        1.596   3.492   0.000   5.088
   56        1.598   3.515   0.000   5.113
   57        1.603   3.504   0.000   5.107
   58        1.598   3.487   0.000   5.085
   59        1.597   3.480   0.000   5.077
   60        1.600   3.496   0.000   5.096
   61        1.600   3.502   0.000   5.101
   62        1.596   3.507   0.000   5.103
   63        1.599   3.517   0.000   5.116
   64        1.600   3.499   0.000   5.098
   65        1.597   3.500   0.000   5.097
   66        1.604   3.524   0.000   5.128
   67        1.600   3.514   0.000   5.114
   68        1.595   3.458   0.000   5.053
   69        1.600   3.516   0.000   5.116
   70        1.599   3.505   0.000   5.104
   71        1.599   3.498   0.000   5.097
   72        1.599   3.517   0.000   5.116
   73        1.598   3.511   0.000   5.109
   74        1.600   3.513   0.000   5.113
   75        1.599   3.511   0.000   5.110
   76        1.601   3.529   0.000   5.130
   77        1.594   3.498   0.000   5.092
   78        1.599   3.516   0.000   5.115
   79        1.598   3.507   0.000   5.105
   80        1.599   3.503   0.000   5.102
   81        1.602   3.499   0.000   5.101
   82        1.598   3.539   0.000   5.138
   83        1.599   3.501   0.000   5.100
   84        1.603   3.522   0.000   5.125
   85        1.599   3.486   0.000   5.085
   86        1.595   3.491   0.000   5.086
   87        1.604   3.522   0.000   5.126
   88        1.598   3.489   0.000   5.088
--------------------------------------------------
tot         84.791 416.479  78.003 579.273
 


 magnetization (x)
 
# of ion       s       p       d       tot
------------------------------------------
    1        0.001   0.001   0.000   0.002
    2        0.002   0.000   0.000   0.002
    3        0.001   0.001   0.000   0.002
    4        0.002   0.000   0.000   0.002
    5        0.002   0.000   0.000   0.003
    6        0.001   0.000   0.000   0.001
    7        0.001   0.000   0.000   0.001
    8        0.002   0.000   0.000   0.002
    9        0.002   0.000   0.000   0.003
   10        0.002  -0.000   0.000   0.002
   11        0.002   0.000   0.000   0.002
   12        0.002  -0.000   0.000   0.001
   13        0.002   0.000   0.000   0.002
   14        0.002   0.001   0.000   0.002
   15        0.001   0.000   0.000   0.001
   16        0.002   0.000   0.000   0.003
   17        0.008   0.002   0.001   0.012
   18        0.007   0.002   0.001   0.011
   19        0.007   0.002   0.001   0.010
   20        0.007   0.002   0.001   0.010
   21        0.008   0.002   0.001   0.011
   22        0.007   0.002   0.001   0.010
   23        0.007   0.002   0.001   0.010
   24        0.007   0.002   0.001   0.011
   25        0.016   0.030   2.753   2.798
   26        0.017   0.031   2.759   2.807
   27        0.016   0.031   2.759   2.805
   28        0.015   0.030   2.775   2.820
   29        0.015   0.030   2.707   2.752
   30        0.015   0.029   2.786   2.829
   31        0.015   0.030   2.739   2.783
   32        0.016   0.029   2.738   2.782
   33        0.015   0.030   2.733   2.778
   34        0.016   0.031   2.767   2.815
   35        0.015   0.030   2.770   2.815
   36        0.015   0.029   2.734   2.777
   37        0.014   0.030   2.727   2.771
   38        0.015   0.030   2.772   2.817
   39        0.016   0.030   2.769   2.815
   40        0.015   0.031   2.716   2.761
   41        0.002   0.043   0.000   0.046
   42        0.002   0.025   0.000   0.027
   43        0.002   0.039   0.000   0.041
   44        0.002   0.043   0.000   0.045
   45        0.002   0.037   0.000   0.040
   46        0.002   0.042   0.000   0.044
   47        0.002   0.036   0.000   0.039
   48        0.002   0.034   0.000   0.036
   49        0.002   0.048   0.000   0.050
   50        0.002   0.052   0.000   0.055
   51        0.002   0.036   0.000   0.039
   52        0.001   0.014   0.000   0.016
   53        0.002   0.049   0.000   0.051
   54        0.002   0.020   0.000   0.022
   55        0.002   0.023   0.000   0.025
   56        0.002   0.031   0.000   0.033
   57        0.002   0.039   0.000   0.041
   58        0.002   0.032   0.000   0.034
   59        0.002   0.011   0.000   0.013
   60        0.002   0.024   0.000   0.026
   61        0.002   0.032   0.000   0.034
   62        0.002   0.013   0.000   0.015
   63        0.002   0.035   0.000   0.037
   64        0.001   0.011   0.000   0.012
   65        0.001   0.015   0.000   0.017
   66        0.003   0.072   0.000   0.075
   67        0.002   0.035   0.000   0.038
   68        0.001  -0.017   0.000  -0.016
   69        0.002   0.047   0.000   0.050
   70        0.002   0.056   0.000   0.058
   71        0.002   0.039   0.000   0.041
   72        0.002   0.047   0.000   0.049
   73        0.001   0.010   0.000   0.011
   74        0.002   0.039   0.000   0.041
   75        0.002   0.041   0.000   0.043
   76        0.002   0.050   0.000   0.053
   77        0.002   0.027   0.000   0.029
   78        0.002   0.052   0.000   0.055
   79        0.002   0.034   0.000   0.036
   80        0.002   0.041   0.000   0.043
   81        0.002   0.043   0.000   0.045
   82        0.002   0.037   0.000   0.039
   83        0.002   0.027   0.000   0.028
   84        0.002   0.044   0.000   0.046
   85        0.002   0.025   0.000   0.027
   86        0.002   0.023   0.000   0.025
   87        0.002   0.050   0.000   0.052
   88        0.002   0.024   0.000   0.026
--------------------------------------------------
tot          0.424   2.136  44.013  46.572
 

 total amount of memory used by VASP MPI-rank0    88175. kBytes
=======================================================================

   base      :      30000. kBytes
   nonlr-proj:      13666. kBytes
   fftplans  :        992. kBytes
   grid      :      21513. kBytes
   one-center:       2737. kBytes
   wavefun   :      19267. kBytes
 
  
  
 General timing and accounting informations for this job:
 ========================================================
  
                  Total CPU time used (sec):      585.005
                            User time (sec):      579.600
                          System time (sec):        5.404
                         Elapsed time (sec):      588.547
  
                   Maximum memory used (kb):      182148.
                   Average memory used (kb):           0.
  
                          Minor page faults:       298102
                          Major page faults:            0
                 Voluntary context switches:         3619
