 vasp.5.4.4.18Apr17-6-g9f103f2a35 (build Dec 02 2020 12:53:39) complex          
  
 executed on             LinuxIFC date 2021.08.03  10:54:19
 running on  112 total cores
 distrk:  each k-point on  112 cores,    1 groups
 distr:  one band on NCORES_PER_BAND=   1 cores,  112 groups


--------------------------------------------------------------------------------------------------------


 INCAR:
 POTCAR:    PAW_PBE Na_pv 19Sep2006               
 POTCAR:    PAW_PBE Mg_pv 13Apr2007               
 POTCAR:    PAW_PBE Mn_pv 02Aug2007               
 POTCAR:    PAW_PBE O 08Apr2002                   

 ----------------------------------------------------------------------------- 
|                                                                             |
|           W    W    AA    RRRRR   N    N  II  N    N   GGGG   !!!           |
|           W    W   A  A   R    R  NN   N  II  NN   N  G    G  !!!           |
|           W    W  A    A  R    R  N N  N  II  N N  N  G       !!!           |
|           W WW W  AAAAAA  RRRRR   N  N N  II  N  N N  G  GGG   !            |
|           WW  WW  A    A  R   R   N   NN  II  N   NN  G    G                |
|           W    W  A    A  R    R  N    N  II  N    N   GGGG   !!!           |
|                                                                             |
|      For optimal performance we recommend to set                            |
|        NCORE= 4 - approx SQRT( number of cores)                             |
|      NCORE specifies how many cores store one orbital (NPAR=cpu/NCORE).     |
|      This setting can  greatly improve the performance of VASP for DFT.     |
|      The default,   NCORE=1            might be grossly inefficient         |
|      on modern multi-core architectures or massively parallel machines.     |
|      Do your own testing !!!!                                               |
|      Unfortunately you need to use the default for GW and RPA calculations. |
|      (for HF NCORE is supported but not extensively tested yet)             |
|                                                                             |
 ----------------------------------------------------------------------------- 

 POTCAR:    PAW_PBE Na_pv 19Sep2006               
   VRHFIN =Na: p6s1                                                             
   LEXCH  = PE                                                                  
   EATOM  =   766.0439 eV,   56.3026 Ry                                         
                                                                                
   TITEL  = PAW_PBE Na_pv 19Sep2006                                             
   LULTRA =        F    use ultrasoft PP ?                                      
   IUNSCR =        1    unscreen: 0-lin 1-nonlin 2-no                           
   RPACOR =    1.800    partial core radius                                     
   POMASS =   22.990; ZVAL   =    7.000    mass and valenz                      
   RCORE  =    2.200    outmost cutoff radius                                   
   RWIGS  =    2.200; RWIGS  =    1.164    wigner-seitz radius (au A)           
   ENMAX  =  259.561; ENMIN  =  194.671 eV                                      
   ICORE  =        2    local potential                                         
   LCOR   =        T    correct aug charges                                     
   LPAW   =        T    paw PP                                                  
   EAUG   =  368.056                                                            
   DEXC   =    0.000                                                            
   RMAX   =    2.245    core radius for proj-oper                               
   RAUG   =    1.300    factor for augmentation sphere                          
   RDEP   =    2.259    radius for radial grids                                 
   RDEPT  =    1.738    core radius for aug-charge                              
                                                                                
   Atomic configuration                                                         
    5 entries                                                                   
     n  l   j            E        occ.                                          
     1  0  0.50     -1033.6933   2.0000                                         
     2  0  0.50       -56.7526   2.0000                                         
     2  1  1.50       -28.6721   6.0000                                         
     3  0  0.50        -2.7440   1.0000                                         
     3  2  1.50        -1.3606   0.0000                                         
   Description                                                                  
     l       E           TYP  RCUT    TYP  RCUT                                 
     1    -28.6720912     23  2.000                                             
     1      6.8029130     23  2.000                                             
     0     -2.7439560     23  2.200                                             
     0     34.0145650     23  2.200                                             
     2     -1.3605826     23  2.200                                             
  local pseudopotential read in
  partial core-charges read in
  partial kinetic energy density read in
  atomic valenz-charges read in
  non local Contribution for L=           1  read in
    real space projection operators read in
  non local Contribution for L=           1  read in
    real space projection operators read in
  non local Contribution for L=           0  read in
    real space projection operators read in
  non local Contribution for L=           0  read in
    real space projection operators read in
    PAW grid and wavefunctions read in
 
   number of l-projection  operators is LMAX  =           4
   number of lm-projection operators is LMMAX =           8
 
 POTCAR:    PAW_PBE Mg_pv 13Apr2007               
   VRHFIN =Mg: p6s2                                                             
   LEXCH  = PE                                                                  
   EATOM  =  1056.7344 eV,   77.6678 Ry                                         
                                                                                
   TITEL  = PAW_PBE Mg_pv 13Apr2007                                             
   LULTRA =        F    use ultrasoft PP ?                                      
   IUNSCR =        1    unscreen: 0-lin 1-nonlin 2-no                           
   RPACOR =    1.500    partial core radius                                     
   POMASS =   24.305; ZVAL   =    8.000    mass and valenz                      
   RCORE  =    2.000    outmost cutoff radius                                   
   RWIGS  =    2.000; RWIGS  =    1.058    wigner-seitz radius (au A)           
   ENMAX  =  403.929; ENMIN  =  302.947 eV                                      
   RCLOC  =    1.506    cutoff for local pot                                    
   LCOR   =        T    correct aug charges                                     
   LPAW   =        T    paw PP                                                  
   EAUG   =  758.780                                                            
   DEXC   =    0.000                                                            
   RMAX   =    2.045    core radius for proj-oper                               
   RAUG   =    1.300    factor for augmentation sphere                          
   RDEP   =    2.025    radius for radial grids                                 
   RDEPT  =    1.557    core radius for aug-charge                              
                                                                                
   Atomic configuration                                                         
    5 entries                                                                   
     n  l   j            E        occ.                                          
     1  0  0.50     -1259.6230   2.0000                                         
     2  0  0.50       -79.8442   2.0000                                         
     2  1  1.50       -46.6121   6.0000                                         
     3  0  0.50        -4.7055   2.0000                                         
     3  2  1.50        -1.3606   0.0000                                         
   Description                                                                  
     l       E           TYP  RCUT    TYP  RCUT                                 
     1    -46.6121073     23  1.600                                             
     1      2.7211652     23  1.600                                             
     0     -4.7054661     23  2.000                                             
     0     61.2262170     23  2.000                                             
     2     -1.3605826     23  2.000                                             
  local pseudopotential read in
  partial core-charges read in
  partial kinetic energy density read in
  atomic valenz-charges read in
  non local Contribution for L=           1  read in
    real space projection operators read in
  non local Contribution for L=           1  read in
    real space projection operators read in
  non local Contribution for L=           0  read in
    real space projection operators read in
  non local Contribution for L=           0  read in
    real space projection operators read in
  non local Contribution for L=           2  read in
    real space projection operators read in
    PAW grid and wavefunctions read in
 
   number of l-projection  operators is LMAX  =           5
   number of lm-projection operators is LMMAX =          13
 
 POTCAR:    PAW_PBE Mn_pv 02Aug2007               
   VRHFIN =Mn: 3p4s3d                                                           
   LEXCH  = PE                                                                  
   EATOM  =  2025.2664 eV,  148.8529 Ry                                         
                                                                                
   TITEL  = PAW_PBE Mn_pv 02Aug2007                                             
   LULTRA =        F    use ultrasoft PP ?                                      
   IUNSCR =        1    unscreen: 0-lin 1-nonlin 2-no                           
   RPACOR =    2.080    partial core radius                                     
   POMASS =   54.938; ZVAL   =   13.000    mass and valenz                      
   RCORE  =    2.300    outmost cutoff radius                                   
   RWIGS  =    2.500; RWIGS  =    1.323    wigner-seitz radius (au A)           
   ENMAX  =  269.864; ENMIN  =  202.398 eV                                      
   ICORE  =        3    local potential                                         
   LCOR   =        T    correct aug charges                                     
   LPAW   =        T    paw PP                                                  
   EAUG   =  569.085                                                            
   DEXC   =    0.000                                                            
   RMAX   =    2.343    core radius for proj-oper                               
   RAUG   =    1.300    factor for augmentation sphere                          
   RDEP   =    2.338    radius for radial grids                                 
   RDEPT  =    1.798    core radius for aug-charge                              
                                                                                
   Atomic configuration                                                         
    8 entries                                                                   
     n  l   j            E        occ.                                          
     1  0  0.50     -6424.8287   2.0000                                         
     2  0  0.50      -739.1154   2.0000                                         
     2  1  1.50      -625.3949   6.0000                                         
     3  0  0.50       -81.6100   2.0000                                         
     3  1  1.50       -50.4667   6.0000                                         
     3  2  2.50        -3.3745   6.0000                                         
     4  0  0.50        -4.1331   1.0000                                         
     4  3  2.50        -1.3606   0.0000                                         
   Description                                                                  
     l       E           TYP  RCUT    TYP  RCUT                                 
     1    -50.4666628     23  2.000                                             
     1     -1.3605826     23  2.000                                             
     2     -3.3744729     23  2.300                                             
     2     -4.7350555     23  2.300                                             
     0     -4.1331431     23  2.300                                             
     0      7.6656591     23  2.300                                             
     3      9.5240782     23  2.300                                             
  local pseudopotential read in
  partial core-charges read in
  partial kinetic energy density read in
  atomic valenz-charges read in
  non local Contribution for L=           1  read in
    real space projection operators read in
  non local Contribution for L=           1  read in
    real space projection operators read in
  non local Contribution for L=           2  read in
    real space projection operators read in
  non local Contribution for L=           2  read in
    real space projection operators read in
  non local Contribution for L=           0  read in
    real space projection operators read in
  non local Contribution for L=           0  read in
    real space projection operators read in
    PAW grid and wavefunctions read in
 
   number of l-projection  operators is LMAX  =           6
   number of lm-projection operators is LMMAX =          18
 
 POTCAR:    PAW_PBE O 08Apr2002                   
   VRHFIN =O: s2p4                                                              
   LEXCH  = PE                                                                  
   EATOM  =   432.3788 eV,   31.7789 Ry                                         
                                                                                
   TITEL  = PAW_PBE O 08Apr2002                                                 
   LULTRA =        F    use ultrasoft PP ?                                      
   IUNSCR =        1    unscreen: 0-lin 1-nonlin 2-no                           
   RPACOR =    1.200    partial core radius                                     
   POMASS =   16.000; ZVAL   =    6.000    mass and valenz                      
   RCORE  =    1.520    outmost cutoff radius                                   
   RWIGS  =    1.550; RWIGS  =    0.820    wigner-seitz radius (au A)           
   ENMAX  =  400.000; ENMIN  =  300.000 eV                                      
   ICORE  =        2    local potential                                         
   LCOR   =        T    correct aug charges                                     
   LPAW   =        T    paw PP                                                  
   EAUG   =  605.392                                                            
   DEXC   =    0.000                                                            
   RMAX   =    1.553    core radius for proj-oper                               
   RAUG   =    1.300    factor for augmentation sphere                          
   RDEP   =    1.550    radius for radial grids                                 
   RDEPT  =    1.329    core radius for aug-charge                              
                                                                                
   Atomic configuration                                                         
    4 entries                                                                   
     n  l   j            E        occ.                                          
     1  0  0.50      -514.6923   2.0000                                         
     2  0  0.50       -23.9615   2.0000                                         
     2  1  0.50        -9.0305   4.0000                                         
     3  2  1.50        -9.5241   0.0000                                         
   Description                                                                  
     l       E           TYP  RCUT    TYP  RCUT                                 
     0    -23.9615318     23  1.200                                             
     0     -9.5240782     23  1.200                                             
     1     -9.0304911     23  1.520                                             
     1      8.1634956     23  1.520                                             
     2     -9.5240782      7  1.500                                             
  local pseudopotential read in
  partial core-charges read in
  partial kinetic energy density read in
  kinetic energy density of atom read in
  atomic valenz-charges read in
  non local Contribution for L=           0  read in
    real space projection operators read in
  non local Contribution for L=           0  read in
    real space projection operators read in
  non local Contribution for L=           1  read in
    real space projection operators read in
  non local Contribution for L=           1  read in
    real space projection operators read in
    PAW grid and wavefunctions read in
 
   number of l-projection  operators is LMAX  =           4
   number of lm-projection operators is LMMAX =           8
 
 Optimization of the real space projectors (new method)

 maximal supplied QI-value         = 17.01
 optimisation between [QCUT,QGAM] = [ 10.20, 20.41] = [ 29.16,116.64] Ry 
 Optimized for a Real-space Cutoff    1.30 Angstroem

   l    n(q)    QCUT    max X(q) W(low)/X(q) W(high)/X(q)  e(spline) 
   1      7    10.205     4.940    0.23E-03    0.84E-03    0.11E-06
   1      7    10.205     6.253    0.40E-03    0.13E-02    0.18E-06
   0      8    10.205    37.438    0.23E-03    0.37E-03    0.42E-07
   0      8    10.205     9.606    0.16E-03    0.26E-03    0.31E-07
 Optimization of the real space projectors (new method)

 maximal supplied QI-value         = 18.90
 optimisation between [QCUT,QGAM] = [ 10.20, 20.41] = [ 29.16,116.64] Ry 
 Optimized for a Real-space Cutoff    1.26 Angstroem

   l    n(q)    QCUT    max X(q) W(low)/X(q) W(high)/X(q)  e(spline) 
   1      7    10.205     2.974    0.63E-04    0.14E-03    0.13E-06
   1      7    10.205     4.279    0.11E-03    0.45E-03    0.24E-06
   0      8    10.205    16.381    0.44E-03    0.15E-03    0.55E-07
   0      8    10.205     5.611    0.31E-03    0.11E-03    0.40E-07
   2      7    10.205     4.652    0.50E-03    0.47E-03    0.57E-07
 Optimization of the real space projectors (new method)

 maximal supplied QI-value         = 16.25
 optimisation between [QCUT,QGAM] = [ 10.24, 20.48] = [ 29.35,117.42] Ry 
 Optimized for a Real-space Cutoff    1.34 Angstroem

   l    n(q)    QCUT    max X(q) W(low)/X(q) W(high)/X(q)  e(spline) 
   1      8    10.239     3.658    0.23E-03    0.30E-03    0.98E-07
   1      8    10.239     5.612    0.32E-03    0.65E-03    0.21E-06
   2      7    10.239    55.373    0.42E-03    0.45E-03    0.65E-07
   2      7    10.239    50.863    0.43E-03    0.48E-03    0.67E-07
   0      8    10.239    79.536    0.11E-03    0.21E-03    0.56E-07
   0      8    10.239    38.668    0.96E-04    0.19E-03    0.52E-07
 Optimization of the real space projectors (new method)

 maximal supplied QI-value         = 24.76
 optimisation between [QCUT,QGAM] = [ 10.15, 20.30] = [ 28.85,115.39] Ry 
 Optimized for a Real-space Cutoff    1.38 Angstroem

   l    n(q)    QCUT    max X(q) W(low)/X(q) W(high)/X(q)  e(spline) 
   0      8    10.150    20.381    0.22E-03    0.32E-03    0.29E-06
   0      8    10.150    15.268    0.23E-03    0.35E-03    0.30E-06
   1      8    10.150     5.964    0.46E-03    0.53E-03    0.21E-06
   1      8    10.150     5.382    0.38E-03    0.45E-03    0.19E-06
  PAW_PBE Na_pv 19Sep2006               :
 energy of atom  1       EATOM= -766.0439
 kinetic energy error for atom=    0.0103 (will be added to EATOM!!)
  PAW_PBE Mg_pv 13Apr2007               :
 energy of atom  2       EATOM=-1056.7344
 kinetic energy error for atom=    0.0820 (will be added to EATOM!!)
  PAW_PBE Mn_pv 02Aug2007               :
 energy of atom  3       EATOM=-2025.2664
 kinetic energy error for atom=    0.0284 (will be added to EATOM!!)
  PAW_PBE O 08Apr2002                   :
 energy of atom  4       EATOM= -432.3788
 kinetic energy error for atom=    0.1156 (will be added to EATOM!!)
 
 
 POSCAR: Na Mg Mn  O                             
  positions in cartesian coordinates
  No initial velocities read in

 METAGGA = SCAN     LMAXTAU =  6    LMIXTAU =  F

 exchange correlation table for  LEXCH =        8
   RHO(1)=    0.500       N(1)  =     2000
   RHO(2)=  100.500       N(2)  =     4000

 VTST: version 3.2, (02/03/18)

 CHAIN: initializing optimizer
 
 OPT: Using VASP Dynamics algorithm
 CHAIN: Read ICHAIN            0
 
 POSCAR: Na Mg Mn  O                             
  positions in cartesian coordinates
  No initial velocities read in
 


--------------------------------------------------------------------------------------------------------


 ion  position               nearest neighbor table
   1  0.071  0.525  0.240-  55 2.27  66 2.32  37 2.73
   2  0.293  0.715  0.728-  81 2.22  80 2.31
   3  0.294  0.219  0.742-  44 2.24  45 2.27  47 2.36
   4  0.558  0.543  0.754-  85 2.28  48 2.30  82 2.31  33 2.85  35 2.95
   5  0.744  0.061  0.250-  62 2.26  53 2.27  88 2.38
   6  0.144  0.271  0.239-  55 2.26  41 2.27  64 2.35
   7  0.075  0.861  0.748-  44 2.31  72 2.38
   8  0.592  0.075  0.757-  49 2.23  46 2.23  29 2.81  31 2.98
   9  0.414  0.191  0.254-  42 2.32  43 2.34  26 2.82
  10  0.749  0.487  0.246-  52 2.27  43 2.31  75 2.33
  11  0.562  0.663  0.248-  78 2.13  87 2.36  74 2.36
  12  0.854  0.495  0.748-  68 2.23  71 2.33  57 2.34
  13  0.070  0.352  0.756-  60 2.24  61 2.38
  14  0.831  0.964  0.753-  56 2.24  69 2.27  59 2.29  72 2.36  40 2.98
  15  0.368  0.861  0.252-  51 2.16  86 2.36  42 2.37
  16  0.947  0.892  0.254-  67 2.28  63 2.31
  17  0.753  0.380  0.999-  66 1.99  71 2.03  49 2.04  53 2.07  60 2.13  43 2.15  33 2.81  34 2.85

  18  0.412  0.195  0.511-  46 1.96  44 1.99  45 2.01  50 2.06  52 2.15  51 2.20  27 2.80
  19  0.259  0.380  0.993-  83 2.00  41 2.06  78 2.07  61 2.08  48 2.09  55 2.10  26 2.85  33 2.85
                            38 2.85
  20  0.906  0.186  0.504-  63 1.97  58 2.03  64 2.03  56 2.05  57 2.09  62 2.11  40 2.79
  21  0.241  0.866  0.997-  73 2.02  67 2.03  77 2.04  42 2.05  47 2.10  84 2.16  34 2.77  37 2.82

  22  0.910  0.698  0.496-  75 2.00  68 2.01  76 2.02  74 2.04  70 2.10  69 2.13  35 2.84
  23  0.747  0.875  0.007-  85 2.04  59 2.06  79 2.08  54 2.10  72 2.12  65 2.15
  24  0.405  0.690  0.480-  87 1.99  86 2.01  88 2.12  80 2.18  81 2.20  82 2.25  32 2.82  39 2.85

  25  0.081  0.043  0.005-  61 1.88  67 1.90  72 1.91  54 1.97  47 1.99  41 1.99  26 2.88  30 2.89
                            34 2.90
  26  0.413  0.207  0.003-  41 1.85  48 1.87  43 1.88  49 1.93  47 1.97  42 1.98   9 2.82  19 2.85
                            25 2.88  33 2.88  29 2.90
  27  0.089  0.040  0.508-  50 1.86  76 1.88  58 1.90  44 1.94  69 1.98  63 2.07  18 2.80  32 2.83
                            36 2.87  40 3.00
  28  0.741  0.365  0.496-  75 1.89  62 1.91  52 1.94  68 1.96  46 1.98  57 1.99  35 2.85  39 2.92
                            31 2.93
  29  0.579  0.038  0.006-  53 1.84  49 1.87  59 1.93  79 1.95  84 1.95  42 1.97   8 2.81  38 2.85
                            30 2.88  26 2.90
  30  0.910  0.206  1.000-  60 1.87  61 1.89  53 1.91  59 1.93  54 1.95  55 1.95  29 2.88  25 2.89
                            37 2.92
  31  0.576  0.028  0.493-  81 1.85  46 1.89  62 1.92  56 1.93  51 1.94  88 1.96  40 2.86  36 2.92
                            28 2.93   8 2.98
  32  0.242  0.366  0.495-  87 1.83  50 1.88  80 1.90  64 1.91  45 1.96  58 2.01  39 2.81  24 2.82
                            27 2.83  35 2.96
  33  0.587  0.538  0.006-  71 1.87  85 1.87  48 1.90  78 1.98  65 1.99  43 1.99  17 2.81   4 2.85
                            19 2.85  26 2.88  34 2.91  38 2.96
  34  0.922  0.709  0.994-  67 1.90  65 1.93  71 1.93  66 1.93  73 1.94  72 1.94  21 2.77  17 2.85
                            25 2.90  33 2.91  37 2.91
  35  0.583  0.535  0.493-  82 1.87  45 1.93  68 1.93  52 1.93  87 1.96  74 1.98  22 2.84  28 2.85
                            40 2.86   4 2.95  32 2.96
  36  0.241  0.861  0.505-  76 1.83  81 1.84  70 1.90  51 1.95  86 1.98  44 2.07  27 2.87  39 2.91
                            31 2.92
  37  0.090  0.541  0.997-  77 1.82  55 1.90  66 1.91  73 1.92  60 1.93  83 1.94   1 2.73  21 2.82
                            38 2.84  34 2.91  30 2.92
  38  0.417  0.709  1.000-  78 1.88  84 1.93  79 1.93  77 1.95  83 1.96  85 1.97  37 2.84  29 2.85
                            19 2.85  33 2.96
  39  0.078  0.526  0.506-  86 1.91  57 1.94  64 1.96  70 1.97  80 1.99  75 2.02  32 2.81  24 2.85
                            36 2.91  28 2.92
  40  0.743  0.865  0.501-  88 1.85  82 1.87  56 1.90  74 1.93  69 1.95  63 1.95  20 2.79  31 2.86
                            35 2.86  14 2.98  27 3.00
  41  0.260  0.209  0.093-  26 1.85  25 1.99  19 2.06   6 2.27
  42  0.412  0.039  0.097-  29 1.97  26 1.98  21 2.05   9 2.32  15 2.37
  43  0.562  0.360  0.102-  26 1.88  33 1.99  17 2.15  10 2.31   9 2.34
  44  0.242  0.033  0.609-  27 1.94  18 1.99  36 2.07   3 2.24   7 2.31
  45  0.415  0.379  0.586-  35 1.93  32 1.96  18 2.01   3 2.27
  46  0.584  0.188  0.588-  31 1.89  18 1.96  28 1.98   8 2.23
  47  0.247  0.050  0.903-  26 1.97  25 1.99  21 2.10   3 2.36
  48  0.442  0.374  0.910-  26 1.87  33 1.90  19 2.09   4 2.30
  49  0.574  0.194  0.918-  29 1.87  26 1.93  17 2.04   8 2.23
  50  0.238  0.198  0.416-  27 1.86  32 1.88  18 2.06
  51  0.404  0.010  0.402-  31 1.94  36 1.95  15 2.16  18 2.20
  52  0.583  0.373  0.401-  35 1.93  28 1.94  18 2.15  10 2.27
  53  0.741  0.193  0.087-  29 1.84  30 1.91  17 2.07   5 2.27
  54  0.925  0.057  0.103-  30 1.95  25 1.97  23 2.10
  55  0.076  0.375  0.089-  37 1.90  30 1.95  19 2.10   6 2.26   1 2.27
  56  0.724  0.013  0.595-  40 1.90  31 1.93  20 2.05  14 2.24
  57  0.906  0.368  0.596-  39 1.94  28 1.99  20 2.09  12 2.34
  58  0.083  0.197  0.598-  27 1.90  32 2.01  20 2.03
  59  0.743  0.048  0.909-  30 1.93  29 1.93  23 2.06  14 2.29
  60  0.934  0.371  0.907-  30 1.87  37 1.93  17 2.13  13 2.24
  61  0.067  0.194  0.915-  25 1.88  30 1.89  19 2.08  13 2.38
  62  0.733  0.200  0.405-  28 1.91  31 1.92  20 2.11   5 2.26
  63  0.910  0.025  0.407-  40 1.95  20 1.97  27 2.07  16 2.31
  64  0.075  0.362  0.409-  32 1.91  39 1.96  20 2.03   6 2.35
  65  0.764  0.696  0.100-  34 1.93  33 1.99  23 2.15
  66  0.931  0.549  0.085-  37 1.91  34 1.93  17 1.99   1 2.32
  67  0.070  0.873  0.089-  34 1.90  25 1.90  21 2.03  16 2.28
  68  0.738  0.528  0.590-  35 1.93  28 1.96  22 2.01  12 2.23
  69  0.912  0.879  0.597-  40 1.95  27 1.98  22 2.13  14 2.27
  70  0.086  0.698  0.598-  36 1.90  39 1.97  22 2.10
  71  0.744  0.552  0.909-  33 1.87  34 1.93  17 2.03  12 2.33
  72  0.930  0.881  0.908-  25 1.91  34 1.94  23 2.12  14 2.36   7 2.38
  73  0.075  0.692  0.900-  37 1.92  34 1.94  21 2.02
  74  0.743  0.709  0.400-  40 1.93  35 1.98  22 2.04  11 2.36
  75  0.907  0.522  0.409-  28 1.89  22 2.00  39 2.02  10 2.33
  76  0.094  0.882  0.422-  36 1.83  27 1.88  22 2.02
  77  0.241  0.690  0.089-  37 1.82  38 1.95  21 2.04
  78  0.426  0.559  0.093-  38 1.88  33 1.98  19 2.07  11 2.13
  79  0.566  0.870  0.101-  38 1.93  29 1.95  23 2.08
  80  0.240  0.514  0.601-  32 1.90  39 1.99  24 2.18   2 2.31
  81  0.412  0.881  0.581-  36 1.84  31 1.85  24 2.20   2 2.22
  82  0.597  0.695  0.588-  35 1.87  40 1.87  24 2.25   4 2.31
  83  0.255  0.549  0.900-  37 1.94  38 1.96  19 2.00
  84  0.432  0.874  0.902-  38 1.93  29 1.95  21 2.16
  85  0.580  0.691  0.916-  33 1.87  38 1.97  23 2.04   4 2.28
  86  0.222  0.689  0.406-  39 1.91  36 1.98  24 2.01  15 2.36
  87  0.402  0.509  0.405-  32 1.83  35 1.96  24 1.99  11 2.36
  88  0.602  0.876  0.401-  40 1.85  31 1.96  24 2.12   5 2.38
 
  LATTYP: Found a hexagonal cell.
 ALAT       =    10.0190000534
 C/A-ratio  =     1.1196726572
  
  Lattice vectors:
  
 A1 = (  10.0190000534,   0.0000000000,   0.0000000000)
 A2 = (  -5.0095000267,   8.6767085668,   0.0000000000)
 A3 = (   0.0000000000,   0.0000000000,  11.2180004120)


Analysis of symmetry for initial positions (statically):
=====================================================================
 Subroutine PRICEL returns:
 Original cell was already a primitive cell.
 

 Routine SETGRP: Setting up the symmetry group for a 
 hexagonal supercell.


 Subroutine GETGRP returns: Found  1 space group operations
 (whereof  1 operations were pure point group operations)
 out of a pool of 24 trial point group operations.


The static configuration has the point symmetry C_1 .


Analysis of symmetry for dynamics (positions and initial velocities):
=====================================================================
 Subroutine PRICEL returns:
 Original cell was already a primitive cell.
 

 Routine SETGRP: Setting up the symmetry group for a 
 hexagonal supercell.


 Subroutine GETGRP returns: Found  1 space group operations
 (whereof  1 operations were pure point group operations)
 out of a pool of 24 trial point group operations.


The dynamic configuration has the point symmetry C_1 .


Analysis of structural, dynamic, and magnetic symmetry:
=====================================================================
 Subroutine PRICEL returns:
 Original cell was already a primitive cell.
 

 Routine SETGRP: Setting up the symmetry group for a 
 hexagonal supercell.


 Subroutine GETGRP returns: Found  1 space group operations
 (whereof  1 operations were pure point group operations)
 out of a pool of 24 trial point group operations.


The magnetic configuration has the point symmetry C_1 .


 Subroutine INISYM returns: Found  1 space group operations
 (whereof  1 operations are pure point group operations),
 and found     1 'primitive' translations

 
 

Automatic generation of k-mesh.
 generate k-points for:    2    2    2
Space group operators:
 irot       det(A)        alpha          n_x          n_y          n_z        tau_x        tau_y        tau_z
    1     1.000000     0.000000     1.000000     0.000000     0.000000     0.000000     0.000000     0.000000
 
 Subroutine IBZKPT returns following result:
 ===========================================
 
 Found      8 irreducible k-points:
 
 Following reciprocal coordinates:
            Coordinates               Weight
  0.000000  0.000000  0.000000      1.000000
  0.500000 -0.000000 -0.000000      1.000000
  0.000000  0.500000  0.000000      1.000000
  0.500000  0.500000 -0.000000      1.000000
  0.000000  0.000000  0.500000      1.000000
  0.500000 -0.000000  0.500000      1.000000
  0.000000  0.500000  0.500000      1.000000
  0.500000  0.500000  0.500000      1.000000
 
 Following cartesian coordinates:
            Coordinates               Weight
  0.000000  0.000000  0.000000      1.000000
  0.049905  0.028813 -0.000000      1.000000
  0.000000  0.057626  0.000000      1.000000
  0.049905  0.086438 -0.000000      1.000000
  0.000000  0.000000  0.044571      1.000000
  0.049905  0.028813  0.044571      1.000000
  0.000000  0.057626  0.044571      1.000000
  0.049905  0.086438  0.044571      1.000000
 


--------------------------------------------------------------------------------------------------------




 Dimension of arrays:
   k-points           NKPTS =      8   k-points in BZ     NKDIM =      8   number of bands    NBANDS=    448
   number of dos      NEDOS =    301   number of ions     NIONS =     88
   non local maximal  LDIM  =      6   non local SUM 2l+1 LMDIM =     18
   total plane-waves  NPLWV = 140000
   max r-space proj   IRMAX =   1632   max aug-charges    IRDMAX=   4555
   dimension x,y,z NGX =    50 NGY =   50 NGZ =   56
   dimension x,y,z NGXF=   100 NGYF=  100 NGZF=  112
   support grid    NGXF=   100 NGYF=  100 NGZF=  112
   ions per type =              16   8  16  48
   NGX,Y,Z   is equivalent  to a cutoff of   8.30,  8.30,  8.30 a.u.
   NGXF,Y,Z  is equivalent  to a cutoff of  16.59, 16.59, 16.60 a.u.

 SYSTEM =  unknown system                          
 POSCAR =  Na Mg Mn  O                             

 Startparameter for this run:
   NWRITE =      2    write-flag & timer
   PREC   = normal    normal or accurate (medium, high low for compatibility)
   ISTART =      0    job   : 0-new  1-cont  2-samecut
   ICHARG =      1    charge: 1-file 2-atom 10-const
   ISPIN  =      2    spin polarized calculation?
   LNONCOLLINEAR =      F non collinear calculations
   LSORBIT =      F    spin-orbit coupling
   INIWAV =      1    electr: 0-lowe 1-rand  2-diag
   LASPH  =      T    aspherical Exc in radial PAW
   METAGGA=      F    non-selfconsistent MetaGGA calc.

 Electronic Relaxation 1
   ENCUT  =  400.0 eV  29.40 Ry    5.42 a.u.  16.34 16.34 18.29*2*pi/ulx,y,z
   ENINI  =  400.0     initial cutoff
   ENAUG  =  758.8 eV  augmentation charge cutoff
   NELM   =    200;   NELMIN=  6; NELMDL=-12     # of ELM steps 
   EDIFF  = 0.1E-04   stopping-criterion for ELM
   LREAL  =      T    real-space projection
   NLSPLINE    = F    spline interpolate recip. space projectors
   LCOMPAT=      F    compatible to vasp.4.4
   GGA_COMPAT  = T    GGA compatible to vasp.4.4-vasp.4.6
   LMAXPAW     = -100 max onsite density
   LMAXMIX     =    4 max onsite mixed and CHGCAR
   VOSKOWN=      0    Vosko Wilk Nusair interpolation
   ROPT   =   -0.00050  -0.00050  -0.00050  -0.00050
 Ionic relaxation
   EDIFFG = 0.1E-03   stopping-criterion for IOM
   NSW    =      1    number of steps for IOM
   NBLOCK =      1;   KBLOCK =      1    inner block; outer block 
   IBRION =     -1    ionic relax: 0-MD 1-quasi-New 2-CG
   NFREE  =      0    steps in history (QN), initial steepest desc. (CG)
   ISIF   =      2    stress and relaxation
   IWAVPR =     10    prediction:  0-non 1-charg 2-wave 3-comb
   ISYM   =      2    0-nonsym 1-usesym 2-fastsym
   LCORR  =      T    Harris-Foulkes like correction to forces

   POTIM  = 0.5000    time-step for ionic-motion
   TEIN   =    0.0    initial temperature
   TEBEG  =    0.0;   TEEND  =   0.0 temperature during run
   SMASS  =  -3.00    Nose mass-parameter (am)
   estimated Nose-frequenzy (Omega)   =  0.10E-29 period in steps =****** mass=  -0.229E-26a.u.
   SCALEE = 1.0000    scale energy and forces
   NPACO  =    256;   APACO  = 16.0  distance and # of slots for P.C.
   PSTRESS=    0.0 pullay stress

  Mass of Ions in am
   POMASS =  22.99 24.30 54.94 16.00
  Ionic Valenz
   ZVAL   =   7.00  8.00 13.00  6.00
  Atomic Wigner-Seitz radii
   RWIGS  =  -1.00 -1.00 -1.00 -1.00
  virtual crystal weights 
   VCA    =   1.00  1.00  1.00  1.00
   NELECT =     672.0000    total number of electrons
   NUPDOWN=      48.0000    fix difference up-down

 DOS related values:
   EMIN   =  10.00;   EMAX   =-10.00  energy-range for DOS
   EFERMI =   0.00
   ISMEAR =     0;   SIGMA  =   0.05  broadening in eV -4-tet -1-fermi 0-gaus

 Electronic relaxation 2 (details)
   IALGO  =     48    algorithm
   LDIAG  =      T    sub-space diagonalisation (order eigenvalues)
   LSUBROT=      F    optimize rotation matrix (better conditioning)
   TURBO    =      0    0=normal 1=particle mesh
   IRESTART =      0    0=no restart 2=restart with 2 vectors
   NREBOOT  =      0    no. of reboots
   NMIN     =      0    reboot dimension
   EREF     =   0.00    reference energy to select bands
   IMIX   =      4    mixing-type and parameters
     AMIX     =   0.40;   BMIX     =  1.00
     AMIX_MAG =   1.60;   BMIX_MAG =  1.00
     AMIN     =   0.10
     WC   =   100.;   INIMIX=   1;  MIXPRE=   1;  MAXMIX= -45

 Intra band minimization:
   WEIMIN = 0.0000     energy-eigenvalue tresh-hold
   EBREAK =  0.56E-08  absolut break condition
   DEPER  =   0.30     relativ break condition  

   TIME   =   0.40     timestep for ELM

  volume/ion in A,a.u.               =      11.08        74.78
  Fermi-wavevector in a.u.,A,eV,Ry     =   1.445993  2.732531 28.448379  2.090897
  Thomas-Fermi vector in A             =   2.564112
 
 Write flags
   LWAVE        =      F    write WAVECAR
   LDOWNSAMPLE  =      F    k-point downsampling of WAVECAR
   LCHARG       =      F    write CHGCAR
   LVTOT        =      F    write LOCPOT, total local potential
   LVHAR        =      F    write LOCPOT, Hartree potential only
   LELF         =      F    write electronic localiz. function (ELF)
   LORBIT       =     11    0 simple, 1 ext, 2 COOP (PROOUT), +10 PAW based schemes


 Dipole corrections
   LMONO  =      F    monopole corrections only (constant potential shift)
   LDIPOL =      F    correct potential (dipole corrections)
   IDIPOL =      0    1-x, 2-y, 3-z, 4-all directions 
   EPSILON=  1.0000000 bulk dielectric constant

 Exchange correlation treatment:
   GGA     =    --    GGA type
   LEXCH   =     8    internal setting for exchange type
   VOSKOWN=      0    Vosko Wilk Nusair interpolation
   LHFCALC =     F    Hartree Fock is set to
   LHFONE  =     F    Hartree Fock one center treatment
   AEXX    =    0.0000 exact exchange contribution

 Linear response parameters
   LEPSILON=     F    determine dielectric tensor
   LRPA    =     F    only Hartree local field effects (RPA)
   LNABLA  =     F    use nabla operator in PAW spheres
   LVEL    =     F    velocity operator in full k-point grid
   LINTERFAST=   F  fast interpolation
   KINTER  =     0    interpolate to denser k-point grid
   CSHIFT  =0.1000    complex shift for real part using Kramers Kronig
   OMEGAMAX=  -1.0    maximum frequency
   DEG_THRESHOLD= 0.2000000E-02 threshold for treating states as degnerate
   RTIME   =   -0.100 relaxation time in fs
  (WPLASMAI=    0.000 imaginary part of plasma frequency in eV, 0.658/RTIME)
   DFIELD  = 0.0000000 0.0000000 0.0000000 field for delta impulse in time
 
 Orbital magnetization related:
   ORBITALMAG=     F  switch on orbital magnetization
   LCHIMAG   =     F  perturbation theory with respect to B field
   DQ        =  0.001000  dq finite difference perturbation B field
   LLRAUG    =     F  two centre corrections for induced B field



--------------------------------------------------------------------------------------------------------


 Static calculation
 charge density and potential will be updated during run
 spin polarized calculation
 RMM-DIIS sequential band-by-band
 perform sub-space diagonalisation
    before iterative eigenvector-optimisation
 modified Broyden-mixing scheme, WC =      100.0
 initial mixing is a Kerker type mixing with AMIX =  0.4000 and BMIX =      1.0000
 Hartree-type preconditioning will be used
 using additional bands          112
 real space projection scheme for non local part
 use partial core corrections
 calculate Harris-corrections to forces 
   (improved forces if not selfconsistent)
 use gradient corrections 
 use of overlap-Matrix (Vanderbilt PP)
 Gauss-broadening in eV      SIGMA  =   0.05


--------------------------------------------------------------------------------------------------------


  energy-cutoff  :      400.00
  volume of cell :      975.20
      direct lattice vectors                 reciprocal lattice vectors
    10.019000053  0.000000000  0.000000000     0.099810360  0.057625538 -0.000000000
    -5.009500027  8.676708567  0.000000000     0.000000000  0.115251076  0.000000000
     0.000000000  0.000000000 11.218000412     0.000000000  0.000000000  0.089142446

  length of vectors
    10.019000053 10.019000053 11.218000412     0.115251076  0.115251076  0.089142446


 
 k-points in units of 2pi/SCALE and weight: read from INCAR                         
   0.00000000  0.00000000  0.00000000       0.125
   0.04990518  0.02881277 -0.00000000       0.125
   0.00000000  0.05762554  0.00000000       0.125
   0.04990518  0.08643831 -0.00000000       0.125
   0.00000000  0.00000000  0.04457122       0.125
   0.04990518  0.02881277  0.04457122       0.125
   0.00000000  0.05762554  0.04457122       0.125
   0.04990518  0.08643831  0.04457122       0.125
 
 k-points in reciprocal lattice and weights: read from INCAR                         
   0.00000000  0.00000000  0.00000000       0.125
   0.50000000 -0.00000000 -0.00000000       0.125
   0.00000000  0.50000000  0.00000000       0.125
   0.50000000  0.50000000 -0.00000000       0.125
   0.00000000  0.00000000  0.50000000       0.125
   0.50000000 -0.00000000  0.50000000       0.125
   0.00000000  0.50000000  0.50000000       0.125
   0.50000000  0.50000000  0.50000000       0.125
 
 position of ions in fractional coordinates (direct lattice) 
   0.07073566  0.52474111  0.23962114
   0.29326744  0.71519039  0.72830983
   0.29380736  0.21941829  0.74181402
   0.55794554  0.54305945  0.75428862
   0.74371261  0.06112720  0.25043768
   0.14352036  0.27099381  0.23909876
   0.07518710  0.86070459  0.74799338
   0.59188186  0.07467101  0.75666337
   0.41436855  0.19069739  0.25389195
   0.74875899  0.48679651  0.24584239
   0.56175052  0.66254287  0.24839988
   0.85351908  0.49478143  0.74794435
   0.06966793  0.35187207  0.75581830
   0.83097365  0.96447247  0.75310480
   0.36771449  0.86067100  0.25213852
   0.94666644  0.89191557  0.25380726
   0.75252418  0.38034930  0.99868396
   0.41170553  0.19549810  0.51149044
   0.25858758  0.38038387  0.99298445
   0.90550636  0.18641746  0.50370652
   0.24083679  0.86609916  0.99704496
   0.91023315  0.69829244  0.49622302
   0.74742825  0.87521783  0.00653961
   0.40453254  0.68956793  0.47991975
   0.08132204  0.04299343  0.00504347
   0.41303534  0.20657372  0.00282245
   0.08910101  0.04024913  0.50793990
   0.74148649  0.36548421  0.49599125
   0.57873036  0.03759507  0.00569938
   0.91043973  0.20563443  0.99991082
   0.57642857  0.02775684  0.49323853
   0.24153521  0.36568705  0.49471205
   0.58695126  0.53825825  0.00632146
   0.92179793  0.70861433  0.99407981
   0.58264055  0.53530206  0.49307540
   0.24050385  0.86092784  0.50499820
   0.09030055  0.54147145  0.99687901
   0.41710810  0.70914563  0.99981566
   0.07805198  0.52601513  0.50641111
   0.74328368  0.86517600  0.50145389
   0.25991447  0.20897556  0.09344357
   0.41163307  0.03887649  0.09703066
   0.56203209  0.36004782  0.10171421
   0.24248612  0.03329044  0.60858885
   0.41485774  0.37940309  0.58609376
   0.58409042  0.18782353  0.58795238
   0.24664907  0.05015012  0.90284361
   0.44207086  0.37436431  0.90981455
   0.57382724  0.19408627  0.91804240
   0.23830346  0.19831368  0.41560348
   0.40392238  0.00959943  0.40213851
   0.58332354  0.37284530  0.40054999
   0.74129403  0.19319192  0.08707256
   0.92515636  0.05673453  0.10299964
   0.07578757  0.37540387  0.08899242
   0.72417517  0.01282185  0.59519253
   0.90638371  0.36772700  0.59631572
   0.08334153  0.19742625  0.59831697
   0.74298602  0.04763488  0.90889638
   0.93372011  0.37104738  0.90679262
   0.06721509  0.19403095  0.91541270
   0.73286339  0.20023722  0.40540023
   0.90960854  0.02485636  0.40685682
   0.07534207  0.36201861  0.40879478
   0.76423007  0.69644497  0.09958192
   0.93063224  0.54898582  0.08455678
   0.07025511  0.87281484  0.08935282
   0.73796086  0.52812653  0.59042964
   0.91165906  0.87852323  0.59720001
   0.08606859  0.69772656  0.59792028
   0.74448806  0.55237766  0.90901227
   0.93021614  0.88059198  0.90817433
   0.07502398  0.69166089  0.90028522
   0.74307947  0.70927702  0.40001603
   0.90691391  0.52238357  0.40921821
   0.09414510  0.88184246  0.42229719
   0.24084776  0.69040696  0.08852353
   0.42641433  0.55850787  0.09342307
   0.56641016  0.86984597  0.10137457
   0.24028230  0.51354036  0.60056871
   0.41191017  0.88073720  0.58136653
   0.59661584  0.69497436  0.58822961
   0.25490465  0.54904575  0.90030305
   0.43200648  0.87379793  0.90167584
   0.57996263  0.69113996  0.91551075
   0.22155995  0.68898476  0.40615349
   0.40156325  0.50851426  0.40480655
   0.60241297  0.87614444  0.40099660
 
 position of ions in cartesian coordinates  (Angst):
  -1.91999003  4.55302570  2.68807000
  -0.64449981  6.20549857  8.17018000
   1.84448003  1.90382857  8.32167000
   2.86960008  4.71196857  8.46161000
   7.14504000  0.53038287  2.80941000
   0.08038700  2.35133427  2.68221000
  -3.55840011  7.46808287  8.39099000
   5.55599997  0.64789857  8.48825000
   3.19625997  1.65462570  2.84816000
   5.06320923  4.22379143  2.75786000
   2.30916997  5.74869143  2.78655000
   6.07280013  4.29307430  8.39044000
  -1.06470019  3.05309143  8.47877000
   3.49400013  8.36844657  8.44833000
  -0.62739992  7.46779143  2.82849000
   5.01660008  7.73889143  2.84721000
   5.63418000  3.30018000 11.20323711
   3.14553000  1.69628000  5.73790000
   0.68525600  3.30048000 11.13930000
   8.13841000  1.61749000  5.65058000
  -1.92578000  7.51489000 11.18485081
   5.62153000  6.05888000  5.56663000
   3.10408000  7.59401000  0.07336140
   0.59862100  5.98318000  5.38374000
   0.59938997  0.37304143  0.05657760
   3.10337000  1.79238000  0.03166230
   0.69107500  0.34923000  5.69807000
   5.59806000  3.17120000  5.56403000
   5.60996703  0.32620143  0.06393560
   8.09157000  1.78423000 11.21700000
   5.63619000  0.24083800  5.53315000
   0.58803200  3.17296000  5.54968000
   3.18426000  4.67031000  0.07091410
   5.68569000  6.14844000 11.15158771
   3.15588000  4.64466000  5.53132000
  -1.90321000  7.47002000  5.66507000
  -1.80778000  4.69819000 11.18298911
   0.62654100  6.15305000 11.21593247
  -1.85307000  4.56408000  5.68092000
   3.11286000  7.50688000  5.62531000
   1.55722000  1.81322000  1.04825000
   3.92940000  0.33732000  1.08849000
   3.82734000  3.12403000  1.14103000
   2.26270003  0.28885143  6.82715000
   2.25584000  3.29197000  6.57480000
   4.91110000  1.62969000  6.59565000
   2.21995000  0.43513800 10.12810000
   2.55373000  3.24825000 10.20630000
   4.77690000  1.68403000 10.29860000
   1.39411000  1.72071000  4.66224000
   3.99881003  0.08329143  4.51119000
   3.97655000  3.23507000  4.49337000
   6.45923000  1.67627000  0.97678000
   8.98493000  0.49226900  1.15545000
  -1.12127005  3.25727000  0.99831700
   7.19128003  0.11125143  6.67687000
   7.23893000  3.19066000  6.68947000
  -0.15400800  1.71301000  6.71192000
   7.20535000  0.41331400 10.19600000
   7.49618000  3.21947000 10.17240000
  -0.29857005  1.68355000 10.26910000
   6.33947000  1.73740000  4.54778000
   8.98885003  0.21567143  4.56412000
  -1.05868000  3.14113000  4.58586000
   4.16798000  6.04285000  1.11711000
   6.57386000  4.76339000  0.94855800
  -3.66848005  7.57316000  1.00236000
   4.74798000  4.58240000  6.62344000
   4.73295000  7.62269000  6.69939000
  -2.63294000  6.05397000  6.70747000
   4.69189000  4.79282000 10.19730000
   4.90851000  7.64064000 10.18790000
  -2.71321005  6.00134000 10.09940000
   3.89179000  6.15419000  4.48738000
   6.46949000  4.53257000  4.59061000
  -3.47435000  7.65149000  4.73733000
  -1.04554000  5.99046000  0.99305700
   1.47440000  4.84601000  1.04802000
   1.31737000  7.54740000  1.13722000
  -0.16519200  4.45584000  6.73718000
  -0.28512500  7.64190000  6.52177000
   2.49602000  6.03009000  6.59876000
  -0.19655500  4.76391000 10.09960000
  -0.04901780  7.58169000 10.11500000
   2.34838000  5.99682000 10.27020000
  -1.23166000  5.97812000  4.55623000
   1.47586000  4.41223000  4.54112000
   1.64653000  7.60205000  4.49838000
 


--------------------------------------------------------------------------------------------------------


 k-point  1 :   0.0000 0.0000 0.0000  plane waves:   17725
 k-point  2 :   0.5000-0.0000-0.0000  plane waves:   17736
 k-point  3 :   0.0000 0.5000 0.0000  plane waves:   17736
 k-point  4 :   0.5000 0.5000-0.0000  plane waves:   17736
 k-point  5 :   0.0000 0.0000 0.5000  plane waves:   17676
 k-point  6 :   0.5000-0.0000 0.5000  plane waves:   17700
 k-point  7 :   0.0000 0.5000 0.5000  plane waves:   17700
 k-point  8 :   0.5000 0.5000 0.5000  plane waves:   17700

 maximum and minimum number of plane-waves per node :     17736    17676

 maximum number of plane-waves:     17736
 maximum index in each direction: 
   IXMAX=   16   IYMAX=   16   IZMAX=   18
   IXMIN=  -16   IYMIN=  -16   IZMIN=  -18


 serial   3D FFT for wavefunctions
 parallel 3D FFT for charge:
    minimum data exchange during FFTs selected (reduces bandwidth)


 total amount of memory used by VASP MPI-rank0    88187. kBytes
=======================================================================

   base      :      30000. kBytes
   nonlr-proj:      13678. kBytes
   fftplans  :        992. kBytes
   grid      :      21513. kBytes
   one-center:       2737. kBytes
   wavefun   :      19267. kBytes
 
     INWAV:  cpu time    0.0000: real time    0.0001
 Broyden mixing: mesh for mixing (old mesh)
   NGX = 33   NGY = 33   NGZ = 37
  (NGX  =100   NGY  =100   NGZ  =112)
  gives a total of  40293 points

 initial charge density was supplied:
 charge density of overlapping atoms calculated
 number of electron     672.0000000 magnetization      48.0000000
 keeping initial charge density in first step


--------------------------------------------------------------------------------------------------------


 Maximum index for non-local projection operator         1547
 Maximum index for augmentation-charges          201 (set IRDMAX)


--------------------------------------------------------------------------------------------------------


 First call to EWALD:  gamma=   0.179
 Maximum number of real-space cells 3x 3x 2
 Maximum number of reciprocal cells 3x 3x 3

    FEWALD:  cpu time    0.0024: real time    0.0030


--------------------------------------- Iteration      1(   1)  ---------------------------------------


    POTLOK:  cpu time    0.2026: real time    0.2048
    SETDIJ:  cpu time    3.1217: real time    3.1240
    EDDIAG:  cpu time    3.7236: real time    3.7458
  RMM-DIIS:  cpu time    6.6223: real time    6.6384
    ORTHCH:  cpu time    1.1630: real time    1.1664
       DOS:  cpu time    0.0021: real time    0.0022
    --------------------------------------------
      LOOP:  cpu time   14.8353: real time   14.8815

 eigenvalue-minimisations  :  7168
 total energy-change (2. order) : 0.1827774E+04  (-0.3592645E+05)
 number of electron     672.0000000 magnetization      48.0000000
 augmentation part      672.0000000 magnetization      48.0000000

 Free energy of the ion-electron system (eV)
  ---------------------------------------------------
  alpha Z        PSCENC =      2652.81237852
  Ewald energy   TEWEN  =    -41960.54736104
  -Hartree energ DENC   =    -25661.70972723
  -exchange      EXHF   =         0.00000000
  -V(xc)+E(xc)   XCENC  =      3605.69011756
  PAW double counting   =     55594.23204139   -59034.67079123
  entropy T*S    EENTRO =        -0.05566608
  eigenvalues    EBANDS =     -7230.17555772
  atomic energy  EATOM  =     73862.19814772
  Solvation  Ediel_sol  =         0.00000000
  ---------------------------------------------------
  free energy    TOTEN  =      1827.77358189 eV

  energy without entropy =     1827.82924797  energy(sigma->0) =     1827.80141493


--------------------------------------------------------------------------------------------------------




--------------------------------------- Iteration      1(   2)  ---------------------------------------


    EDDIAG:  cpu time    3.7316: real time    3.8030
  RMM-DIIS:  cpu time    6.6247: real time    6.6397
    ORTHCH:  cpu time    1.1383: real time    1.1415
       DOS:  cpu time    0.0017: real time    0.0017
    --------------------------------------------
      LOOP:  cpu time   11.4963: real time   11.5859

 eigenvalue-minimisations  :  7168
 total energy-change (2. order) :-0.2667856E+04  (-0.8672145E+04)
 number of electron     672.0000000 magnetization      48.0000000
 augmentation part      672.0000000 magnetization      48.0000000

 Free energy of the ion-electron system (eV)
  ---------------------------------------------------
  alpha Z        PSCENC =      2652.81237852
  Ewald energy   TEWEN  =    -41960.54736104
  -Hartree energ DENC   =    -25661.70972723
  -exchange      EXHF   =         0.00000000
  -V(xc)+E(xc)   XCENC  =      3605.69011756
  PAW double counting   =     55594.23204139   -59034.67079123
  entropy T*S    EENTRO =        -0.04579638
  eigenvalues    EBANDS =     -9898.04099832
  atomic energy  EATOM  =     73862.19814772
  Solvation  Ediel_sol  =         0.00000000
  ---------------------------------------------------
  free energy    TOTEN  =      -840.08198901 eV

  energy without entropy =     -840.03619263  energy(sigma->0) =     -840.05909082


--------------------------------------------------------------------------------------------------------




--------------------------------------- Iteration      1(   3)  ---------------------------------------


    EDDIAG:  cpu time    3.7556: real time    3.7657
  RMM-DIIS:  cpu time    6.6198: real time    6.6352
    ORTHCH:  cpu time    1.1555: real time    1.1702
       DOS:  cpu time    0.0017: real time    0.0017
    --------------------------------------------
      LOOP:  cpu time   11.5325: real time   11.5728

 eigenvalue-minimisations  :  7168
 total energy-change (2. order) : 0.3069240E+03  (-0.1558849E+04)
 number of electron     672.0000000 magnetization      48.0000000
 augmentation part      672.0000000 magnetization      48.0000000

 Free energy of the ion-electron system (eV)
  ---------------------------------------------------
  alpha Z        PSCENC =      2652.81237852
  Ewald energy   TEWEN  =    -41960.54736104
  -Hartree energ DENC   =    -25661.70972723
  -exchange      EXHF   =         0.00000000
  -V(xc)+E(xc)   XCENC  =      3605.69011756
  PAW double counting   =     55594.23204139   -59034.67079123
  entropy T*S    EENTRO =        -0.03152587
  eigenvalues    EBANDS =     -9591.13131255
  atomic energy  EATOM  =     73862.19814772
  Solvation  Ediel_sol  =         0.00000000
  ---------------------------------------------------
  free energy    TOTEN  =      -533.15803273 eV

  energy without entropy =     -533.12650686  energy(sigma->0) =     -533.14226979


--------------------------------------------------------------------------------------------------------




--------------------------------------- Iteration      1(   4)  ---------------------------------------


    EDDIAG:  cpu time    3.7218: real time    3.7376
  RMM-DIIS:  cpu time    6.6132: real time    6.6492
    ORTHCH:  cpu time    1.1468: real time    1.1500
       DOS:  cpu time    0.0012: real time    0.0012
    --------------------------------------------
      LOOP:  cpu time   11.4831: real time   11.5380

 eigenvalue-minimisations  :  7168
 total energy-change (2. order) :-0.5244374E+03  (-0.5071968E+03)
 number of electron     672.0000000 magnetization      48.0000000
 augmentation part      672.0000000 magnetization      48.0000000

 Free energy of the ion-electron system (eV)
  ---------------------------------------------------
  alpha Z        PSCENC =      2652.81237852
  Ewald energy   TEWEN  =    -41960.54736104
  -Hartree energ DENC   =    -25661.70972723
  -exchange      EXHF   =         0.00000000
  -V(xc)+E(xc)   XCENC  =      3605.69011756
  PAW double counting   =     55594.23204139   -59034.67079123
  entropy T*S    EENTRO =        -0.00003082
  eigenvalues    EBANDS =    -10115.60022616
  atomic energy  EATOM  =     73862.19814772
  Solvation  Ediel_sol  =         0.00000000
  ---------------------------------------------------
  free energy    TOTEN  =     -1057.59545128 eV

  energy without entropy =    -1057.59542047  energy(sigma->0) =    -1057.59543587


--------------------------------------------------------------------------------------------------------




--------------------------------------- Iteration      1(   5)  ---------------------------------------


    EDDIAG:  cpu time    3.7768: real time    3.7852
  RMM-DIIS:  cpu time    6.6291: real time    6.6456
    ORTHCH:  cpu time    1.1414: real time    1.1445
       DOS:  cpu time    0.0012: real time    0.0012
    --------------------------------------------
      LOOP:  cpu time   11.5485: real time   11.5765

 eigenvalue-minimisations  :  7168
 total energy-change (2. order) :-0.1480094E+03  (-0.2126734E+03)
 number of electron     672.0000000 magnetization      48.0000000
 augmentation part      672.0000000 magnetization      48.0000000

 Free energy of the ion-electron system (eV)
  ---------------------------------------------------
  alpha Z        PSCENC =      2652.81237852
  Ewald energy   TEWEN  =    -41960.54736104
  -Hartree energ DENC   =    -25661.70972723
  -exchange      EXHF   =         0.00000000
  -V(xc)+E(xc)   XCENC  =      3605.69011756
  PAW double counting   =     55594.23204139   -59034.67079123
  entropy T*S    EENTRO =        -0.00000000
  eigenvalues    EBANDS =    -10263.60963742
  atomic energy  EATOM  =     73862.19814772
  Solvation  Ediel_sol  =         0.00000000
  ---------------------------------------------------
  free energy    TOTEN  =     -1205.60483173 eV

  energy without entropy =    -1205.60483173  energy(sigma->0) =    -1205.60483173


--------------------------------------------------------------------------------------------------------




--------------------------------------- Iteration      1(   6)  ---------------------------------------


    EDDIAG:  cpu time    3.7354: real time    3.7455
  RMM-DIIS:  cpu time    6.6161: real time    6.6303
    ORTHCH:  cpu time    1.1479: real time    1.1514
       DOS:  cpu time    0.0011: real time    0.0011
    --------------------------------------------
      LOOP:  cpu time   11.5006: real time   11.5283

 eigenvalue-minimisations  :  7168
 total energy-change (2. order) :-0.2179101E+02  (-0.1153283E+03)
 number of electron     672.0000000 magnetization      48.0000000
 augmentation part      672.0000000 magnetization      48.0000000

 Free energy of the ion-electron system (eV)
  ---------------------------------------------------
  alpha Z        PSCENC =      2652.81237852
  Ewald energy   TEWEN  =    -41960.54736104
  -Hartree energ DENC   =    -25661.70972723
  -exchange      EXHF   =         0.00000000
  -V(xc)+E(xc)   XCENC  =      3605.69011756
  PAW double counting   =     55594.23204139   -59034.67079123
  entropy T*S    EENTRO =        -0.00000000
  eigenvalues    EBANDS =    -10285.40065083
  atomic energy  EATOM  =     73862.19814772
  Solvation  Ediel_sol  =         0.00000000
  ---------------------------------------------------
  free energy    TOTEN  =     -1227.39584514 eV

  energy without entropy =    -1227.39584514  energy(sigma->0) =    -1227.39584514


--------------------------------------------------------------------------------------------------------




--------------------------------------- Iteration      1(   7)  ---------------------------------------


    EDDIAG:  cpu time    3.7364: real time    3.7648
  RMM-DIIS:  cpu time    6.6385: real time    6.6527
    ORTHCH:  cpu time    1.1418: real time    1.1451
       DOS:  cpu time    0.0010: real time    0.0010
    --------------------------------------------
      LOOP:  cpu time   11.5178: real time   11.5635

 eigenvalue-minimisations  :  7168
 total energy-change (2. order) :-0.6656414E+01  (-0.7617262E+02)
 number of electron     672.0000000 magnetization      48.0000000
 augmentation part      672.0000000 magnetization      48.0000000

 Free energy of the ion-electron system (eV)
  ---------------------------------------------------
  alpha Z        PSCENC =      2652.81237852
  Ewald energy   TEWEN  =    -41960.54736104
  -Hartree energ DENC   =    -25661.70972723
  -exchange      EXHF   =         0.00000000
  -V(xc)+E(xc)   XCENC  =      3605.69011756
  PAW double counting   =     55594.23204139   -59034.67079123
  entropy T*S    EENTRO =        -0.00000000
  eigenvalues    EBANDS =    -10292.05706440
  atomic energy  EATOM  =     73862.19814772
  Solvation  Ediel_sol  =         0.00000000
  ---------------------------------------------------
  free energy    TOTEN  =     -1234.05225870 eV

  energy without entropy =    -1234.05225870  energy(sigma->0) =    -1234.05225870


--------------------------------------------------------------------------------------------------------




--------------------------------------- Iteration      1(   8)  ---------------------------------------


    EDDIAG:  cpu time    3.7251: real time    3.7319
  RMM-DIIS:  cpu time    6.6229: real time    6.6385
    ORTHCH:  cpu time    1.1463: real time    1.1497
       DOS:  cpu time    0.0011: real time    0.0011
    --------------------------------------------
      LOOP:  cpu time   11.4955: real time   11.5213

 eigenvalue-minimisations  :  7168
 total energy-change (2. order) : 0.4608575E+01  (-0.5275323E+02)
 number of electron     672.0000000 magnetization      48.0000000
 augmentation part      672.0000000 magnetization      48.0000000

 Free energy of the ion-electron system (eV)
  ---------------------------------------------------
  alpha Z        PSCENC =      2652.81237852
  Ewald energy   TEWEN  =    -41960.54736104
  -Hartree energ DENC   =    -25661.70972723
  -exchange      EXHF   =         0.00000000
  -V(xc)+E(xc)   XCENC  =      3605.69011756
  PAW double counting   =     55594.23204139   -59034.67079123
  entropy T*S    EENTRO =        -0.00000000
  eigenvalues    EBANDS =    -10287.44848917
  atomic energy  EATOM  =     73862.19814772
  Solvation  Ediel_sol  =         0.00000000
  ---------------------------------------------------
  free energy    TOTEN  =     -1229.44368347 eV

  energy without entropy =    -1229.44368347  energy(sigma->0) =    -1229.44368347


--------------------------------------------------------------------------------------------------------




--------------------------------------- Iteration      1(   9)  ---------------------------------------


    EDDIAG:  cpu time    3.7349: real time    3.7433
  RMM-DIIS:  cpu time   13.7877: real time   13.8372
    ORTHCH:  cpu time    1.1441: real time    1.1479
       DOS:  cpu time    0.0012: real time    0.0011
    --------------------------------------------
      LOOP:  cpu time   18.6679: real time   18.7295

 eigenvalue-minimisations  : 20241
 total energy-change (2. order) : 0.1808955E+02  (-0.2360371E+02)
 number of electron     672.0000000 magnetization      48.0000000
 augmentation part      672.0000000 magnetization      48.0000000

 Free energy of the ion-electron system (eV)
  ---------------------------------------------------
  alpha Z        PSCENC =      2652.81237852
  Ewald energy   TEWEN  =    -41960.54736104
  -Hartree energ DENC   =    -25661.70972723
  -exchange      EXHF   =         0.00000000
  -V(xc)+E(xc)   XCENC  =      3605.69011756
  PAW double counting   =     55594.23204139   -59034.67079123
  entropy T*S    EENTRO =        -0.00000000
  eigenvalues    EBANDS =    -10269.35894061
  atomic energy  EATOM  =     73862.19814772
  Solvation  Ediel_sol  =         0.00000000
  ---------------------------------------------------
  free energy    TOTEN  =     -1211.35413492 eV

  energy without entropy =    -1211.35413492  energy(sigma->0) =    -1211.35413492


--------------------------------------------------------------------------------------------------------




--------------------------------------- Iteration      1(  10)  ---------------------------------------


    EDDIAG:  cpu time    3.7254: real time    3.7338
  RMM-DIIS:  cpu time   15.4952: real time   15.5401
    ORTHCH:  cpu time    1.1536: real time    1.1569
       DOS:  cpu time    0.0011: real time    0.0011
    --------------------------------------------
      LOOP:  cpu time   20.3754: real time   20.4319

 eigenvalue-minimisations  : 20192
 total energy-change (2. order) :-0.3070407E+01  (-0.1031852E+01)
 number of electron     672.0000000 magnetization      48.0000000
 augmentation part      672.0000000 magnetization      48.0000000

 Free energy of the ion-electron system (eV)
  ---------------------------------------------------
  alpha Z        PSCENC =      2652.81237852
  Ewald energy   TEWEN  =    -41960.54736104
  -Hartree energ DENC   =    -25661.70972723
  -exchange      EXHF   =         0.00000000
  -V(xc)+E(xc)   XCENC  =      3605.69011756
  PAW double counting   =     55594.23204139   -59034.67079123
  entropy T*S    EENTRO =        -0.00000076
  eigenvalues    EBANDS =    -10272.42934726
  atomic energy  EATOM  =     73862.19814772
  Solvation  Ediel_sol  =         0.00000000
  ---------------------------------------------------
  free energy    TOTEN  =     -1214.42454232 eV

  energy without entropy =    -1214.42454156  energy(sigma->0) =    -1214.42454194


--------------------------------------------------------------------------------------------------------




--------------------------------------- Iteration      1(  11)  ---------------------------------------


    EDDIAG:  cpu time    3.8087: real time    3.8391
  RMM-DIIS:  cpu time   15.1217: real time   15.1541
    ORTHCH:  cpu time    1.1566: real time    1.1596
       DOS:  cpu time    0.0013: real time    0.0013
    --------------------------------------------
      LOOP:  cpu time   20.0883: real time   20.1542

 eigenvalue-minimisations  : 21676
 total energy-change (2. order) : 0.1021643E+00  (-0.9756196E-01)
 number of electron     672.0000000 magnetization      48.0000000
 augmentation part      672.0000000 magnetization      48.0000000

 Free energy of the ion-electron system (eV)
  ---------------------------------------------------
  alpha Z        PSCENC =      2652.81237852
  Ewald energy   TEWEN  =    -41960.54736104
  -Hartree energ DENC   =    -25661.70972723
  -exchange      EXHF   =         0.00000000
  -V(xc)+E(xc)   XCENC  =      3605.69011756
  PAW double counting   =     55594.23204139   -59034.67079123
  entropy T*S    EENTRO =        -0.00000071
  eigenvalues    EBANDS =    -10272.32718302
  atomic energy  EATOM  =     73862.19814772
  Solvation  Ediel_sol  =         0.00000000
  ---------------------------------------------------
  free energy    TOTEN  =     -1214.32237803 eV

  energy without entropy =    -1214.32237732  energy(sigma->0) =    -1214.32237768


--------------------------------------------------------------------------------------------------------




--------------------------------------- Iteration      1(  12)  ---------------------------------------


    EDDIAG:  cpu time    3.7233: real time    3.7261
  RMM-DIIS:  cpu time   15.9232: real time   15.9747
    ORTHCH:  cpu time    1.1466: real time    1.1489
       DOS:  cpu time    0.0014: real time    0.0014
    CHARGE:  cpu time    1.3516: real time    1.3522
    MIXING:  cpu time    0.0012: real time    0.0014
    --------------------------------------------
      LOOP:  cpu time   22.1473: real time   22.2047

 eigenvalue-minimisations  : 22769
 total energy-change (2. order) : 0.7397483E-02  (-0.6591493E-02)
 number of electron     672.0000228 magnetization      48.0000029
 augmentation part      239.0300206 magnetization      29.0260332

 Broyden mixing:
  rms(total) = 0.12541E+02    rms(broyden)= 0.12532E+02
  rms(prec ) = 0.14397E+02
  weight for this iteration     100.00

 Free energy of the ion-electron system (eV)
  ---------------------------------------------------
  alpha Z        PSCENC =      2652.81237852
  Ewald energy   TEWEN  =    -41960.54736104
  -Hartree energ DENC   =    -25661.70972723
  -exchange      EXHF   =         0.00000000
  -V(xc)+E(xc)   XCENC  =      3605.69011756
  PAW double counting   =     55594.23204139   -59034.67079123
  entropy T*S    EENTRO =        -0.00000064
  eigenvalues    EBANDS =    -10272.31978560
  atomic energy  EATOM  =     73862.19814772
  Solvation  Ediel_sol  =         0.00000000
  ---------------------------------------------------
  free energy    TOTEN  =     -1214.31498055 eV

  energy without entropy =    -1214.31497991  energy(sigma->0) =    -1214.31498023


--------------------------------------------------------------------------------------------------------




--------------------------------------- Iteration      1(  13)  ---------------------------------------


    POTLOK:  cpu time    0.1971: real time    0.1982
    SETDIJ:  cpu time    3.2930: real time    3.2952
    EDDIAG:  cpu time    3.7455: real time    3.7478
  RMM-DIIS:  cpu time   12.9995: real time   13.0231
    ORTHCH:  cpu time    1.2228: real time    1.2249
       DOS:  cpu time    0.0012: real time    0.0012
    CHARGE:  cpu time    1.3550: real time    1.3572
    MIXING:  cpu time    0.0008: real time    0.0009
    --------------------------------------------
      LOOP:  cpu time   22.8149: real time   22.8484

 eigenvalue-minimisations  : 17316
 total energy-change (2. order) : 0.2247051E+03  (-0.1379684E+03)
 number of electron     672.0000159 magnetization      48.0000037
 augmentation part      269.0707399 magnetization      26.4816902

 Broyden mixing:
  rms(total) = 0.13982E+02    rms(broyden)= 0.13979E+02
  rms(prec ) = 0.15721E+02
  weight for this iteration     100.00

 eigenvalues of (default mixing * dielectric matrix)
  average eigenvalue GAMMA=   0.3170
  0.3170

 Free energy of the ion-electron system (eV)
  ---------------------------------------------------
  alpha Z        PSCENC =      2652.81237852
  Ewald energy   TEWEN  =    -41960.54736104
  -Hartree energ DENC   =    -24988.01441593
  -exchange      EXHF   =         0.00000000
  -V(xc)+E(xc)   XCENC  =      3695.84002847
  PAW double counting   =     59868.60624854   -63293.46602184
  entropy T*S    EENTRO =        -0.07936026
  eigenvalues    EBANDS =    -10826.95947822
  atomic energy  EATOM  =     73862.19814772
  Solvation  Ediel_sol  =         0.00000000
  ---------------------------------------------------
  free energy    TOTEN  =      -989.60983404 eV

  energy without entropy =     -989.53047378  energy(sigma->0) =     -989.57015391


--------------------------------------------------------------------------------------------------------




--------------------------------------- Iteration      1(  14)  ---------------------------------------


    POTLOK:  cpu time    0.2097: real time    0.2097
    SETDIJ:  cpu time    3.2865: real time    3.2876
    EDDIAG:  cpu time    3.7366: real time    3.7420
  RMM-DIIS:  cpu time   13.5034: real time   13.5144
    ORTHCH:  cpu time    1.1574: real time    1.1613
       DOS:  cpu time    0.0010: real time    0.0010
    CHARGE:  cpu time    1.3528: real time    1.3542
    MIXING:  cpu time    0.0007: real time    0.0007
    --------------------------------------------
      LOOP:  cpu time   23.2481: real time   23.2708

 eigenvalue-minimisations  : 17709
 total energy-change (2. order) : 0.7437174E+02  (-0.1894063E+02)
 number of electron     672.0000199 magnetization      48.0000059
 augmentation part      246.6156184 magnetization      32.1933808

 Broyden mixing:
  rms(total) = 0.52423E+01    rms(broyden)= 0.52381E+01
  rms(prec ) = 0.56645E+01
  weight for this iteration     100.00

 eigenvalues of (default mixing * dielectric matrix)
  average eigenvalue GAMMA=   0.7287
  1.0983  0.3590

 Free energy of the ion-electron system (eV)
  ---------------------------------------------------
  alpha Z        PSCENC =      2652.81237852
  Ewald energy   TEWEN  =    -41960.54736104
  -Hartree energ DENC   =    -25598.51667169
  -exchange      EXHF   =         0.00000000
  -V(xc)+E(xc)   XCENC  =      3673.43349102
  PAW double counting   =     63277.84797825   -66759.74010715
  entropy T*S    EENTRO =        -0.00000000
  eigenvalues    EBANDS =    -10062.72595291
  atomic energy  EATOM  =     73862.19814772
  Solvation  Ediel_sol  =         0.00000000
  ---------------------------------------------------
  free energy    TOTEN  =      -915.23809727 eV

  energy without entropy =     -915.23809727  energy(sigma->0) =     -915.23809727


--------------------------------------------------------------------------------------------------------




--------------------------------------- Iteration      1(  15)  ---------------------------------------


    POTLOK:  cpu time    0.2019: real time    0.2045
    SETDIJ:  cpu time    3.2838: real time    3.2956
    EDDIAG:  cpu time    3.8259: real time    3.8304
  RMM-DIIS:  cpu time   13.6114: real time   13.6216
    ORTHCH:  cpu time    1.1500: real time    1.1524
       DOS:  cpu time    0.0010: real time    0.0010
    CHARGE:  cpu time    1.3499: real time    1.3502
    MIXING:  cpu time    0.0007: real time    0.0007
    --------------------------------------------
      LOOP:  cpu time   23.4245: real time   23.4564

 eigenvalue-minimisations  : 18359
 total energy-change (2. order) : 0.1365574E+02  (-0.2202257E+01)
 number of electron     672.0000187 magnetization      48.0000073
 augmentation part      249.6624676 magnetization      33.8128229

 Broyden mixing:
  rms(total) = 0.21748E+01    rms(broyden)= 0.21745E+01
  rms(prec ) = 0.22583E+01
  weight for this iteration     100.00

 eigenvalues of (default mixing * dielectric matrix)
  average eigenvalue GAMMA=   0.9376
  1.6818  0.3844  0.7464

 Free energy of the ion-electron system (eV)
  ---------------------------------------------------
  alpha Z        PSCENC =      2652.81237852
  Ewald energy   TEWEN  =    -41960.54736104
  -Hartree energ DENC   =    -25517.70210815
  -exchange      EXHF   =         0.00000000
  -V(xc)+E(xc)   XCENC  =      3706.05195438
  PAW double counting   =     67351.52585291   -70873.79188921
  entropy T*S    EENTRO =        -0.00000000
  eigenvalues    EBANDS =    -10122.12932750
  atomic energy  EATOM  =     73862.19814772
  Solvation  Ediel_sol  =         0.00000000
  ---------------------------------------------------
  free energy    TOTEN  =      -901.58235236 eV

  energy without entropy =     -901.58235236  energy(sigma->0) =     -901.58235236


--------------------------------------------------------------------------------------------------------




--------------------------------------- Iteration      1(  16)  ---------------------------------------


    POTLOK:  cpu time    0.2086: real time    0.2087
    SETDIJ:  cpu time    3.3302: real time    3.3319
    EDDIAG:  cpu time    3.7343: real time    3.7493
  RMM-DIIS:  cpu time   13.0981: real time   13.1400
    ORTHCH:  cpu time    1.1558: real time    1.1579
       DOS:  cpu time    0.0010: real time    0.0010
    CHARGE:  cpu time    1.3456: real time    1.3495
    MIXING:  cpu time    0.0009: real time    0.0009
    --------------------------------------------
      LOOP:  cpu time   22.8745: real time   22.9392

 eigenvalue-minimisations  : 17442
 total energy-change (2. order) :-0.1412316E+01  (-0.7079294E+00)
 number of electron     672.0000183 magnetization      48.0000077
 augmentation part      251.1337972 magnetization      33.9157039

 Broyden mixing:
  rms(total) = 0.14674E+01    rms(broyden)= 0.14669E+01
  rms(prec ) = 0.15538E+01
  weight for this iteration     100.00

 eigenvalues of (default mixing * dielectric matrix)
  average eigenvalue GAMMA=   0.9665
  2.0661  0.8945  0.3913  0.5142

 Free energy of the ion-electron system (eV)
  ---------------------------------------------------
  alpha Z        PSCENC =      2652.81237852
  Ewald energy   TEWEN  =    -41960.54736104
  -Hartree energ DENC   =    -25467.89435048
  -exchange      EXHF   =         0.00000000
  -V(xc)+E(xc)   XCENC  =      3707.18513825
  PAW double counting   =     70240.32832631   -73791.93653061
  entropy T*S    EENTRO =        -0.00000000
  eigenvalues    EBANDS =    -10145.14041725
  atomic energy  EATOM  =     73862.19814772
  Solvation  Ediel_sol  =         0.00000000
  ---------------------------------------------------
  free energy    TOTEN  =      -902.99466857 eV

  energy without entropy =     -902.99466857  energy(sigma->0) =     -902.99466857


--------------------------------------------------------------------------------------------------------




--------------------------------------- Iteration      1(  17)  ---------------------------------------


    POTLOK:  cpu time    0.2125: real time    0.2127
    SETDIJ:  cpu time    3.3319: real time    3.3325
    EDDIAG:  cpu time    3.7488: real time    3.7529
  RMM-DIIS:  cpu time   13.7403: real time   13.7738
    ORTHCH:  cpu time    1.1577: real time    1.1604
       DOS:  cpu time    0.0010: real time    0.0010
    CHARGE:  cpu time    1.3475: real time    1.3480
    MIXING:  cpu time    0.0015: real time    0.0015
    --------------------------------------------
      LOOP:  cpu time   23.5412: real time   23.5828

 eigenvalue-minimisations  : 18645
 total energy-change (2. order) : 0.1321167E+00  (-0.9244917E-01)
 number of electron     672.0000182 magnetization      48.0000079
 augmentation part      251.0951423 magnetization      33.9126737

 Broyden mixing:
  rms(total) = 0.78252E+00    rms(broyden)= 0.78237E+00
  rms(prec ) = 0.88357E+00
  weight for this iteration     100.00

 eigenvalues of (default mixing * dielectric matrix)
  average eigenvalue GAMMA=   0.9898
  2.2195  1.1139  0.3805  0.6835  0.5516

 Free energy of the ion-electron system (eV)
  ---------------------------------------------------
  alpha Z        PSCENC =      2652.81237852
  Ewald energy   TEWEN  =    -41960.54736104
  -Hartree energ DENC   =    -25458.91318276
  -exchange      EXHF   =         0.00000000
  -V(xc)+E(xc)   XCENC  =      3704.53886134
  PAW double counting   =     71119.41164974   -74679.65347471
  entropy T*S    EENTRO =        -0.00000000
  eigenvalues    EBANDS =    -10142.70957073
  atomic energy  EATOM  =     73862.19814772
  Solvation  Ediel_sol  =         0.00000000
  ---------------------------------------------------
  free energy    TOTEN  =      -902.86255192 eV

  energy without entropy =     -902.86255192  energy(sigma->0) =     -902.86255192


--------------------------------------------------------------------------------------------------------




--------------------------------------- Iteration      1(  18)  ---------------------------------------


    POTLOK:  cpu time    0.1967: real time    0.1980
    SETDIJ:  cpu time    3.3148: real time    3.3155
    EDDIAG:  cpu time    3.7792: real time    3.7818
  RMM-DIIS:  cpu time   13.1836: real time   13.1878
    ORTHCH:  cpu time    1.1654: real time    1.1676
       DOS:  cpu time    0.0011: real time    0.0011
    CHARGE:  cpu time    1.3506: real time    1.3511
    MIXING:  cpu time    0.0010: real time    0.0010
    --------------------------------------------
      LOOP:  cpu time   22.9924: real time   23.0039

 eigenvalue-minimisations  : 17528
 total energy-change (2. order) : 0.4021834E+00  (-0.7553550E-01)
 number of electron     672.0000185 magnetization      48.0000080
 augmentation part      250.5918408 magnetization      33.8766827

 Broyden mixing:
  rms(total) = 0.29320E+00    rms(broyden)= 0.29293E+00
  rms(prec ) = 0.30856E+00
  weight for this iteration     100.00

 eigenvalues of (default mixing * dielectric matrix)
  average eigenvalue GAMMA=   1.0160
  2.4584  1.3621  0.8450  0.5862  0.3823  0.4622

 Free energy of the ion-electron system (eV)
  ---------------------------------------------------
[...]
   4      -0.837    -0.935     1.772    -0.031     0.006    -0.022
   5      -0.753    -0.878     1.631     0.018    -0.024    -0.511
   6      -0.737    -0.605     1.343    -0.087     0.313     0.299
   7      -0.848    -0.729     1.577    -0.147    -0.434    -0.286
   8      -0.939    -0.897     1.836     0.019    -0.028    -0.032
   9      -0.595    -0.743     1.338    -0.046     0.026    -0.003
  10      -0.605    -0.822     1.427    -0.064    -0.033    -0.466
  11      -0.922    -0.828     1.750    -0.108     0.467     0.222
  12      -0.543    -0.829     1.372     0.053    -0.040     0.435
  13      -0.912    -0.714     1.626    -0.127    -0.469    -0.256
  14      -0.545    -0.786     1.331     0.104     0.007     0.343
  15      -0.791    -0.764     1.555     0.119    -0.381     0.287
  16      -0.830    -0.826     1.656     0.079    -0.346     0.196
  17       1.316     1.672    -2.989     0.010    -0.042    -0.126
  18       1.639     1.242    -2.881     0.045     0.043    -0.163
  19       1.422     1.509    -2.931    -0.024     0.128    -0.017
  20       1.422     1.479    -2.901     0.036     0.111    -0.012
  21       1.414     1.457    -2.871    -0.066     0.028     0.075
  22       1.396     1.556    -2.953     0.181     0.105     0.028
  23       1.411     1.401    -2.812     0.046    -0.066     0.065
  24       1.335     1.457    -2.792    -0.072    -0.171     0.025
  25       0.799    -1.527     0.728     1.109     0.048    -0.307
  26       0.796    -0.464    -0.331    -0.086     0.813     0.026
  27       0.108    -0.990     0.882     0.508     0.132     0.141
  28       0.990    -2.223     1.234    -0.014    -0.414    -0.015
  29      -0.094    -1.179     1.273    -0.369     0.056    -0.047
  30      -0.875    -0.142     1.017    -1.246    -0.340     1.361
  31       0.101     0.038    -0.139    -0.368    -0.006    -0.286
  32      -1.540     0.425     1.115    -1.312     1.700    -0.769
  33       1.000    -0.645    -0.355    -0.084     0.188     0.192
  34       0.754    -1.121     0.367     0.494     0.684    -0.093
  35       0.822    -1.088     0.267    -1.281    -0.181    -1.129
  36      -2.203     1.430     0.773    -1.298    -0.062    -0.233
  37       0.348    -0.630     0.282    -0.167    -0.169    -0.148
  38       0.169     0.398    -0.567     0.724    -0.825    -0.322
  39       0.745    -0.784     0.039    -0.100     0.240     0.552
  40       1.392     0.491    -1.883     0.650    -0.032     0.042
  41      -2.857     1.599     1.258    -4.606     3.406    -3.565
  42      -4.314     2.127     2.187     3.231     2.452     4.414
  43       5.813    -5.304    -0.509    -1.610    -4.190    -0.598
  44      -2.754     2.359     0.395     4.030    -3.896    -3.752
  45      -2.216     2.079     0.138    -3.785    -1.822     3.998
  46       6.347    -5.863    -0.484     0.276     4.853    -0.671
  47      -3.470     2.633     0.837    -4.450     3.575    -3.368
  48       7.018    -5.959    -1.058    -0.018    -3.428    -0.135
  49      -3.335     0.888     2.447     4.733     0.912     5.181
  50       4.489    -6.993     2.504     2.110     4.984     2.923
  51      -3.695     4.406    -0.711    -5.632    -2.156     5.011
  52      -4.445     2.426     2.018     4.324    -3.400    -3.873
  53      -3.493     1.102     2.391    -6.153     2.794    -3.262
  54      -3.670     4.022    -0.352     4.179     1.904     3.282
  55       4.913    -5.863     0.950    -0.912    -5.038     1.016
  56      -1.876     2.047    -0.171     6.057    -2.460    -3.515
  57      -3.020     1.515     1.505    -5.449    -1.484     4.431
  58       3.887    -4.186     0.299     2.028     4.761     0.208
  59      -1.880     1.364     0.516    -4.442     2.665    -5.133
  60       5.483    -6.650     1.167    -0.503    -3.868     1.377
  61      -3.679     2.650     1.030     4.946     1.596     4.453
  62       6.148    -7.457     1.309     1.358     6.236    -0.245
  63      -3.274     3.177     0.098    -3.949    -1.838     3.380
  64      -3.798     1.851     1.946     3.617    -1.377    -4.926
  65      -2.215     3.172    -0.957    -5.414     2.273    -2.845
  66      -3.312     1.704     1.608     3.870     2.125     4.404
  67       7.074    -7.150     0.076     1.017    -4.631    -1.417
  68      -2.008     1.867     0.141     5.125    -3.109    -3.750
  69      -3.392     1.706     1.686    -5.048    -1.785     3.196
  70       4.187    -6.421     2.234     0.488     4.745     0.235
  71      -2.676     2.676     0.000    -5.590     3.424    -2.722
  72       5.894    -5.887    -0.007     1.022    -5.548    -1.162
  73      -4.179     3.235     0.944     4.697     1.731     3.123
  74       5.215    -5.191    -0.024    -0.275     4.349     0.575
  75      -3.074     1.700     1.375    -4.590    -2.343     4.639
  76      -1.639    -0.501     2.140     6.664    -3.420    -3.262
  77      -2.264     1.894     0.371    -5.514     1.579    -4.433
  78      -3.395     2.373     1.023     5.835     1.766     4.951
  79       5.341    -5.288    -0.053    -0.664    -4.327    -1.007
  80      -4.257     5.215    -0.958     3.344    -2.617    -3.699
  81      -3.846     3.532     0.314    -6.692    -2.061     3.854
  82       8.111    -7.954    -0.158     0.878     5.337    -1.149
  83      -2.247     1.761     0.487    -4.106     2.740    -3.363
  84       7.222    -5.795    -1.427     1.446    -3.793     0.323
  85      -3.450     2.847     0.603     6.057     2.388     5.731
  86       5.603    -4.965    -0.637     1.624     3.880     0.702
  87      -3.163     1.651     1.512    -5.570    -1.442     4.160
  88      -2.572     2.927    -0.355     4.495    -2.488    -2.104
 ---------------------------------------------------------------------


 Total hyperfine coupling parameters after diagonalization (MHz)
 (convention: |A_zz| > |A_xx| > |A_yy|)
 ----------------------------------------------------------------------
  ion      A_xx      A_yy      A_zz     asymmetry (A_yy - A_xx)/ A_zz 
 ----------------------------------------------------------------------
   1       0.362     0.295     3.144      -0.021
   2       1.648     1.272     3.785      -0.099
   3       1.845     1.498     3.950      -0.088
   4       0.769     0.653     3.369      -0.034
   5       1.879     1.652     4.362      -0.052
   6       1.134     0.842     3.131      -0.093
   7       1.828     1.407     4.137      -0.102
   8       0.761     0.705     3.488      -0.016
   9       1.181     1.008     3.102      -0.056
  10       1.736     1.397     3.846      -0.088
  11       1.988     1.662     4.592      -0.071
  12       1.646     1.258     3.635      -0.107
  13       2.418     1.990     4.802      -0.089
  14       1.416     1.058     3.315      -0.108
  15       2.135     1.808     4.438      -0.074
  16       2.014     1.801     4.483      -0.048
  17      15.406    11.097    15.766      -0.273
  18      13.575     9.443    13.976      -0.296
  19      14.879    10.525    14.975      -0.291
  20      13.065     8.754    13.155      -0.328
  21      13.412     9.173    13.551      -0.313
  22      14.417    10.182    14.812      -0.286
  23      13.461     9.285    13.551      -0.308
  24      14.849    10.743    15.035      -0.273
  25      99.890    97.133   100.390      -0.027
  26      92.603    92.288    94.281      -0.003
  27      93.793    92.342    94.468      -0.015
  28      97.382    94.479    98.245      -0.030
  29      95.747    94.438    97.007      -0.013
  30      97.532    95.907   100.083      -0.016
  31      97.095    96.670    97.633      -0.004
  32      95.100    92.534    97.861      -0.026
  33      97.991    97.508    99.290      -0.005
  34      98.079    96.825    99.433      -0.013
  35      99.171    96.327   100.131      -0.028
  36      96.608    93.244    97.750      -0.034
  37      94.231    93.340    94.518      -0.009
  38      96.446    95.566    98.034      -0.009
  39     100.284    98.941   100.846      -0.013
  40      92.649    90.613    94.230      -0.022
  41       6.018     2.122    16.056      -0.243
  42       2.589    -0.953    12.661      -0.280
  43       5.917     2.158    16.045      -0.234
  44       2.956    -0.338    13.488      -0.244
  45      -2.121    -0.177     9.431       0.206
  46       3.515     0.311    15.213      -0.211
  47       3.619    -0.933    13.416      -0.339
  48       4.437     0.785    15.027      -0.243
  49       5.541    -0.202    15.012      -0.383
  50       7.847     1.439    18.633      -0.344
  51       2.502    -0.685    15.981      -0.199
  52       6.898     1.699    16.951      -0.307
  53       9.471     2.313    18.509      -0.387
  54       5.550     2.089    15.277      -0.227
  55       2.373    -1.190    13.294      -0.268
  56       4.749     0.745    15.586      -0.257
  57       5.243    -0.291    14.810      -0.374
  58       5.158     2.726    15.127      -0.161
  59       2.276     0.387    14.191      -0.133
  60       6.084     0.152    14.883      -0.399
  61       6.442     1.829    16.665      -0.277
  62       5.703     0.758    18.937      -0.261
  63       1.843    -1.331    10.973      -0.289
  64       6.146     2.587    16.229      -0.219
  65       4.259     1.005    14.616      -0.223
  66       2.227    -0.914    12.231      -0.257
  67       7.213     1.896    18.838      -0.282
  68       4.841     1.941    15.840      -0.183
  69       5.034    -0.742    12.987      -0.445
  70       6.178     1.365    15.882      -0.303
  71       6.629     1.728    16.613      -0.295
  72       3.352     0.505    15.983      -0.178
  73       7.012     1.551    15.475      -0.353
  74       4.246     1.252    14.258      -0.210
  75       2.525    -0.922    13.318      -0.259
  76      10.231     3.598    20.276      -0.327
  77       7.221     2.806    17.516      -0.252
  78       5.771     0.574    17.032      -0.305
  79       6.098     2.382    15.855      -0.234
  80       7.994     4.558    18.751      -0.183
  81       8.968     2.910    20.264      -0.299
  82       8.317     2.408    21.461      -0.275
  83       5.600     2.928    14.953      -0.179
  84       8.160     4.712    19.569      -0.176
  85       2.987    -1.212    16.477      -0.255
  86       3.244     0.524    13.446      -0.202
  87       7.041     1.170    16.266      -0.361
  88       6.551     2.519    14.696      -0.274
 ---------------------------------------------------------------------



--------------------------------------------------------------------------------------------------------


 stress matrix after NEB project (eV)
    -47.94201     -2.66815      0.79768
     -2.66972    -46.90098     -1.87399
      0.77745     -1.89251    -61.75119
  FORCES: max atom, RMS     2.319518    1.072119
  FORCE total and by dimension   10.057369    1.751725
  Stress total and by dimension   91.290347   61.751186
     LOOP+:  cpu time  585.0276: real time  586.2052
    4ORBIT:  cpu time    0.0000: real time    0.0000
 


 total charge     
 
# of ion       s       p       d       tot
------------------------------------------
    1        0.050   5.994   0.000   6.045
    2        0.048   5.992   0.000   6.040
    3        0.052   5.994   0.000   6.046
    4        0.049   5.993   0.000   6.043
    5        0.051   5.994   0.000   6.045
    6        0.049   5.992   0.000   6.040
    7        0.051   5.993   0.000   6.044
    8        0.051   5.995   0.000   6.046
    9        0.049   5.992   0.000   6.041
   10        0.050   5.992   0.000   6.043
   11        0.054   5.997   0.000   6.051
   12        0.048   5.991   0.000   6.039
   13        0.051   5.993   0.000   6.045
   14        0.052   5.995   0.000   6.047
   15        0.052   5.995   0.000   6.047
   16        0.048   5.990   0.000   6.038
   17        0.148   6.126   0.082   6.356
   18        0.153   6.133   0.087   6.372
   19        0.148   6.126   0.082   6.356
   20        0.151   6.133   0.088   6.372
   21        0.148   6.127   0.083   6.357
   22        0.150   6.131   0.086   6.367
   23        0.144   6.119   0.076   6.339
   24        0.142   6.114   0.072   6.329
   25        0.366   6.437   4.808  11.611
   26        0.384   6.474   4.842  11.700
   27        0.375   6.453   4.828  11.656
   28        0.365   6.432   4.800  11.597
   29        0.382   6.468   4.846  11.695
   30        0.379   6.464   4.833  11.676
   31        0.380   6.465   4.840  11.685
   32        0.384   6.472   4.851  11.708
   33        0.376   6.453   4.840  11.669
   34        0.372   6.448   4.820  11.641
   35        0.370   6.445   4.821  11.636
   36        0.376   6.464   4.843  11.683
   37        0.391   6.488   4.865  11.744
   38        0.368   6.441   4.812  11.621
   39        0.353   6.410   4.786  11.549
   40        0.386   6.478   4.850  11.714
   41        1.599   3.516   0.000   5.115
   42        1.596   3.493   0.000   5.089
   43        1.598   3.499   0.000   5.097
   44        1.599   3.491   0.000   5.090
   45        1.598   3.514   0.000   5.112
   46        1.601   3.508   0.000   5.110
   47        1.598   3.470   0.000   5.068
   48        1.599   3.525   0.000   5.124
   49        1.602   3.515   0.000   5.117
   50        1.601   3.523   0.000   5.124
   51        1.599   3.494   0.000   5.093
   52        1.599   3.490   0.000   5.089
   53        1.603   3.520   0.000   5.123
   54        1.595   3.490   0.000   5.085
   55        1.598   3.518   0.000   5.116
   56        1.599   3.513   0.000   5.112
   57        1.598   3.480   0.000   5.078
   58        1.598   3.500   0.000   5.098
   59        1.599   3.509   0.000   5.107
   60        1.598   3.519   0.000   5.117
   61        1.599   3.520   0.000   5.119
   62        1.601   3.489   0.000   5.090
   63        1.597   3.493   0.000   5.090
   64        1.600   3.495   0.000   5.095
   65        1.596   3.478   0.000   5.074
   66        1.598   3.527   0.000   5.125
   67        1.603   3.504   0.000   5.107
   68        1.599   3.501   0.000   5.101
   69        1.596   3.494   0.000   5.090
   70        1.597   3.497   0.000   5.094
   71        1.600   3.522   0.000   5.122
   72        1.599   3.497   0.000   5.096
   73        1.597   3.508   0.000   5.105
   74        1.596   3.500   0.000   5.096
   75        1.599   3.501   0.000   5.100
   76        1.603   3.531   0.000   5.134
   77        1.601   3.530   0.000   5.131
   78        1.602   3.505   0.000   5.106
   79        1.596   3.499   0.000   5.095
   80        1.601   3.472   0.000   5.073
   81        1.603   3.534   0.000   5.136
   82        1.605   3.489   0.000   5.094
   83        1.598   3.496   0.000   5.094
   84        1.598   3.482   0.000   5.080
   85        1.603   3.494   0.000   5.096
   86        1.598   3.504   0.000   5.101
   87        1.600   3.522   0.000   5.122
   88        1.597   3.513   0.000   5.110
--------------------------------------------------
tot         84.756 416.376  77.941 579.073
 


 magnetization (x)
 
# of ion       s       p       d       tot
------------------------------------------
    1        0.001   0.001   0.000   0.001
    2        0.002   0.000   0.000   0.002
    3        0.002   0.000   0.000   0.002
    4        0.001   0.001   0.000   0.002
    5        0.002   0.000   0.000   0.002
    6        0.001   0.000   0.000   0.001
    7        0.002  -0.000   0.000   0.002
    8        0.001   0.001   0.000   0.002
    9        0.001   0.001   0.000   0.002
   10        0.002   0.000   0.000   0.002
   11        0.002   0.000   0.000   0.002
   12        0.002   0.000   0.000   0.002
   13        0.002   0.000   0.000   0.002
   14        0.001   0.000   0.000   0.002
   15        0.002   0.000   0.000   0.002
   16        0.002   0.001   0.000   0.003
   17        0.008   0.003   0.001   0.012
   18        0.007   0.002   0.001   0.010
   19        0.008   0.002   0.001   0.011
   20        0.007   0.002   0.001   0.010
   21        0.007   0.002   0.001   0.009
   22        0.007   0.003   0.001   0.011
   23        0.007   0.002   0.001   0.010
   24        0.008   0.002   0.001   0.011
   25        0.016   0.030   2.787   2.833
   26        0.014   0.030   2.731   2.776
   27        0.015   0.029   2.765   2.809
   28        0.015   0.029   2.786   2.830
   29        0.015   0.030   2.741   2.786
   30        0.016   0.031   2.752   2.798
   31        0.015   0.032   2.741   2.788
   32        0.015   0.030   2.729   2.774
   33        0.015   0.031   2.747   2.793
   34        0.016   0.031   2.764   2.811
   35        0.016   0.030   2.762   2.807
   36        0.016   0.032   2.732   2.780
   37        0.015   0.030   2.721   2.766
   38        0.015   0.030   2.771   2.816
   39        0.016   0.029   2.812   2.857
   40        0.014   0.030   2.726   2.770
   41        0.002   0.041   0.000   0.043
   42        0.001   0.016   0.000   0.018
   43        0.002   0.039   0.000   0.041
   44        0.002   0.004   0.000   0.005
   45        0.001  -0.001   0.000  -0.001
   46        0.002   0.020   0.000   0.022
   47        0.002   0.012   0.000   0.013
   48        0.002   0.034   0.000   0.036
   49        0.002   0.033   0.000   0.035
   50        0.002   0.056   0.000   0.058
   51        0.002   0.020   0.000   0.022
   52        0.002   0.037   0.000   0.039
   53        0.003   0.056   0.000   0.058
   54        0.002   0.028   0.000   0.030
   55        0.001   0.021   0.000   0.023
   56        0.002   0.037   0.000   0.039
   57        0.002   0.020   0.000   0.022
   58        0.002   0.035   0.000   0.037
   59        0.002   0.021   0.000   0.022
   60        0.002   0.039   0.000   0.041
   61        0.002   0.046   0.000   0.048
   62        0.002   0.044   0.000   0.046
   63        0.001   0.001   0.000   0.002
   64        0.002   0.036   0.000   0.038
   65        0.002   0.019   0.000   0.021
   66        0.001   0.019   0.000   0.020
   67        0.003   0.043   0.000   0.046
   68        0.002   0.028   0.000   0.030
   69        0.002   0.026   0.000   0.027
   70        0.002   0.036   0.000   0.038
   71        0.002   0.043   0.000   0.045
   72        0.002   0.023   0.000   0.024
   73        0.002   0.039   0.000   0.041
   74        0.002   0.025   0.000   0.026
   75        0.002   0.012   0.000   0.014
   76        0.003   0.074   0.000   0.076
   77        0.002   0.052   0.000   0.055
   78        0.002   0.034   0.000   0.036
   79        0.002   0.037   0.000   0.039
   80        0.003   0.035   0.000   0.038
   81        0.002   0.070   0.000   0.072
   82        0.003   0.061   0.000   0.063
   83        0.002   0.028   0.000   0.030
   84        0.003   0.057   0.000   0.060
   85        0.002   0.018   0.000   0.020
   86        0.002   0.015   0.000   0.017
   87        0.002   0.044   0.000   0.046
   88        0.002   0.039   0.000   0.041
--------------------------------------------------
tot          0.422   2.079  44.075  46.576
 

 total amount of memory used by VASP MPI-rank0    88187. kBytes
=======================================================================

   base      :      30000. kBytes
   nonlr-proj:      13678. kBytes
   fftplans  :        992. kBytes
   grid      :      21513. kBytes
   one-center:       2737. kBytes
   wavefun   :      19267. kBytes
 
  
  
 General timing and accounting informations for this job:
 ========================================================
  
                  Total CPU time used (sec):      603.714
                            User time (sec):      598.215
                          System time (sec):        5.499
                         Elapsed time (sec):      607.709
  
                   Maximum memory used (kb):      182436.
                   Average memory used (kb):           0.
  
                          Minor page faults:       304883
                          Major page faults:            0
                 Voluntary context switches:         3645
