 vasp.5.4.4.18Apr17-6-g9f103f2a35 (build Dec 02 2020 12:53:39) complex          
  
 executed on             LinuxIFC date 2021.07.31  06:02:15
 running on  112 total cores
 distrk:  each k-point on  112 cores,    1 groups
 distr:  one band on NCORES_PER_BAND=   1 cores,  112 groups


--------------------------------------------------------------------------------------------------------


 INCAR:
 POTCAR:    PAW_PBE Na_pv 19Sep2006               
 POTCAR:    PAW_PBE Mg_pv 13Apr2007               
 POTCAR:    PAW_PBE Mn_pv 02Aug2007               
 POTCAR:    PAW_PBE O 08Apr2002                   

 ----------------------------------------------------------------------------- 
|                                                                             |
|           W    W    AA    RRRRR   N    N  II  N    N   GGGG   !!!           |
|           W    W   A  A   R    R  NN   N  II  NN   N  G    G  !!!           |
|           W    W  A    A  R    R  N N  N  II  N N  N  G       !!!           |
|           W WW W  AAAAAA  RRRRR   N  N N  II  N  N N  G  GGG   !            |
|           WW  WW  A    A  R   R   N   NN  II  N   NN  G    G                |
|           W    W  A    A  R    R  N    N  II  N    N   GGGG   !!!           |
|                                                                             |
|      For optimal performance we recommend to set                            |
|        NCORE= 4 - approx SQRT( number of cores)                             |
|      NCORE specifies how many cores store one orbital (NPAR=cpu/NCORE).     |
|      This setting can  greatly improve the performance of VASP for DFT.     |
|      The default,   NCORE=1            might be grossly inefficient         |
|      on modern multi-core architectures or massively parallel machines.     |
|      Do your own testing !!!!                                               |
|      Unfortunately you need to use the default for GW and RPA calculations. |
|      (for HF NCORE is supported but not extensively tested yet)             |
|                                                                             |
 ----------------------------------------------------------------------------- 

 POTCAR:    PAW_PBE Na_pv 19Sep2006               
   VRHFIN =Na: p6s1                                                             
   LEXCH  = PE                                                                  
   EATOM  =   766.0439 eV,   56.3026 Ry                                         
                                                                                
   TITEL  = PAW_PBE Na_pv 19Sep2006                                             
   LULTRA =        F    use ultrasoft PP ?                                      
   IUNSCR =        1    unscreen: 0-lin 1-nonlin 2-no                           
   RPACOR =    1.800    partial core radius                                     
   POMASS =   22.990; ZVAL   =    7.000    mass and valenz                      
   RCORE  =    2.200    outmost cutoff radius                                   
   RWIGS  =    2.200; RWIGS  =    1.164    wigner-seitz radius (au A)           
   ENMAX  =  259.561; ENMIN  =  194.671 eV                                      
   ICORE  =        2    local potential                                         
   LCOR   =        T    correct aug charges                                     
   LPAW   =        T    paw PP                                                  
   EAUG   =  368.056                                                            
   DEXC   =    0.000                                                            
   RMAX   =    2.245    core radius for proj-oper                               
   RAUG   =    1.300    factor for augmentation sphere                          
   RDEP   =    2.259    radius for radial grids                                 
   RDEPT  =    1.738    core radius for aug-charge                              
                                                                                
   Atomic configuration                                                         
    5 entries                                                                   
     n  l   j            E        occ.                                          
     1  0  0.50     -1033.6933   2.0000                                         
     2  0  0.50       -56.7526   2.0000                                         
     2  1  1.50       -28.6721   6.0000                                         
     3  0  0.50        -2.7440   1.0000                                         
     3  2  1.50        -1.3606   0.0000                                         
   Description                                                                  
     l       E           TYP  RCUT    TYP  RCUT                                 
     1    -28.6720912     23  2.000                                             
     1      6.8029130     23  2.000                                             
     0     -2.7439560     23  2.200                                             
     0     34.0145650     23  2.200                                             
     2     -1.3605826     23  2.200                                             
  local pseudopotential read in
  partial core-charges read in
  partial kinetic energy density read in
  atomic valenz-charges read in
  non local Contribution for L=           1  read in
    real space projection operators read in
  non local Contribution for L=           1  read in
    real space projection operators read in
  non local Contribution for L=           0  read in
    real space projection operators read in
  non local Contribution for L=           0  read in
    real space projection operators read in
    PAW grid and wavefunctions read in
 
   number of l-projection  operators is LMAX  =           4
   number of lm-projection operators is LMMAX =           8
 
 POTCAR:    PAW_PBE Mg_pv 13Apr2007               
   VRHFIN =Mg: p6s2                                                             
   LEXCH  = PE                                                                  
   EATOM  =  1056.7344 eV,   77.6678 Ry                                         
                                                                                
   TITEL  = PAW_PBE Mg_pv 13Apr2007                                             
   LULTRA =        F    use ultrasoft PP ?                                      
   IUNSCR =        1    unscreen: 0-lin 1-nonlin 2-no                           
   RPACOR =    1.500    partial core radius                                     
   POMASS =   24.305; ZVAL   =    8.000    mass and valenz                      
   RCORE  =    2.000    outmost cutoff radius                                   
   RWIGS  =    2.000; RWIGS  =    1.058    wigner-seitz radius (au A)           
   ENMAX  =  403.929; ENMIN  =  302.947 eV                                      
   RCLOC  =    1.506    cutoff for local pot                                    
   LCOR   =        T    correct aug charges                                     
   LPAW   =        T    paw PP                                                  
   EAUG   =  758.780                                                            
   DEXC   =    0.000                                                            
   RMAX   =    2.045    core radius for proj-oper                               
   RAUG   =    1.300    factor for augmentation sphere                          
   RDEP   =    2.025    radius for radial grids                                 
   RDEPT  =    1.557    core radius for aug-charge                              
                                                                                
   Atomic configuration                                                         
    5 entries                                                                   
     n  l   j            E        occ.                                          
     1  0  0.50     -1259.6230   2.0000                                         
     2  0  0.50       -79.8442   2.0000                                         
     2  1  1.50       -46.6121   6.0000                                         
     3  0  0.50        -4.7055   2.0000                                         
     3  2  1.50        -1.3606   0.0000                                         
   Description                                                                  
     l       E           TYP  RCUT    TYP  RCUT                                 
     1    -46.6121073     23  1.600                                             
     1      2.7211652     23  1.600                                             
     0     -4.7054661     23  2.000                                             
     0     61.2262170     23  2.000                                             
     2     -1.3605826     23  2.000                                             
  local pseudopotential read in
  partial core-charges read in
  partial kinetic energy density read in
  atomic valenz-charges read in
  non local Contribution for L=           1  read in
    real space projection operators read in
  non local Contribution for L=           1  read in
    real space projection operators read in
  non local Contribution for L=           0  read in
    real space projection operators read in
  non local Contribution for L=           0  read in
    real space projection operators read in
  non local Contribution for L=           2  read in
    real space projection operators read in
    PAW grid and wavefunctions read in
 
   number of l-projection  operators is LMAX  =           5
   number of lm-projection operators is LMMAX =          13
 
 POTCAR:    PAW_PBE Mn_pv 02Aug2007               
   VRHFIN =Mn: 3p4s3d                                                           
   LEXCH  = PE                                                                  
   EATOM  =  2025.2664 eV,  148.8529 Ry                                         
                                                                                
   TITEL  = PAW_PBE Mn_pv 02Aug2007                                             
   LULTRA =        F    use ultrasoft PP ?                                      
   IUNSCR =        1    unscreen: 0-lin 1-nonlin 2-no                           
   RPACOR =    2.080    partial core radius                                     
   POMASS =   54.938; ZVAL   =   13.000    mass and valenz                      
   RCORE  =    2.300    outmost cutoff radius                                   
   RWIGS  =    2.500; RWIGS  =    1.323    wigner-seitz radius (au A)           
   ENMAX  =  269.864; ENMIN  =  202.398 eV                                      
   ICORE  =        3    local potential                                         
   LCOR   =        T    correct aug charges                                     
   LPAW   =        T    paw PP                                                  
   EAUG   =  569.085                                                            
   DEXC   =    0.000                                                            
   RMAX   =    2.343    core radius for proj-oper                               
   RAUG   =    1.300    factor for augmentation sphere                          
   RDEP   =    2.338    radius for radial grids                                 
   RDEPT  =    1.798    core radius for aug-charge                              
                                                                                
   Atomic configuration                                                         
    8 entries                                                                   
     n  l   j            E        occ.                                          
     1  0  0.50     -6424.8287   2.0000                                         
     2  0  0.50      -739.1154   2.0000                                         
     2  1  1.50      -625.3949   6.0000                                         
     3  0  0.50       -81.6100   2.0000                                         
     3  1  1.50       -50.4667   6.0000                                         
     3  2  2.50        -3.3745   6.0000                                         
     4  0  0.50        -4.1331   1.0000                                         
     4  3  2.50        -1.3606   0.0000                                         
   Description                                                                  
     l       E           TYP  RCUT    TYP  RCUT                                 
     1    -50.4666628     23  2.000                                             
     1     -1.3605826     23  2.000                                             
     2     -3.3744729     23  2.300                                             
     2     -4.7350555     23  2.300                                             
     0     -4.1331431     23  2.300                                             
     0      7.6656591     23  2.300                                             
     3      9.5240782     23  2.300                                             
  local pseudopotential read in
  partial core-charges read in
  partial kinetic energy density read in
  atomic valenz-charges read in
  non local Contribution for L=           1  read in
    real space projection operators read in
  non local Contribution for L=           1  read in
    real space projection operators read in
  non local Contribution for L=           2  read in
    real space projection operators read in
  non local Contribution for L=           2  read in
    real space projection operators read in
  non local Contribution for L=           0  read in
    real space projection operators read in
  non local Contribution for L=           0  read in
    real space projection operators read in
    PAW grid and wavefunctions read in
 
   number of l-projection  operators is LMAX  =           6
   number of lm-projection operators is LMMAX =          18
 
 POTCAR:    PAW_PBE O 08Apr2002                   
   VRHFIN =O: s2p4                                                              
   LEXCH  = PE                                                                  
   EATOM  =   432.3788 eV,   31.7789 Ry                                         
                                                                                
   TITEL  = PAW_PBE O 08Apr2002                                                 
   LULTRA =        F    use ultrasoft PP ?                                      
   IUNSCR =        1    unscreen: 0-lin 1-nonlin 2-no                           
   RPACOR =    1.200    partial core radius                                     
   POMASS =   16.000; ZVAL   =    6.000    mass and valenz                      
   RCORE  =    1.520    outmost cutoff radius                                   
   RWIGS  =    1.550; RWIGS  =    0.820    wigner-seitz radius (au A)           
   ENMAX  =  400.000; ENMIN  =  300.000 eV                                      
   ICORE  =        2    local potential                                         
   LCOR   =        T    correct aug charges                                     
   LPAW   =        T    paw PP                                                  
   EAUG   =  605.392                                                            
   DEXC   =    0.000                                                            
   RMAX   =    1.553    core radius for proj-oper                               
   RAUG   =    1.300    factor for augmentation sphere                          
   RDEP   =    1.550    radius for radial grids                                 
   RDEPT  =    1.329    core radius for aug-charge                              
                                                                                
   Atomic configuration                                                         
    4 entries                                                                   
     n  l   j            E        occ.                                          
     1  0  0.50      -514.6923   2.0000                                         
     2  0  0.50       -23.9615   2.0000                                         
     2  1  0.50        -9.0305   4.0000                                         
     3  2  1.50        -9.5241   0.0000                                         
   Description                                                                  
     l       E           TYP  RCUT    TYP  RCUT                                 
     0    -23.9615318     23  1.200                                             
     0     -9.5240782     23  1.200                                             
     1     -9.0304911     23  1.520                                             
     1      8.1634956     23  1.520                                             
     2     -9.5240782      7  1.500                                             
  local pseudopotential read in
  partial core-charges read in
  partial kinetic energy density read in
  kinetic energy density of atom read in
  atomic valenz-charges read in
  non local Contribution for L=           0  read in
    real space projection operators read in
  non local Contribution for L=           0  read in
    real space projection operators read in
  non local Contribution for L=           1  read in
    real space projection operators read in
  non local Contribution for L=           1  read in
    real space projection operators read in
    PAW grid and wavefunctions read in
 
   number of l-projection  operators is LMAX  =           4
   number of lm-projection operators is LMMAX =           8
 
 Optimization of the real space projectors (new method)

 maximal supplied QI-value         = 17.01
 optimisation between [QCUT,QGAM] = [ 10.20, 20.41] = [ 29.16,116.64] Ry 
 Optimized for a Real-space Cutoff    1.30 Angstroem

   l    n(q)    QCUT    max X(q) W(low)/X(q) W(high)/X(q)  e(spline) 
   1      7    10.205     4.940    0.23E-03    0.84E-03    0.11E-06
   1      7    10.205     6.253    0.40E-03    0.13E-02    0.18E-06
   0      8    10.205    37.438    0.23E-03    0.37E-03    0.42E-07
   0      8    10.205     9.606    0.16E-03    0.26E-03    0.31E-07
 Optimization of the real space projectors (new method)

 maximal supplied QI-value         = 18.90
 optimisation between [QCUT,QGAM] = [ 10.20, 20.41] = [ 29.16,116.64] Ry 
 Optimized for a Real-space Cutoff    1.26 Angstroem

   l    n(q)    QCUT    max X(q) W(low)/X(q) W(high)/X(q)  e(spline) 
   1      7    10.205     2.974    0.63E-04    0.14E-03    0.13E-06
   1      7    10.205     4.279    0.11E-03    0.45E-03    0.24E-06
   0      8    10.205    16.381    0.44E-03    0.15E-03    0.55E-07
   0      8    10.205     5.611    0.31E-03    0.11E-03    0.40E-07
   2      7    10.205     4.652    0.50E-03    0.47E-03    0.57E-07
 Optimization of the real space projectors (new method)

 maximal supplied QI-value         = 16.25
 optimisation between [QCUT,QGAM] = [ 10.24, 20.48] = [ 29.35,117.42] Ry 
 Optimized for a Real-space Cutoff    1.34 Angstroem

   l    n(q)    QCUT    max X(q) W(low)/X(q) W(high)/X(q)  e(spline) 
   1      8    10.239     3.658    0.23E-03    0.30E-03    0.98E-07
   1      8    10.239     5.612    0.32E-03    0.65E-03    0.21E-06
   2      7    10.239    55.373    0.42E-03    0.45E-03    0.65E-07
   2      7    10.239    50.863    0.43E-03    0.48E-03    0.67E-07
   0      8    10.239    79.536    0.11E-03    0.21E-03    0.56E-07
   0      8    10.239    38.668    0.96E-04    0.19E-03    0.52E-07
 Optimization of the real space projectors (new method)

 maximal supplied QI-value         = 24.76
 optimisation between [QCUT,QGAM] = [ 10.15, 20.30] = [ 28.85,115.39] Ry 
 Optimized for a Real-space Cutoff    1.38 Angstroem

   l    n(q)    QCUT    max X(q) W(low)/X(q) W(high)/X(q)  e(spline) 
   0      8    10.150    20.381    0.22E-03    0.32E-03    0.29E-06
   0      8    10.150    15.268    0.23E-03    0.35E-03    0.30E-06
   1      8    10.150     5.964    0.46E-03    0.53E-03    0.21E-06
   1      8    10.150     5.382    0.38E-03    0.45E-03    0.19E-06
  PAW_PBE Na_pv 19Sep2006               :
 energy of atom  1       EATOM= -766.0439
 kinetic energy error for atom=    0.0103 (will be added to EATOM!!)
  PAW_PBE Mg_pv 13Apr2007               :
 energy of atom  2       EATOM=-1056.7344
 kinetic energy error for atom=    0.0820 (will be added to EATOM!!)
  PAW_PBE Mn_pv 02Aug2007               :
 energy of atom  3       EATOM=-2025.2664
 kinetic energy error for atom=    0.0284 (will be added to EATOM!!)
  PAW_PBE O 08Apr2002                   :
 energy of atom  4       EATOM= -432.3788
 kinetic energy error for atom=    0.1156 (will be added to EATOM!!)
 
 
 POSCAR: Na Mg Mn  O                             
  positions in cartesian coordinates
  No initial velocities read in

 METAGGA = SCAN     LMAXTAU =  6    LMIXTAU =  F

 exchange correlation table for  LEXCH =        8
   RHO(1)=    0.500       N(1)  =     2000
   RHO(2)=  100.500       N(2)  =     4000

 VTST: version 3.2, (02/03/18)

 CHAIN: initializing optimizer
 
 OPT: Using VASP Dynamics algorithm
 CHAIN: Read ICHAIN            0
 
 POSCAR: Na Mg Mn  O                             
  positions in cartesian coordinates
  No initial velocities read in
 


--------------------------------------------------------------------------------------------------------


 ion  position               nearest neighbor table
   1  0.316  0.259  0.242-  43 2.20  41 2.26  52 2.28  26 2.90
   2  0.331  0.007  0.740-  46 2.20  81 2.26  49 2.36
   3  0.438  0.774  0.752-  85 2.26  82 2.33  84 2.35
   4  0.817  0.980  0.741-  72 2.22  58 2.34  56 2.35  69 2.37
   5  0.806  0.276  0.266-  64 2.25  62 2.30
   6  0.972  0.007  0.245-  50 2.34  54 2.34  25 2.83  27 2.93
   7  0.011  0.474  0.762-  83 2.22  60 2.27  80 2.34  37 2.79
   8  0.667  0.200  0.748-  57 2.25  46 2.31
   9  0.649  0.480  0.244-  66 2.26  43 2.27
  10  0.998  0.687  0.258-  86 2.27  76 2.27
  11  0.511  0.715  0.247-  88 2.27  65 2.29  74 2.32
  12  0.153  0.248  0.753-  45 2.24  61 2.24  58 2.31  48 2.34
  13  0.946  0.781  0.745-  73 2.21  72 2.35  70 2.36
  14  0.505  0.480  0.756-  71 2.21  68 2.26  48 2.36  33 2.92  35 2.93
  15  0.144  0.480  0.255-  87 2.27  64 2.38
  16  0.457  0.009  0.244-  42 2.26  79 2.28  51 2.34  29 2.84  31 2.89
  17  0.653  0.351  0.990-  60 1.94  53 2.04  71 2.05  49 2.08  66 2.08  43 2.11
  18  0.296  0.143  0.500-  51 2.02  44 2.04  52 2.04  50 2.05  45 2.10  46 2.19  27 2.83
  19  0.156  0.357  0.007-  55 1.98  48 1.99  41 2.00  78 2.06  83 2.09  61 2.21
  20  0.803  0.136  0.511-  56 1.93  63 1.97  58 2.03  57 2.12  64 2.13  62 2.18  40 2.80  27 2.84

  21  0.156  0.861  0.991-  47 1.94  67 2.03  84 2.07  73 2.08  42 2.13  77 2.17  25 2.81  29 2.82

  22  0.797  0.639  0.491-  69 2.01  76 2.07  70 2.09  74 2.09  75 2.09  68 2.10  28 2.80
  23  0.662  0.861  0.006-  65 2.00  54 2.03  59 2.07  79 2.09  85 2.15  72 2.17  25 2.83
  24  0.305  0.645  0.500-  80 2.01  82 2.01  88 2.06  86 2.09  87 2.17  81 2.20  35 2.82
  25  0.988  0.017  0.993-  72 1.84  47 1.89  41 1.93  67 1.93  61 1.97  54 2.02  21 2.81   6 2.83
                            23 2.83  34 2.88  26 2.89  30 2.93
  26  0.320  0.192  0.991-  47 1.89  42 1.90  48 1.90  49 1.91  41 1.92  43 1.99  25 2.89  29 2.89
                             1 2.90  33 2.95
  27  0.970  0.977  0.505-  58 1.88  76 1.88  69 1.89  63 1.90  44 1.96  50 2.02  18 2.83  20 2.84
                            36 2.86  40 2.88   6 2.93  32 2.94
  28  0.640  0.316  0.501-  68 1.84  62 1.88  46 1.93  57 1.93  75 1.97  52 2.00  22 2.80  39 2.88
                            31 2.91  35 2.94
  29  0.480  0.019  0.992-  84 1.82  53 1.87  49 1.91  79 1.92  42 1.96  59 2.01  21 2.82  16 2.84
                            38 2.87  26 2.89  30 2.99
  30  0.824  0.191  0.993-  54 1.87  55 1.90  53 1.91  61 1.92  60 1.95  59 1.99  25 2.93  37 2.94
                            29 2.99
  31  0.467  0.981  0.500-  51 1.79  81 1.88  88 1.90  62 1.91  46 1.96  56 2.09  16 2.89  36 2.89
                            28 2.91  40 2.94
  32  0.132  0.316  0.495-  64 1.81  80 1.85  50 1.91  87 1.92  58 1.96  45 2.00  39 2.85  35 2.89
                            27 2.94
  33  0.488  0.531  0.011-  85 1.79  71 1.89  78 1.92  43 1.95  48 2.00  65 2.00  38 2.80  34 2.88
                            14 2.92  26 2.95
  34  0.820  0.685  0.001-  71 1.87  67 1.89  73 1.90  66 1.98  65 1.98  72 2.02  37 2.78  25 2.88
                            33 2.88
  35  0.465  0.480  0.498-  45 1.88  74 1.93  82 1.94  68 1.95  52 1.95  87 1.97  24 2.82  32 2.89
                            40 2.90  14 2.93  28 2.94
  36  0.134  0.811  0.507-  70 1.86  86 1.90  81 1.92  44 1.95  76 1.96  51 1.98  39 2.84  27 2.86
                            31 2.89
  37  0.983  0.529  0.003-  73 1.85  66 1.91  60 1.92  55 1.95  83 1.96  77 1.96  34 2.78   7 2.79
                            30 2.94  38 2.96
  38  0.324  0.690  0.010-  83 1.83  78 1.84  77 1.89  84 1.94  85 1.94  79 1.95  33 2.80  29 2.87
                            37 2.96
  39  0.971  0.484  0.499-  70 1.86  57 1.87  86 1.90  80 1.91  75 1.91  64 1.98  36 2.84  32 2.85
                            28 2.88
  40  0.639  0.814  0.502-  63 1.89  88 1.91  69 1.92  74 1.94  82 1.94  56 2.08  20 2.80  27 2.88
                            35 2.90  31 2.94
  41  0.153  0.176  0.085-  26 1.92  25 1.93  19 2.00   1 2.26
  42  0.334  0.046  0.091-  26 1.90  29 1.96  21 2.13  16 2.26
  43  0.480  0.356  0.094-  33 1.95  26 1.99  17 2.11   1 2.20   9 2.27
  44  0.130  0.973  0.602-  36 1.95  27 1.96  18 2.04
  45  0.305  0.330  0.592-  35 1.88  32 2.00  18 2.10  12 2.24
  46  0.489  0.153  0.599-  28 1.93  31 1.96  18 2.19   2 2.20   8 2.31
  47  0.156  0.030  0.907-  25 1.89  26 1.89  21 1.94
  48  0.325  0.362  0.912-  26 1.90  19 1.99  33 2.00  12 2.34  14 2.36
  49  0.470  0.174  0.899-  26 1.91  29 1.91  17 2.08   2 2.36
  50  0.127  0.153  0.403-  32 1.91  27 2.02  18 2.05   6 2.34
  51  0.310  0.972  0.416-  31 1.79  36 1.98  18 2.02  16 2.34
  52  0.471  0.317  0.406-  35 1.95  28 2.00  18 2.04   1 2.28
  53  0.649  0.171  0.077-  29 1.87  30 1.91  17 2.04
  54  0.836  0.046  0.092-  30 1.87  25 2.02  23 2.03   6 2.34
  55  0.978  0.355  0.085-  30 1.90  37 1.95  19 1.98
  56  0.638  0.984  0.608-  20 1.93  40 2.08  31 2.09   4 2.35
  57  0.811  0.333  0.591-  39 1.87  28 1.93  20 2.12   8 2.25
  58  0.986  0.143  0.594-  27 1.88  32 1.96  20 2.03  12 2.31   4 2.34
  59  0.654  0.024  0.899-  30 1.99  29 2.01  23 2.07
  60  0.830  0.363  0.908-  37 1.92  17 1.94  30 1.95   7 2.27
  61  0.974  0.173  0.897-  30 1.92  25 1.97  19 2.21  12 2.24
  62  0.623  0.150  0.411-  28 1.88  31 1.91  20 2.18   5 2.30
  63  0.806  0.972  0.417-  40 1.89  27 1.90  20 1.97
  64  0.979  0.318  0.409-  32 1.81  39 1.98  20 2.13   5 2.25  15 2.38
  65  0.664  0.695  0.104-  34 1.98  33 2.00  23 2.00  11 2.29
  66  0.821  0.521  0.098-  37 1.91  34 1.98  17 2.08   9 2.26
  67  0.979  0.851  0.087-  34 1.89  25 1.93  21 2.03
  68  0.620  0.460  0.589-  28 1.84  35 1.95  22 2.10  14 2.26
  69  0.805  0.813  0.586-  27 1.89  40 1.92  22 2.01   4 2.37
  70  0.977  0.643  0.588-  36 1.86  39 1.86  22 2.09  13 2.36
  71  0.648  0.536  0.919-  34 1.87  33 1.89  17 2.05  14 2.21
  72  0.843  0.862  0.899-  25 1.84  34 2.02  23 2.17   4 2.22  13 2.35
  73  0.972  0.673  0.908-  37 1.85  34 1.90  21 2.08  13 2.21
  74  0.618  0.646  0.402-  35 1.93  40 1.94  22 2.09  11 2.32
  75  0.809  0.464  0.398-  39 1.91  28 1.97  22 2.09
  76  0.980  0.827  0.410-  27 1.88  36 1.96  22 2.07  10 2.27
  77  0.158  0.681  0.097-  38 1.89  37 1.96  21 2.17
  78  0.329  0.539  0.100-  38 1.84  33 1.92  19 2.06
  79  0.482  0.868  0.095-  29 1.92  38 1.95  23 2.09  16 2.28
  80  0.128  0.468  0.584-  32 1.85  39 1.91  24 2.01   7 2.34
  81  0.307  0.837  0.597-  31 1.88  36 1.92  24 2.20   2 2.26
  82  0.477  0.647  0.594-  40 1.94  35 1.94  24 2.01   3 2.33
  83  0.163  0.546  0.921-  38 1.83  37 1.96  19 2.09   7 2.22
  84  0.337  0.853  0.909-  29 1.82  38 1.94  21 2.07   3 2.35
  85  0.475  0.668  0.917-  33 1.79  38 1.94  23 2.15   3 2.26
  86  0.125  0.651  0.410-  39 1.90  36 1.90  24 2.09  10 2.27
  87  0.297  0.460  0.395-  32 1.92  35 1.97  24 2.17  15 2.27
  88  0.484  0.828  0.413-  31 1.90  40 1.91  24 2.06  11 2.27
 
  LATTYP: Found a hexagonal cell.
 ALAT       =    10.0190000534
 C/A-ratio  =     1.1196726572
  
  Lattice vectors:
  
 A1 = (  10.0190000534,   0.0000000000,   0.0000000000)
 A2 = (  -5.0095000267,   8.6767085668,   0.0000000000)
 A3 = (   0.0000000000,   0.0000000000,  11.2180004120)


Analysis of symmetry for initial positions (statically):
=====================================================================
 Subroutine PRICEL returns:
 Original cell was already a primitive cell.
 

 Routine SETGRP: Setting up the symmetry group for a 
 hexagonal supercell.


 Subroutine GETGRP returns: Found  1 space group operations
 (whereof  1 operations were pure point group operations)
 out of a pool of 24 trial point group operations.


The static configuration has the point symmetry C_1 .


Analysis of symmetry for dynamics (positions and initial velocities):
=====================================================================
 Subroutine PRICEL returns:
 Original cell was already a primitive cell.
 

 Routine SETGRP: Setting up the symmetry group for a 
 hexagonal supercell.


 Subroutine GETGRP returns: Found  1 space group operations
 (whereof  1 operations were pure point group operations)
 out of a pool of 24 trial point group operations.


The dynamic configuration has the point symmetry C_1 .


Analysis of structural, dynamic, and magnetic symmetry:
=====================================================================
 Subroutine PRICEL returns:
 Original cell was already a primitive cell.
 

 Routine SETGRP: Setting up the symmetry group for a 
 hexagonal supercell.


 Subroutine GETGRP returns: Found  1 space group operations
 (whereof  1 operations were pure point group operations)
 out of a pool of 24 trial point group operations.


The magnetic configuration has the point symmetry C_1 .


 Subroutine INISYM returns: Found  1 space group operations
 (whereof  1 operations are pure point group operations),
 and found     1 'primitive' translations

 
 

Automatic generation of k-mesh.
 generate k-points for:    2    2    2
Space group operators:
 irot       det(A)        alpha          n_x          n_y          n_z        tau_x        tau_y        tau_z
    1     1.000000     0.000000     1.000000     0.000000     0.000000     0.000000     0.000000     0.000000
 
 Subroutine IBZKPT returns following result:
 ===========================================
 
 Found      8 irreducible k-points:
 
 Following reciprocal coordinates:
            Coordinates               Weight
  0.000000  0.000000  0.000000      1.000000
  0.500000 -0.000000 -0.000000      1.000000
  0.000000  0.500000  0.000000      1.000000
  0.500000  0.500000 -0.000000      1.000000
  0.000000  0.000000  0.500000      1.000000
  0.500000 -0.000000  0.500000      1.000000
  0.000000  0.500000  0.500000      1.000000
  0.500000  0.500000  0.500000      1.000000
 
 Following cartesian coordinates:
            Coordinates               Weight
  0.000000  0.000000  0.000000      1.000000
  0.049905  0.028813 -0.000000      1.000000
  0.000000  0.057626  0.000000      1.000000
  0.049905  0.086438 -0.000000      1.000000
  0.000000  0.000000  0.044571      1.000000
  0.049905  0.028813  0.044571      1.000000
  0.000000  0.057626  0.044571      1.000000
  0.049905  0.086438  0.044571      1.000000
 


--------------------------------------------------------------------------------------------------------




 Dimension of arrays:
   k-points           NKPTS =      8   k-points in BZ     NKDIM =      8   number of bands    NBANDS=    448
   number of dos      NEDOS =    301   number of ions     NIONS =     88
   non local maximal  LDIM  =      6   non local SUM 2l+1 LMDIM =     18
   total plane-waves  NPLWV = 140000
   max r-space proj   IRMAX =   1632   max aug-charges    IRDMAX=   4555
   dimension x,y,z NGX =    50 NGY =   50 NGZ =   56
   dimension x,y,z NGXF=   100 NGYF=  100 NGZF=  112
   support grid    NGXF=   100 NGYF=  100 NGZF=  112
   ions per type =              16   8  16  48
   NGX,Y,Z   is equivalent  to a cutoff of   8.30,  8.30,  8.30 a.u.
   NGXF,Y,Z  is equivalent  to a cutoff of  16.59, 16.59, 16.60 a.u.

 SYSTEM =  unknown system                          
 POSCAR =  Na Mg Mn  O                             

 Startparameter for this run:
   NWRITE =      2    write-flag & timer
   PREC   = normal    normal or accurate (medium, high low for compatibility)
   ISTART =      0    job   : 0-new  1-cont  2-samecut
   ICHARG =      1    charge: 1-file 2-atom 10-const
   ISPIN  =      2    spin polarized calculation?
   LNONCOLLINEAR =      F non collinear calculations
   LSORBIT =      F    spin-orbit coupling
   INIWAV =      1    electr: 0-lowe 1-rand  2-diag
   LASPH  =      T    aspherical Exc in radial PAW
   METAGGA=      F    non-selfconsistent MetaGGA calc.

 Electronic Relaxation 1
   ENCUT  =  400.0 eV  29.40 Ry    5.42 a.u.  16.34 16.34 18.29*2*pi/ulx,y,z
   ENINI  =  400.0     initial cutoff
   ENAUG  =  758.8 eV  augmentation charge cutoff
   NELM   =    200;   NELMIN=  6; NELMDL=-12     # of ELM steps 
   EDIFF  = 0.1E-04   stopping-criterion for ELM
   LREAL  =      T    real-space projection
   NLSPLINE    = F    spline interpolate recip. space projectors
   LCOMPAT=      F    compatible to vasp.4.4
   GGA_COMPAT  = T    GGA compatible to vasp.4.4-vasp.4.6
   LMAXPAW     = -100 max onsite density
   LMAXMIX     =    4 max onsite mixed and CHGCAR
   VOSKOWN=      0    Vosko Wilk Nusair interpolation
   ROPT   =   -0.00050  -0.00050  -0.00050  -0.00050
 Ionic relaxation
   EDIFFG = 0.1E-03   stopping-criterion for IOM
   NSW    =      1    number of steps for IOM
   NBLOCK =      1;   KBLOCK =      1    inner block; outer block 
   IBRION =     -1    ionic relax: 0-MD 1-quasi-New 2-CG
   NFREE  =      0    steps in history (QN), initial steepest desc. (CG)
   ISIF   =      2    stress and relaxation
   IWAVPR =     10    prediction:  0-non 1-charg 2-wave 3-comb
   ISYM   =      2    0-nonsym 1-usesym 2-fastsym
   LCORR  =      T    Harris-Foulkes like correction to forces

   POTIM  = 0.5000    time-step for ionic-motion
   TEIN   =    0.0    initial temperature
   TEBEG  =    0.0;   TEEND  =   0.0 temperature during run
   SMASS  =  -3.00    Nose mass-parameter (am)
   estimated Nose-frequenzy (Omega)   =  0.10E-29 period in steps =****** mass=  -0.229E-26a.u.
   SCALEE = 1.0000    scale energy and forces
   NPACO  =    256;   APACO  = 16.0  distance and # of slots for P.C.
   PSTRESS=    0.0 pullay stress

  Mass of Ions in am
   POMASS =  22.99 24.30 54.94 16.00
  Ionic Valenz
   ZVAL   =   7.00  8.00 13.00  6.00
  Atomic Wigner-Seitz radii
   RWIGS  =  -1.00 -1.00 -1.00 -1.00
  virtual crystal weights 
   VCA    =   1.00  1.00  1.00  1.00
   NELECT =     672.0000    total number of electrons
   NUPDOWN=      48.0000    fix difference up-down

 DOS related values:
   EMIN   =  10.00;   EMAX   =-10.00  energy-range for DOS
   EFERMI =   0.00
   ISMEAR =     0;   SIGMA  =   0.05  broadening in eV -4-tet -1-fermi 0-gaus

 Electronic relaxation 2 (details)
   IALGO  =     48    algorithm
   LDIAG  =      T    sub-space diagonalisation (order eigenvalues)
   LSUBROT=      F    optimize rotation matrix (better conditioning)
   TURBO    =      0    0=normal 1=particle mesh
   IRESTART =      0    0=no restart 2=restart with 2 vectors
   NREBOOT  =      0    no. of reboots
   NMIN     =      0    reboot dimension
   EREF     =   0.00    reference energy to select bands
   IMIX   =      4    mixing-type and parameters
     AMIX     =   0.40;   BMIX     =  1.00
     AMIX_MAG =   1.60;   BMIX_MAG =  1.00
     AMIN     =   0.10
     WC   =   100.;   INIMIX=   1;  MIXPRE=   1;  MAXMIX= -45

 Intra band minimization:
   WEIMIN = 0.0000     energy-eigenvalue tresh-hold
   EBREAK =  0.56E-08  absolut break condition
   DEPER  =   0.30     relativ break condition  

   TIME   =   0.40     timestep for ELM

  volume/ion in A,a.u.               =      11.08        74.78
  Fermi-wavevector in a.u.,A,eV,Ry     =   1.445993  2.732531 28.448379  2.090897
  Thomas-Fermi vector in A             =   2.564112
 
 Write flags
   LWAVE        =      F    write WAVECAR
   LDOWNSAMPLE  =      F    k-point downsampling of WAVECAR
   LCHARG       =      F    write CHGCAR
   LVTOT        =      F    write LOCPOT, total local potential
   LVHAR        =      F    write LOCPOT, Hartree potential only
   LELF         =      F    write electronic localiz. function (ELF)
   LORBIT       =     11    0 simple, 1 ext, 2 COOP (PROOUT), +10 PAW based schemes


 Dipole corrections
   LMONO  =      F    monopole corrections only (constant potential shift)
   LDIPOL =      F    correct potential (dipole corrections)
   IDIPOL =      0    1-x, 2-y, 3-z, 4-all directions 
   EPSILON=  1.0000000 bulk dielectric constant

 Exchange correlation treatment:
   GGA     =    --    GGA type
   LEXCH   =     8    internal setting for exchange type
   VOSKOWN=      0    Vosko Wilk Nusair interpolation
   LHFCALC =     F    Hartree Fock is set to
   LHFONE  =     F    Hartree Fock one center treatment
   AEXX    =    0.0000 exact exchange contribution

 Linear response parameters
   LEPSILON=     F    determine dielectric tensor
   LRPA    =     F    only Hartree local field effects (RPA)
   LNABLA  =     F    use nabla operator in PAW spheres
   LVEL    =     F    velocity operator in full k-point grid
   LINTERFAST=   F  fast interpolation
   KINTER  =     0    interpolate to denser k-point grid
   CSHIFT  =0.1000    complex shift for real part using Kramers Kronig
   OMEGAMAX=  -1.0    maximum frequency
   DEG_THRESHOLD= 0.2000000E-02 threshold for treating states as degnerate
   RTIME   =   -0.100 relaxation time in fs
  (WPLASMAI=    0.000 imaginary part of plasma frequency in eV, 0.658/RTIME)
   DFIELD  = 0.0000000 0.0000000 0.0000000 field for delta impulse in time
 
 Orbital magnetization related:
   ORBITALMAG=     F  switch on orbital magnetization
   LCHIMAG   =     F  perturbation theory with respect to B field
   DQ        =  0.001000  dq finite difference perturbation B field
   LLRAUG    =     F  two centre corrections for induced B field



--------------------------------------------------------------------------------------------------------


 Static calculation
 charge density and potential will be updated during run
 spin polarized calculation
 RMM-DIIS sequential band-by-band
 perform sub-space diagonalisation
    before iterative eigenvector-optimisation
 modified Broyden-mixing scheme, WC =      100.0
 initial mixing is a Kerker type mixing with AMIX =  0.4000 and BMIX =      1.0000
 Hartree-type preconditioning will be used
 using additional bands          112
 real space projection scheme for non local part
 use partial core corrections
 calculate Harris-corrections to forces 
   (improved forces if not selfconsistent)
 use gradient corrections 
 use of overlap-Matrix (Vanderbilt PP)
 Gauss-broadening in eV      SIGMA  =   0.05


--------------------------------------------------------------------------------------------------------


  energy-cutoff  :      400.00
  volume of cell :      975.20
      direct lattice vectors                 reciprocal lattice vectors
    10.019000053  0.000000000  0.000000000     0.099810360  0.057625538 -0.000000000
    -5.009500027  8.676708567  0.000000000     0.000000000  0.115251076  0.000000000
     0.000000000  0.000000000 11.218000412     0.000000000  0.000000000  0.089142446

  length of vectors
    10.019000053 10.019000053 11.218000412     0.115251076  0.115251076  0.089142446


 
 k-points in units of 2pi/SCALE and weight: read from INCAR                         
   0.00000000  0.00000000  0.00000000       0.125
   0.04990518  0.02881277 -0.00000000       0.125
   0.00000000  0.05762554  0.00000000       0.125
   0.04990518  0.08643831 -0.00000000       0.125
   0.00000000  0.00000000  0.04457122       0.125
   0.04990518  0.02881277  0.04457122       0.125
   0.00000000  0.05762554  0.04457122       0.125
   0.04990518  0.08643831  0.04457122       0.125
 
 k-points in reciprocal lattice and weights: read from INCAR                         
   0.00000000  0.00000000  0.00000000       0.125
   0.50000000 -0.00000000 -0.00000000       0.125
   0.00000000  0.50000000  0.00000000       0.125
   0.50000000  0.50000000 -0.00000000       0.125
   0.00000000  0.00000000  0.50000000       0.125
   0.50000000 -0.00000000  0.50000000       0.125
   0.00000000  0.50000000  0.50000000       0.125
   0.50000000  0.50000000  0.50000000       0.125
 
 position of ions in fractional coordinates (direct lattice) 
   0.31574366  0.25918469  0.24240862
   0.33084533  0.00650153  0.73965499
   0.43814972  0.77424734  0.75188266
   0.81700077  0.97984045  0.74098767
   0.80624191  0.27582349  0.26557407
   0.97157802  0.00675480  0.24469780
   0.01052193  0.47442645  0.76247991
   0.66700078  0.19975662  0.74758600
   0.64942232  0.48040567  0.24376983
   0.99764645  0.68696672  0.25756284
   0.51141238  0.71481599  0.24702798
   0.15274073  0.24773120  0.75323763
   0.94563749  0.78137579  0.74525670
   0.50461309  0.48025123  0.75606612
   0.14362891  0.47985708  0.25540202
   0.45737270  0.00854257  0.24433321
   0.65345045  0.35085539  0.98995712
   0.29622874  0.14299547  0.49959617
   0.15580628  0.35717000  0.00728290
   0.80259385  0.13639043  0.51077106
   0.15596632  0.86073192  0.99088189
   0.79728721  0.63904993  0.49116418
   0.66217955  0.86104540  0.00628219
   0.30486462  0.64516630  0.50025760
   0.98809418  0.01663551  0.99313976
   0.32047077  0.19189074  0.99112116
   0.97037435  0.97725255  0.50450257
   0.63967921  0.31624434  0.50050988
   0.48044679  0.01935889  0.99153885
   0.82446713  0.19051925  0.99278834
   0.46681305  0.98130950  0.50020233
   0.13156308  0.31550443  0.49483329
   0.48801266  0.53085913  0.01101417
   0.81962817  0.68505931  0.00087616
   0.46452863  0.47971301  0.49775894
   0.13368336  0.81096189  0.50731055
   0.98304216  0.52850571  0.00292103
   0.32372939  0.68956678  0.00980121
   0.97113006  0.48379521  0.49898643
   0.63867782  0.81426153  0.50158939
   0.15329913  0.17590657  0.08513487
   0.33387981  0.04567757  0.09050454
   0.48022517  0.35597485  0.09404885
   0.13048829  0.97316741  0.60191921
   0.30513754  0.32986587  0.59232036
   0.48927525  0.15303499  0.59923959
   0.15590350  0.03005034  0.90687285
   0.32520847  0.36187916  0.91210551
   0.47014583  0.17368222  0.89855586
   0.12731415  0.15291974  0.40320109
   0.31000548  0.97205408  0.41609822
   0.47070878  0.31734730  0.40607950
   0.64932967  0.17051281  0.07686102
   0.83558914  0.04559690  0.09156177
   0.97759119  0.35489494  0.08539962
   0.63819647  0.98392264  0.60754499
   0.81144582  0.33264111  0.59059367
   0.98585419  0.14257134  0.59405150
   0.65401326  0.02444533  0.89872523
   0.82995039  0.36295099  0.90755033
   0.97400850  0.17329498  0.89697804
   0.62287204  0.14973650  0.41053841
   0.80559406  0.97206446  0.41692635
   0.97933455  0.31787860  0.40918790
   0.66401436  0.69467010  0.10413977
   0.82085125  0.52054071  0.09822695
   0.97857089  0.85063016  0.08652941
   0.61966487  0.46030588  0.58897306
   0.80458754  0.81286008  0.58645033
   0.97741378  0.64348710  0.58770010
   0.64765209  0.53578727  0.91861291
   0.84299040  0.86167698  0.89910854
   0.97205439  0.67340512  0.90834370
   0.61769742  0.64616438  0.40224192
   0.80870264  0.46410456  0.39784987
   0.97960905  0.82679970  0.40986984
   0.15786359  0.68067977  0.09740417
   0.32867814  0.53882529  0.10047156
   0.48228837  0.86799504  0.09498128
   0.12760748  0.46842186  0.58390620
   0.30729476  0.83656377  0.59748973
   0.47735312  0.64742407  0.59362362
   0.16343504  0.54556056  0.92103758
   0.33716322  0.85256638  0.90892313
   0.47524083  0.66830181  0.91696377
   0.12486533  0.65132763  0.41037706
   0.29662067  0.45986217  0.39455249
   0.48357266  0.82825301  0.41281421
 
 position of ions in cartesian coordinates  (Angst):
   1.86505000  2.24887000  2.71934000
   3.28217000  0.05641190  8.29745000
   0.51122997  6.71791857  8.43462000
   3.27702000  8.50179000  8.31240000
   6.69600000  2.39324000  2.97921000
   9.70040205  0.05860940  2.74502000
  -2.27122005  4.11646000  8.55350000
   5.68200005  1.73323000  8.38642000
   4.09997000  4.16834000  2.73461000
   6.55406005  5.96061000  2.88934000
   1.54297000  6.20225000  2.77116000
   0.28929997  2.14949143  8.44982000
   5.56004000  6.77977000  8.36029000
   2.64990000  4.16700000  8.48155000
  -0.96482600  4.16358000  2.86510000
   4.53962303  0.07412143  2.74093000
   4.78931000  3.04427000 11.10533941
   2.25158000  1.24073000  5.60447000
  -0.22822000  3.09906000  0.08169959
   7.35794000  1.18342000  5.72983000
  -2.74921000  7.46832000 11.11571341
   4.78670000  5.54485000  5.50988000
   2.32097000  7.47104000  0.07047360
  -0.17752200  5.59792000  5.61189000
   9.81638003  0.14434143 11.14104221
   2.24952000  1.66498000 11.11839761
   4.82663403  8.47933557  5.65951000
   4.82472000  2.74396000  5.61472000
   4.71661803  0.16797143 11.12308321
   7.30593000  1.65308000 11.13710000
  -0.23887003  8.51453657  5.61127000
  -0.26238900  2.73754000  5.55104000
   2.23006000  4.60611000  0.12355700
   4.78005000  5.94406000  0.00982877
   2.25099000  4.16233000  5.58386000
  -2.72314000  7.03648000  5.69101000
   7.20155005  4.58569000  0.03276810
  -0.21094000  5.98317000  0.10995000
   7.30618005  4.19775000  5.59763000
   2.31987000  7.06511000  5.62683000
   0.65470000  1.52629000  0.95504300
   3.11632000  0.39633100  1.01528000
   3.02812000  3.08869000  1.05504000
  -3.56772000  8.44389000  6.75233000
   1.40471000  2.86215000  6.64465000
   4.13542000  1.32784000  6.72227000
   1.41146000  0.26073800 10.17330000
   1.44543000  3.13992000 10.23200000
   3.84033000  1.50699000 10.08000000
   0.50950900  1.32684000  4.52311000
  -1.76356000  8.43423000  4.66779000
   3.12628000  2.75353000  4.55540000
   5.65145000  1.47949000  0.86222700
   8.14335000  0.39563100  1.02714000
   8.01664000  3.07932000  0.95801300
   1.46513000  8.53721000  6.81544000
   6.46351000  2.88623000  6.62528000
   9.16306205  1.23705000  6.66407000
   6.43010000  0.21210500 10.08190000
   6.49707000  3.14922000 10.18090000
   8.89047000  1.50363000 10.06230000
   5.49045000  1.29922000  4.60542000
   3.20169000  8.43432000  4.67708000
   8.21954005  2.75814000  4.59027000
   3.17281000  6.02745000  1.16824000
   5.61646000  4.51658000  1.10191000
   5.54307000  7.38067000  0.97068700
   3.90252000  3.99394000  6.60710000
   3.98914000  7.05295000  6.57880000
   6.56916005  5.58335000  6.59282000
   3.80480000  4.64887000 10.30500000
   4.12935000  7.47652000 10.08620000
   6.36559000  5.84294000 10.18980000
   2.95175000  5.60658000  4.51235000
   5.77746000  4.02690000  4.46308000
   5.67285005  7.17390000  4.59792000
  -1.82823000  5.90606000  1.09268000
   0.59378100  4.67523000  1.12709000
   0.48382600  7.53134000  1.06550000
  -1.06806000  4.06436000  6.55026000
  -1.11198000  7.25862000  6.70264000
   1.53933000  5.61751000  6.65927000
  -1.09553000  4.73367000 10.33220000
  -0.89289300  7.39747000 10.19630000
   1.41358000  5.79866000 10.28650000
  -2.01180000  5.65138000  4.60361000
   0.66816300  3.99009000  4.42609000
   0.69578100  7.18651000  4.63095000
 


--------------------------------------------------------------------------------------------------------


 k-point  1 :   0.0000 0.0000 0.0000  plane waves:   17725
 k-point  2 :   0.5000-0.0000-0.0000  plane waves:   17736
 k-point  3 :   0.0000 0.5000 0.0000  plane waves:   17736
 k-point  4 :   0.5000 0.5000-0.0000  plane waves:   17736
 k-point  5 :   0.0000 0.0000 0.5000  plane waves:   17676
 k-point  6 :   0.5000-0.0000 0.5000  plane waves:   17700
 k-point  7 :   0.0000 0.5000 0.5000  plane waves:   17700
 k-point  8 :   0.5000 0.5000 0.5000  plane waves:   17700

 maximum and minimum number of plane-waves per node :     17736    17676

 maximum number of plane-waves:     17736
 maximum index in each direction: 
   IXMAX=   16   IYMAX=   16   IZMAX=   18
   IXMIN=  -16   IYMIN=  -16   IZMIN=  -18


 serial   3D FFT for wavefunctions
 parallel 3D FFT for charge:
    minimum data exchange during FFTs selected (reduces bandwidth)


 total amount of memory used by VASP MPI-rank0    88181. kBytes
=======================================================================

   base      :      30000. kBytes
   nonlr-proj:      13672. kBytes
   fftplans  :        992. kBytes
   grid      :      21513. kBytes
   one-center:       2737. kBytes
   wavefun   :      19267. kBytes
 
     INWAV:  cpu time    0.0000: real time    0.0002
 Broyden mixing: mesh for mixing (old mesh)
   NGX = 33   NGY = 33   NGZ = 37
  (NGX  =100   NGY  =100   NGZ  =112)
  gives a total of  40293 points

 initial charge density was supplied:
 charge density of overlapping atoms calculated
 number of electron     672.0000000 magnetization      48.0000000
 keeping initial charge density in first step


--------------------------------------------------------------------------------------------------------


 Maximum index for non-local projection operator         1551
 Maximum index for augmentation-charges          283 (set IRDMAX)


--------------------------------------------------------------------------------------------------------


 First call to EWALD:  gamma=   0.179
 Maximum number of real-space cells 3x 3x 2
 Maximum number of reciprocal cells 3x 3x 3

    FEWALD:  cpu time    0.0026: real time    0.0032


--------------------------------------- Iteration      1(   1)  ---------------------------------------


    POTLOK:  cpu time    0.2050: real time    0.2352
    SETDIJ:  cpu time    3.1141: real time    3.1148
    EDDIAG:  cpu time    3.7194: real time    3.7264
  RMM-DIIS:  cpu time    6.6059: real time    6.6101
    ORTHCH:  cpu time    1.1365: real time    1.1388
       DOS:  cpu time    0.0017: real time    0.0018
    --------------------------------------------
      LOOP:  cpu time   14.7827: real time   14.8271

 eigenvalue-minimisations  :  7168
 total energy-change (2. order) : 0.1842029E+04  (-0.3586539E+05)
 number of electron     672.0000000 magnetization      48.0000000
 augmentation part      672.0000000 magnetization      48.0000000

 Free energy of the ion-electron system (eV)
  ---------------------------------------------------
  alpha Z        PSCENC =      2652.81237852
  Ewald energy   TEWEN  =    -41727.34871183
  -Hartree energ DENC   =    -25878.83643300
  -exchange      EXHF   =         0.00000000
  -V(xc)+E(xc)   XCENC  =      3606.58450751
  PAW double counting   =     55594.23204139   -59034.67079123
  entropy T*S    EENTRO =        -0.04528045
  eigenvalues    EBANDS =     -7232.89666467
  atomic energy  EATOM  =     73862.19814772
  Solvation  Ediel_sol  =         0.00000000
  ---------------------------------------------------
  free energy    TOTEN  =      1842.02919396 eV

  energy without entropy =     1842.07447442  energy(sigma->0) =     1842.05183419


--------------------------------------------------------------------------------------------------------




--------------------------------------- Iteration      1(   2)  ---------------------------------------


    EDDIAG:  cpu time    3.6919: real time    3.6948
  RMM-DIIS:  cpu time    6.6135: real time    6.6337
    ORTHCH:  cpu time    1.1416: real time    1.1439
       DOS:  cpu time    0.0016: real time    0.0016
    --------------------------------------------
      LOOP:  cpu time   11.4486: real time   11.4740

 eigenvalue-minimisations  :  7168
 total energy-change (2. order) :-0.2662538E+04  (-0.8653055E+04)
 number of electron     672.0000000 magnetization      48.0000000
 augmentation part      672.0000000 magnetization      48.0000000

 Free energy of the ion-electron system (eV)
  ---------------------------------------------------
  alpha Z        PSCENC =      2652.81237852
  Ewald energy   TEWEN  =    -41727.34871183
  -Hartree energ DENC   =    -25878.83643300
  -exchange      EXHF   =         0.00000000
  -V(xc)+E(xc)   XCENC  =      3606.58450751
  PAW double counting   =     55594.23204139   -59034.67079123
  entropy T*S    EENTRO =        -0.03434415
  eigenvalues    EBANDS =     -9895.44604127
  atomic energy  EATOM  =     73862.19814772
  Solvation  Ediel_sol  =         0.00000000
  ---------------------------------------------------
  free energy    TOTEN  =      -820.50924634 eV

  energy without entropy =     -820.47490218  energy(sigma->0) =     -820.49207426


--------------------------------------------------------------------------------------------------------




--------------------------------------- Iteration      1(   3)  ---------------------------------------


    EDDIAG:  cpu time    3.7171: real time    3.7206
  RMM-DIIS:  cpu time    6.6214: real time    6.6237
    ORTHCH:  cpu time    1.1375: real time    1.1396
       DOS:  cpu time    0.0014: real time    0.0014
    --------------------------------------------
      LOOP:  cpu time   11.4774: real time   11.4853

 eigenvalue-minimisations  :  7168
 total energy-change (2. order) : 0.2884612E+03  (-0.1560351E+04)
 number of electron     672.0000000 magnetization      48.0000000
 augmentation part      672.0000000 magnetization      48.0000000

 Free energy of the ion-electron system (eV)
  ---------------------------------------------------
  alpha Z        PSCENC =      2652.81237852
  Ewald energy   TEWEN  =    -41727.34871183
  -Hartree energ DENC   =    -25878.83643300
  -exchange      EXHF   =         0.00000000
  -V(xc)+E(xc)   XCENC  =      3606.58450751
  PAW double counting   =     55594.23204139   -59034.67079123
  entropy T*S    EENTRO =        -0.04190457
  eigenvalues    EBANDS =     -9606.97726273
  atomic energy  EATOM  =     73862.19814772
  Solvation  Ediel_sol  =         0.00000000
  ---------------------------------------------------
  free energy    TOTEN  =      -532.04802821 eV

  energy without entropy =     -532.00612364  energy(sigma->0) =     -532.02707593


--------------------------------------------------------------------------------------------------------




--------------------------------------- Iteration      1(   4)  ---------------------------------------


    EDDIAG:  cpu time    3.7075: real time    3.7104
  RMM-DIIS:  cpu time    6.6275: real time    6.6305
    ORTHCH:  cpu time    1.1588: real time    1.1610
       DOS:  cpu time    0.0012: real time    0.0012
    --------------------------------------------
      LOOP:  cpu time   11.4950: real time   11.5031

 eigenvalue-minimisations  :  7168
 total energy-change (2. order) :-0.5247388E+03  (-0.5081411E+03)
 number of electron     672.0000000 magnetization      48.0000000
 augmentation part      672.0000000 magnetization      48.0000000

 Free energy of the ion-electron system (eV)
  ---------------------------------------------------
  alpha Z        PSCENC =      2652.81237852
  Ewald energy   TEWEN  =    -41727.34871183
  -Hartree energ DENC   =    -25878.83643300
  -exchange      EXHF   =         0.00000000
  -V(xc)+E(xc)   XCENC  =      3606.58450751
  PAW double counting   =     55594.23204139   -59034.67079123
  entropy T*S    EENTRO =        -0.00032927
  eigenvalues    EBANDS =    -10131.75764025
  atomic energy  EATOM  =     73862.19814772
  Solvation  Ediel_sol  =         0.00000000
  ---------------------------------------------------
  free energy    TOTEN  =     -1056.78683044 eV

  energy without entropy =    -1056.78650117  energy(sigma->0) =    -1056.78666581


--------------------------------------------------------------------------------------------------------




--------------------------------------- Iteration      1(   5)  ---------------------------------------


    EDDIAG:  cpu time    3.7511: real time    3.7743
  RMM-DIIS:  cpu time    6.6117: real time    6.6150
    ORTHCH:  cpu time    1.1445: real time    1.1467
       DOS:  cpu time    0.0010: real time    0.0010
    --------------------------------------------
      LOOP:  cpu time   11.5083: real time   11.5370

 eigenvalue-minimisations  :  7168
 total energy-change (2. order) :-0.1481066E+03  (-0.2134584E+03)
 number of electron     672.0000000 magnetization      48.0000000
 augmentation part      672.0000000 magnetization      48.0000000

 Free energy of the ion-electron system (eV)
  ---------------------------------------------------
  alpha Z        PSCENC =      2652.81237852
  Ewald energy   TEWEN  =    -41727.34871183
  -Hartree energ DENC   =    -25878.83643300
  -exchange      EXHF   =         0.00000000
  -V(xc)+E(xc)   XCENC  =      3606.58450751
  PAW double counting   =     55594.23204139   -59034.67079123
  entropy T*S    EENTRO =        -0.00000000
  eigenvalues    EBANDS =    -10279.86461621
  atomic energy  EATOM  =     73862.19814772
  Solvation  Ediel_sol  =         0.00000000
  ---------------------------------------------------
  free energy    TOTEN  =     -1204.89347713 eV

  energy without entropy =    -1204.89347713  energy(sigma->0) =    -1204.89347713


--------------------------------------------------------------------------------------------------------




--------------------------------------- Iteration      1(   6)  ---------------------------------------


    EDDIAG:  cpu time    3.7127: real time    3.7155
  RMM-DIIS:  cpu time    6.6057: real time    6.6079
    ORTHCH:  cpu time    1.1354: real time    1.1383
       DOS:  cpu time    0.0014: real time    0.0014
    --------------------------------------------
      LOOP:  cpu time   11.4552: real time   11.4630

 eigenvalue-minimisations  :  7168
 total energy-change (2. order) :-0.2173156E+02  (-0.1156381E+03)
 number of electron     672.0000000 magnetization      48.0000000
 augmentation part      672.0000000 magnetization      48.0000000

 Free energy of the ion-electron system (eV)
  ---------------------------------------------------
  alpha Z        PSCENC =      2652.81237852
  Ewald energy   TEWEN  =    -41727.34871183
  -Hartree energ DENC   =    -25878.83643300
  -exchange      EXHF   =         0.00000000
  -V(xc)+E(xc)   XCENC  =      3606.58450751
  PAW double counting   =     55594.23204139   -59034.67079123
  entropy T*S    EENTRO =        -0.00000000
  eigenvalues    EBANDS =    -10301.59617197
  atomic energy  EATOM  =     73862.19814772
  Solvation  Ediel_sol  =         0.00000000
  ---------------------------------------------------
  free energy    TOTEN  =     -1226.62503288 eV

  energy without entropy =    -1226.62503288  energy(sigma->0) =    -1226.62503288


--------------------------------------------------------------------------------------------------------




--------------------------------------- Iteration      1(   7)  ---------------------------------------


    EDDIAG:  cpu time    3.7504: real time    3.7535
  RMM-DIIS:  cpu time    6.5807: real time    6.6101
    ORTHCH:  cpu time    1.1402: real time    1.1424
       DOS:  cpu time    0.0010: real time    0.0010
    --------------------------------------------
      LOOP:  cpu time   11.4723: real time   11.5070

 eigenvalue-minimisations  :  7168
 total energy-change (2. order) :-0.6688393E+01  (-0.7627945E+02)
 number of electron     672.0000000 magnetization      48.0000000
 augmentation part      672.0000000 magnetization      48.0000000

 Free energy of the ion-electron system (eV)
  ---------------------------------------------------
  alpha Z        PSCENC =      2652.81237852
  Ewald energy   TEWEN  =    -41727.34871183
  -Hartree energ DENC   =    -25878.83643300
  -exchange      EXHF   =         0.00000000
  -V(xc)+E(xc)   XCENC  =      3606.58450751
  PAW double counting   =     55594.23204139   -59034.67079123
  entropy T*S    EENTRO =        -0.00000000
  eigenvalues    EBANDS =    -10308.28456464
  atomic energy  EATOM  =     73862.19814772
  Solvation  Ediel_sol  =         0.00000000
  ---------------------------------------------------
  free energy    TOTEN  =     -1233.31342555 eV

  energy without entropy =    -1233.31342555  energy(sigma->0) =    -1233.31342555


--------------------------------------------------------------------------------------------------------




--------------------------------------- Iteration      1(   8)  ---------------------------------------


    EDDIAG:  cpu time    3.7023: real time    3.7065
  RMM-DIIS:  cpu time    6.6319: real time    6.6357
    ORTHCH:  cpu time    1.1397: real time    1.1419
       DOS:  cpu time    0.0015: real time    0.0015
    --------------------------------------------
      LOOP:  cpu time   11.4754: real time   11.4856

 eigenvalue-minimisations  :  7168
 total energy-change (2. order) : 0.4658466E+01  (-0.5268133E+02)
 number of electron     672.0000000 magnetization      48.0000000
 augmentation part      672.0000000 magnetization      48.0000000

 Free energy of the ion-electron system (eV)
  ---------------------------------------------------
  alpha Z        PSCENC =      2652.81237852
  Ewald energy   TEWEN  =    -41727.34871183
  -Hartree energ DENC   =    -25878.83643300
  -exchange      EXHF   =         0.00000000
  -V(xc)+E(xc)   XCENC  =      3606.58450751
  PAW double counting   =     55594.23204139   -59034.67079123
  entropy T*S    EENTRO =        -0.00000000
  eigenvalues    EBANDS =    -10303.62609878
  atomic energy  EATOM  =     73862.19814772
  Solvation  Ediel_sol  =         0.00000000
  ---------------------------------------------------
  free energy    TOTEN  =     -1228.65495970 eV

  energy without entropy =    -1228.65495970  energy(sigma->0) =    -1228.65495970


--------------------------------------------------------------------------------------------------------




--------------------------------------- Iteration      1(   9)  ---------------------------------------


    EDDIAG:  cpu time    3.7206: real time    3.7233
  RMM-DIIS:  cpu time   13.9177: real time   13.9338
    ORTHCH:  cpu time    1.1470: real time    1.1495
       DOS:  cpu time    0.0011: real time    0.0011
    --------------------------------------------
      LOOP:  cpu time   18.7864: real time   18.8077

 eigenvalue-minimisations  : 20216
 total energy-change (2. order) : 0.1801361E+02  (-0.2356943E+02)
 number of electron     672.0000000 magnetization      48.0000000
 augmentation part      672.0000000 magnetization      48.0000000

 Free energy of the ion-electron system (eV)
  ---------------------------------------------------
  alpha Z        PSCENC =      2652.81237852
  Ewald energy   TEWEN  =    -41727.34871183
  -Hartree energ DENC   =    -25878.83643300
  -exchange      EXHF   =         0.00000000
  -V(xc)+E(xc)   XCENC  =      3606.58450751
  PAW double counting   =     55594.23204139   -59034.67079123
  entropy T*S    EENTRO =        -0.00000000
  eigenvalues    EBANDS =    -10285.61248757
  atomic energy  EATOM  =     73862.19814772
  Solvation  Ediel_sol  =         0.00000000
  ---------------------------------------------------
  free energy    TOTEN  =     -1210.64134849 eV

  energy without entropy =    -1210.64134849  energy(sigma->0) =    -1210.64134849


--------------------------------------------------------------------------------------------------------




--------------------------------------- Iteration      1(  10)  ---------------------------------------


    EDDIAG:  cpu time    3.7059: real time    3.7100
  RMM-DIIS:  cpu time   15.6761: real time   15.6916
    ORTHCH:  cpu time    1.1778: real time    1.1803
       DOS:  cpu time    0.0013: real time    0.0013
    --------------------------------------------
      LOOP:  cpu time   20.5611: real time   20.5831

 eigenvalue-minimisations  : 20229
 total energy-change (2. order) :-0.3078646E+01  (-0.1035605E+01)
 number of electron     672.0000000 magnetization      48.0000000
 augmentation part      672.0000000 magnetization      48.0000000

 Free energy of the ion-electron system (eV)
  ---------------------------------------------------
  alpha Z        PSCENC =      2652.81237852
  Ewald energy   TEWEN  =    -41727.34871183
  -Hartree energ DENC   =    -25878.83643300
  -exchange      EXHF   =         0.00000000
  -V(xc)+E(xc)   XCENC  =      3606.58450751
  PAW double counting   =     55594.23204139   -59034.67079123
  entropy T*S    EENTRO =        -0.00000004
  eigenvalues    EBANDS =    -10288.69113402
  atomic energy  EATOM  =     73862.19814772
  Solvation  Ediel_sol  =         0.00000000
  ---------------------------------------------------
  free energy    TOTEN  =     -1213.71999498 eV

  energy without entropy =    -1213.71999494  energy(sigma->0) =    -1213.71999496


--------------------------------------------------------------------------------------------------------




--------------------------------------- Iteration      1(  11)  ---------------------------------------


    EDDIAG:  cpu time    3.7380: real time    3.7410
  RMM-DIIS:  cpu time   15.0533: real time   15.0737
    ORTHCH:  cpu time    1.2278: real time    1.2301
       DOS:  cpu time    0.0012: real time    0.0012
    --------------------------------------------
      LOOP:  cpu time   20.0203: real time   20.0461

 eigenvalue-minimisations  : 21683
 total energy-change (2. order) : 0.1011001E+00  (-0.9797852E-01)
 number of electron     672.0000000 magnetization      48.0000000
 augmentation part      672.0000000 magnetization      48.0000000

 Free energy of the ion-electron system (eV)
  ---------------------------------------------------
  alpha Z        PSCENC =      2652.81237852
  Ewald energy   TEWEN  =    -41727.34871183
  -Hartree energ DENC   =    -25878.83643300
  -exchange      EXHF   =         0.00000000
  -V(xc)+E(xc)   XCENC  =      3606.58450751
  PAW double counting   =     55594.23204139   -59034.67079123
  entropy T*S    EENTRO =        -0.00000004
  eigenvalues    EBANDS =    -10288.59003391
  atomic energy  EATOM  =     73862.19814772
  Solvation  Ediel_sol  =         0.00000000
  ---------------------------------------------------
  free energy    TOTEN  =     -1213.61889487 eV

  energy without entropy =    -1213.61889483  energy(sigma->0) =    -1213.61889485


--------------------------------------------------------------------------------------------------------




--------------------------------------- Iteration      1(  12)  ---------------------------------------


    EDDIAG:  cpu time    3.7392: real time    3.7416
  RMM-DIIS:  cpu time   16.1183: real time   16.1677
    ORTHCH:  cpu time    1.2034: real time    1.2056
       DOS:  cpu time    0.0013: real time    0.0013
    CHARGE:  cpu time    1.3501: real time    1.3545
    MIXING:  cpu time    0.0009: real time    0.0011
    --------------------------------------------
      LOOP:  cpu time   22.4132: real time   22.4719

 eigenvalue-minimisations  : 22900
 total energy-change (2. order) : 0.7121930E-02  (-0.6871084E-02)
 number of electron     672.0000124 magnetization      47.9999958
 augmentation part      239.1505469 magnetization      29.0438940

 Broyden mixing:
  rms(total) = 0.12698E+02    rms(broyden)= 0.12689E+02
  rms(prec ) = 0.14522E+02
  weight for this iteration     100.00

 Free energy of the ion-electron system (eV)
  ---------------------------------------------------
  alpha Z        PSCENC =      2652.81237852
  Ewald energy   TEWEN  =    -41727.34871183
  -Hartree energ DENC   =    -25878.83643300
  -exchange      EXHF   =         0.00000000
  -V(xc)+E(xc)   XCENC  =      3606.58450751
  PAW double counting   =     55594.23204139   -59034.67079123
  entropy T*S    EENTRO =        -0.00000004
  eigenvalues    EBANDS =    -10288.58291199
  atomic energy  EATOM  =     73862.19814772
  Solvation  Ediel_sol  =         0.00000000
  ---------------------------------------------------
  free energy    TOTEN  =     -1213.61177294 eV

  energy without entropy =    -1213.61177290  energy(sigma->0) =    -1213.61177292


--------------------------------------------------------------------------------------------------------




--------------------------------------- Iteration      1(  13)  ---------------------------------------


    POTLOK:  cpu time    0.1953: real time    0.1970
    SETDIJ:  cpu time    3.2987: real time    3.2994
    EDDIAG:  cpu time    3.7307: real time    3.7332
  RMM-DIIS:  cpu time   13.0302: real time   13.0377
    ORTHCH:  cpu time    1.1636: real time    1.1659
       DOS:  cpu time    0.0015: real time    0.0015
    CHARGE:  cpu time    1.3564: real time    1.3606
    MIXING:  cpu time    0.0009: real time    0.0492
    --------------------------------------------
      LOOP:  cpu time   22.7773: real time   22.8445

 eigenvalue-minimisations  : 17321
 total energy-change (2. order) : 0.2260913E+03  (-0.1371613E+03)
 number of electron     672.0000150 magnetization      47.9999945
 augmentation part      268.4691543 magnetization      26.9309515

 Broyden mixing:
  rms(total) = 0.13771E+02    rms(broyden)= 0.13768E+02
  rms(prec ) = 0.15411E+02
  weight for this iteration     100.00

 eigenvalues of (default mixing * dielectric matrix)
  average eigenvalue GAMMA=   0.3213
  0.3213

 Free energy of the ion-electron system (eV)
  ---------------------------------------------------
  alpha Z        PSCENC =      2652.81237852
  Ewald energy   TEWEN  =    -41727.34871183
  -Hartree energ DENC   =    -25215.30603565
  -exchange      EXHF   =         0.00000000
  -V(xc)+E(xc)   XCENC  =      3697.28237217
  PAW double counting   =     60000.23619925   -63425.83985075
  entropy T*S    EENTRO =        -0.08452712
  eigenvalues    EBANDS =    -10831.47046777
  atomic energy  EATOM  =     73862.19814772
  Solvation  Ediel_sol  =         0.00000000
  ---------------------------------------------------
  free energy    TOTEN  =      -987.52049547 eV

  energy without entropy =     -987.43596834  energy(sigma->0) =     -987.47823190


--------------------------------------------------------------------------------------------------------




--------------------------------------- Iteration      1(  14)  ---------------------------------------


    POTLOK:  cpu time    0.1994: real time    0.2056
    SETDIJ:  cpu time    3.2938: real time    3.2945
    EDDIAG:  cpu time    3.7936: real time    3.7993
  RMM-DIIS:  cpu time   13.6323: real time   13.6380
    ORTHCH:  cpu time    1.1562: real time    1.1586
       DOS:  cpu time    0.0011: real time    0.0011
    CHARGE:  cpu time    1.3457: real time    1.3472
    MIXING:  cpu time    0.0007: real time    0.0007
    --------------------------------------------
      LOOP:  cpu time   23.4227: real time   23.4450

 eigenvalue-minimisations  : 17775
 total energy-change (2. order) : 0.7312783E+02  (-0.1802089E+02)
 number of electron     672.0000133 magnetization      47.9999913
 augmentation part      246.7743552 magnetization      32.2479370

 Broyden mixing:
  rms(total) = 0.53190E+01    rms(broyden)= 0.53149E+01
  rms(prec ) = 0.57086E+01
  weight for this iteration     100.00

 eigenvalues of (default mixing * dielectric matrix)
  average eigenvalue GAMMA=   0.7363
  1.1105  0.3622

 Free energy of the ion-electron system (eV)
  ---------------------------------------------------
  alpha Z        PSCENC =      2652.81237852
  Ewald energy   TEWEN  =    -41727.34871183
  -Hartree energ DENC   =    -25822.36739909
  -exchange      EXHF   =         0.00000000
  -V(xc)+E(xc)   XCENC  =      3675.55427353
  PAW double counting   =     63459.87267905   -66942.82760475
  entropy T*S    EENTRO =        -0.00000000
  eigenvalues    EBANDS =    -10072.28642617
  atomic energy  EATOM  =     73862.19814772
  Solvation  Ediel_sol  =         0.00000000
  ---------------------------------------------------
  free energy    TOTEN  =      -914.39266301 eV

  energy without entropy =     -914.39266301  energy(sigma->0) =     -914.39266301


--------------------------------------------------------------------------------------------------------




--------------------------------------- Iteration      1(  15)  ---------------------------------------


    POTLOK:  cpu time    0.1995: real time    0.2007
    SETDIJ:  cpu time    3.2950: real time    3.2958
    EDDIAG:  cpu time    3.7419: real time    3.7633
  RMM-DIIS:  cpu time   13.7155: real time   13.7244
    ORTHCH:  cpu time    1.1475: real time    1.1507
       DOS:  cpu time    0.0010: real time    0.0010
    CHARGE:  cpu time    1.3461: real time    1.3465
    MIXING:  cpu time    0.0006: real time    0.0006
    --------------------------------------------
      LOOP:  cpu time   23.4471: real time   23.4828

 eigenvalue-minimisations  : 18426
 total energy-change (2. order) : 0.1298607E+02  (-0.1819758E+01)
 number of electron     672.0000138 magnetization      47.9999892
 augmentation part      249.6480534 magnetization      33.7871200

 Broyden mixing:
  rms(total) = 0.21304E+01    rms(broyden)= 0.21301E+01
  rms(prec ) = 0.22132E+01
  weight for this iteration     100.00

 eigenvalues of (default mixing * dielectric matrix)
  average eigenvalue GAMMA=   0.9766
  0.3902  0.7624  1.7770

 Free energy of the ion-electron system (eV)
  ---------------------------------------------------
  alpha Z        PSCENC =      2652.81237852
  Ewald energy   TEWEN  =    -41727.34871183
  -Hartree energ DENC   =    -25750.23812039
  -exchange      EXHF   =         0.00000000
  -V(xc)+E(xc)   XCENC  =      3707.56822707
  PAW double counting   =     67631.27630746   -71155.07111114
  entropy T*S    EENTRO =        -0.00000000
  eigenvalues    EBANDS =    -10122.60371101
  atomic energy  EATOM  =     73862.19814772
  Solvation  Ediel_sol  =         0.00000000
  ---------------------------------------------------
  free energy    TOTEN  =      -901.40659359 eV

  energy without entropy =     -901.40659359  energy(sigma->0) =     -901.40659359


--------------------------------------------------------------------------------------------------------




--------------------------------------- Iteration      1(  16)  ---------------------------------------


    POTLOK:  cpu time    0.2061: real time    0.2073
    SETDIJ:  cpu time    3.3319: real time    3.3327
    EDDIAG:  cpu time    3.7632: real time    3.7669
  RMM-DIIS:  cpu time   12.9906: real time   13.0057
    ORTHCH:  cpu time    1.1504: real time    1.1538
       DOS:  cpu time    0.0010: real time    0.0010
    CHARGE:  cpu time    1.3450: real time    1.3455
    MIXING:  cpu time    0.0016: real time    0.0016
    --------------------------------------------
      LOOP:  cpu time   22.7898: real time   22.8145

 eigenvalue-minimisations  : 17350
 total energy-change (2. order) :-0.1564019E+01  (-0.7115228E+00)
 number of electron     672.0000140 magnetization      47.9999887
 augmentation part      251.2432137 magnetization      33.8662809

 Broyden mixing:
  rms(total) = 0.13548E+01    rms(broyden)= 0.13543E+01
  rms(prec ) = 0.14486E+01
  weight for this iteration     100.00

 eigenvalues of (default mixing * dielectric matrix)
  average eigenvalue GAMMA=   0.9833
  2.0941  0.9041  0.3982  0.5369

 Free energy of the ion-electron system (eV)
  ---------------------------------------------------
  alpha Z        PSCENC =      2652.81237852
  Ewald energy   TEWEN  =    -41727.34871183
  -Hartree energ DENC   =    -25697.54105782
  -exchange      EXHF   =         0.00000000
  -V(xc)+E(xc)   XCENC  =      3709.10150985
  PAW double counting   =     70744.74375398   -74299.54988500
  entropy T*S    EENTRO =        -0.00000000
  eigenvalues    EBANDS =    -10147.38674770
  atomic energy  EATOM  =     73862.19814772
  Solvation  Ediel_sol  =         0.00000000
  ---------------------------------------------------
  free energy    TOTEN  =      -902.97061228 eV

  energy without entropy =     -902.97061228  energy(sigma->0) =     -902.97061228


--------------------------------------------------------------------------------------------------------




--------------------------------------- Iteration      1(  17)  ---------------------------------------


    POTLOK:  cpu time    0.2112: real time    0.2121
    SETDIJ:  cpu time    3.3336: real time    3.3342
    EDDIAG:  cpu time    3.7904: real time    3.7931
  RMM-DIIS:  cpu time   13.7827: real time   13.7981
    ORTHCH:  cpu time    1.1738: real time    1.1760
       DOS:  cpu time    0.0011: real time    0.0011
    CHARGE:  cpu time    1.3477: real time    1.3483
    MIXING:  cpu time    0.0015: real time    0.0015
    --------------------------------------------
      LOOP:  cpu time   23.6419: real time   23.6643

 eigenvalue-minimisations  : 18721
 total energy-change (2. order) : 0.2225761E+00  (-0.5630438E-01)
 number of electron     672.0000140 magnetization      47.9999884
 augmentation part      251.0742689 magnetization      33.8562299

 Broyden mixing:
  rms(total) = 0.72589E+00    rms(broyden)= 0.72581E+00
  rms(prec ) = 0.81464E+00
  weight for this iteration     100.00

 eigenvalues of (default mixing * dielectric matrix)
  average eigenvalue GAMMA=   1.0185
  2.2635  1.1549  0.3884  0.7107  0.5748

 Free energy of the ion-electron system (eV)
  ---------------------------------------------------
  alpha Z        PSCENC =      2652.81237852
  Ewald energy   TEWEN  =    -41727.34871183
  -Hartree energ DENC   =    -25691.37526752
  -exchange      EXHF   =         0.00000000
  -V(xc)+E(xc)   XCENC  =      3705.79419538
  PAW double counting   =     71499.06458082   -75061.14427208
  entropy T*S    EENTRO =        -0.00000000
  eigenvalues    EBANDS =    -10142.74908721
  atomic energy  EATOM  =     73862.19814772
  Solvation  Ediel_sol  =         0.00000000
  ---------------------------------------------------
  free energy    TOTEN  =      -902.74803620 eV

  energy without entropy =     -902.74803620  energy(sigma->0) =     -902.74803620


--------------------------------------------------------------------------------------------------------




--------------------------------------- Iteration      1(  18)  ---------------------------------------


    POTLOK:  cpu time    0.2008: real time    0.2016
    SETDIJ:  cpu time    3.3077: real time    3.3085
    EDDIAG:  cpu time    3.7242: real time    3.7277
  RMM-DIIS:  cpu time   13.1942: real time   13.2010
    ORTHCH:  cpu time    1.1792: real time    1.1816
       DOS:  cpu time    0.0014: real time    0.0014
    CHARGE:  cpu time    1.3479: real time    1.3483
    MIXING:  cpu time    0.0009: real time    0.0009
    --------------------------------------------
      LOOP:  cpu time   22.9564: real time   22.9710

 eigenvalue-minimisations  : 17469
 total energy-change (2. order) : 0.3626958E+00  (-0.7260512E-01)
 number of electron     672.0000139 magnetization      47.9999883
 augmentation part      250.5848863 magnetization      33.8183295

 Broyden mixing:
  rms(total) = 0.24700E+00    rms(broyden)= 0.24666E+00
  rms(prec ) = 0.25770E+00
  weight for this iteration     100.00

 eigenvalues of (default mixing * dielectric matrix)
  average eigenvalue GAMMA=   1.0247
  2.4813  1.3627  0.8448  0.3897  0.5866  0.4834

 Free energy of the ion-electron system (eV)
  ---------------------------------------------------
  alpha Z        PSCENC =      2652.81237852
[...]
   4      -0.704    -0.812     1.517     0.037    -0.016     0.484
   5      -0.735    -0.627     1.362     0.131    -0.317     0.252
   6      -1.095    -0.784     1.879    -0.009    -0.082     0.016
   7      -0.999    -0.774     1.774    -0.037    -0.245     0.078
   8      -0.798    -0.682     1.481     0.160     0.375    -0.282
   9      -0.567    -0.778     1.345    -0.010     0.026    -0.502
  10      -0.868    -0.763     1.630    -0.116     0.431     0.186
  11      -0.841    -0.723     1.564    -0.116     0.405     0.355
  12      -0.793    -0.550     1.343     0.071     0.294    -0.247
  13      -0.829    -0.675     1.504    -0.161    -0.421    -0.252
  14      -0.944    -0.770     1.714     0.030    -0.080     0.092
  15      -0.666    -0.800     1.466     0.013    -0.086    -0.577
  16      -1.084    -0.718     1.802    -0.012    -0.054     0.025
  17       1.465     1.495    -2.960    -0.019    -0.024     0.161
  18       1.284     1.589    -2.873    -0.114    -0.075    -0.040
  19       1.477     1.482    -2.959    -0.119    -0.044     0.178
  20       1.346     1.599    -2.945    -0.132    -0.103    -0.018
  21       1.486     1.482    -2.968     0.000    -0.019    -0.138
  22       1.512     1.395    -2.907    -0.004     0.066     0.039
  23       1.332     1.482    -2.815     0.059    -0.047    -0.146
  24       1.524     1.394    -2.918     0.209     0.043    -0.001
  25       0.368    -0.247    -0.120     0.455    -0.368    -1.421
  26      -0.734    -0.606     1.341     0.891     0.103    -0.252
  27       0.463    -2.386     1.924     0.381    -0.613    -0.841
  28      -0.040     0.658    -0.618     0.341     1.208    -0.294
  29       1.096    -1.044    -0.053     0.386    -0.723    -0.873
  30      -1.226    -0.353     1.579     0.333    -0.763    -0.025
  31      -1.297     0.662     0.635    -0.913    -0.398    -0.496
  32      -0.318     0.801    -0.483     0.424    -0.044    -0.305
  33      -1.343     0.404     0.939     1.231    -0.903     0.885
  34       0.400    -0.727     0.327    -1.821     0.114     0.123
  35       1.041    -0.501    -0.539    -0.088     0.742     0.305
  36       0.256    -1.116     0.860    -1.574    -0.284    -0.938
  37      -1.512     0.204     1.308    -0.902    -1.014     0.825
  38       0.111    -0.246     0.134    -0.747    -0.933     0.736
  39       0.259    -1.073     0.814    -0.187    -0.180    -0.344
  40      -1.044    -0.970     2.014    -1.251    -0.405     0.287
  41      -2.684     1.605     1.079    -4.403     2.997    -3.038
  42      -2.036     4.644    -2.608     5.505     2.012     3.722
  43       4.182    -5.261     1.079     1.096    -4.387    -1.491
  44      -2.135     0.556     1.578     4.651    -2.749    -4.818
  45      -1.970     2.308    -0.338    -5.110    -0.351     4.269
  46       7.399    -5.860    -1.539    -1.605     3.740     0.118
  47      -2.915     0.034     2.881    -5.232     3.384    -4.183
  48       3.513    -6.112     2.598     1.199    -4.381    -1.294
  49      -2.526     0.888     1.638     5.387     2.466     2.916
  50       4.897    -4.763    -0.134     1.368     5.267     1.067
  51      -6.023     4.678     1.345    -4.180    -4.304     5.202
  52      -2.284     1.855     0.429     4.790    -2.255    -4.788
  53      -5.404     4.048     1.355    -4.935     1.654    -3.173
  54      -0.986     3.184    -2.197     6.448     1.518     3.867
  55       3.661    -5.974     2.313     0.788    -4.768    -0.997
  56      -0.466     0.392     0.075     3.358    -0.199    -4.105
  57      -3.851     2.830     1.022    -4.890    -1.827     4.497
  58       5.737    -5.946     0.209     1.825     2.119    -0.597
  59      -2.692     1.749     0.943    -4.416     2.184    -4.951
  60       3.943    -5.513     1.570     1.182    -3.998    -1.722
  61      -1.370     2.115    -0.745     5.708     1.970     2.517
  62       5.987    -6.797     0.810    -1.515     4.004    -1.071
  63      -4.386     0.942     3.444    -4.689    -3.481     5.539
  64      -4.283     2.700     1.583     4.209    -3.551    -4.325
  65      -2.403     1.649     0.754    -3.992     2.030    -5.122
  66      -2.328     1.562     0.767     4.180     2.445     3.911
  67       5.918    -6.502     0.583     0.196    -4.394    -0.040
  68      -5.181     4.234     0.947     6.269    -2.086    -4.032
  69      -2.855    -0.031     2.886    -4.469    -2.579     4.463
  70       5.345    -7.408     2.063    -0.630     6.159    -0.097
  71      -5.055     3.431     1.624    -4.730     2.310    -4.059
  72       6.659    -6.213    -0.446    -0.635    -5.360    -0.364
  73      -4.375     3.711     0.665     3.721     1.506     4.791
  74       5.829    -6.489     0.660     0.569     4.214    -1.236
  75      -1.103     2.586    -1.483    -4.713    -1.763     1.481
  76      -2.660     2.688    -0.028     5.485    -1.771    -2.959
  77      -3.986     3.619     0.367    -5.312     1.669    -4.996
  78      -3.369     1.748     1.621     4.642     1.876     4.390
  79       5.734    -5.859     0.126     0.316    -4.893     0.963
  80      -3.860     1.602     2.258     4.827    -2.087    -4.364
  81      -2.858     3.633    -0.775    -5.880    -1.626     3.326
  82       5.057    -5.375     0.319    -0.481     5.052     0.158
  83      -5.314     4.624     0.690    -3.725     1.331    -5.025
  84       6.742    -6.440    -0.302     0.178    -3.541    -1.176
  85      -2.694     4.197    -1.503     5.801     0.414     5.313
  86       5.182    -5.596     0.414    -0.122     4.587    -0.587
  87      -2.526     3.751    -1.225    -5.731    -1.156     2.399
  88      -5.227     3.211     2.016     4.731    -3.055    -3.159
 ---------------------------------------------------------------------


 Total hyperfine coupling parameters after diagonalization (MHz)
 (convention: |A_zz| > |A_xx| > |A_yy|)
 ----------------------------------------------------------------------
  ion      A_xx      A_yy      A_zz     asymmetry (A_yy - A_xx)/ A_zz 
 ----------------------------------------------------------------------
   1       1.600     1.217     3.676      -0.104
   2       2.303     2.031     4.857      -0.056
   3       1.457     1.051     3.444      -0.118
   4       1.650     1.431     3.960      -0.055
   5       2.135     1.780     4.109      -0.086
   6      -0.367    -0.053     2.612       0.120
   7       0.508     0.257     3.079      -0.082
   8       1.627     1.199     3.767      -0.114
   9       1.227     0.903     3.252      -0.099
  10       1.981     1.646     4.384      -0.076
  11       1.681     1.313     4.012      -0.092
  12       1.277     0.951     3.231      -0.101
  13       2.153     1.701     4.327      -0.105
  14       1.025     0.840     3.512      -0.052
  15       2.534     2.264     4.810      -0.056
  16       0.369     0.002     2.890      -0.127
  17      14.823    10.400    14.876      -0.297
  18      13.413     9.291    13.793      -0.299
  19      15.180    10.851    15.421      -0.281
  20      13.963     9.723    14.327      -0.296
  21      15.795    11.338    15.797      -0.282
  22      14.873    10.570    14.992      -0.287
  23      13.134     9.002    13.330      -0.310
  24      14.475    10.317    14.914      -0.279
  25      98.719    97.030   100.168      -0.017
  26      94.561    92.763    95.721      -0.019
  27      97.077    94.269    99.163      -0.028
  28      96.240    93.875    96.478      -0.025
  29      95.201    93.751    96.959      -0.015
  30      93.671    92.436    95.721      -0.013
  31      94.665    92.323    95.333      -0.025
  32      92.387    92.250    93.827      -0.001
  33      97.429    94.187    98.202      -0.033
  34     100.051    97.632   101.456      -0.024
  35      96.038    95.324    97.683      -0.007
  36     103.432   100.081   103.987      -0.032
  37      98.999    97.160   101.410      -0.018
  38      96.804    96.773    99.249      -0.000
  39     100.304    98.879   100.954      -0.014
  40      97.511    95.131    99.533      -0.024
  41       3.815    -0.192    12.636      -0.317
  42       3.369     2.343    16.734      -0.061
  43       4.433     0.768    13.889      -0.264
  44       5.389     2.366    16.582      -0.182
  45       5.987     1.006    14.843      -0.336
  46       3.183    -0.190    14.853      -0.227
  47       5.571     0.655    16.381      -0.300
  48       5.022     0.025    14.050      -0.356
  49       7.095     1.501    15.350      -0.364
  50       1.750     0.179    13.630      -0.115
  51       6.359     0.377    19.252      -0.311
  52      -1.526     1.218    12.513       0.219
  53       6.009    -0.975    14.601      -0.478
  54       4.928     2.057    17.429      -0.165
  55       3.297    -0.987    13.027      -0.329
  56       3.902    -0.743     9.878      -0.470
  57       5.427     1.002    16.003      -0.276
  58       7.575     1.506    14.510      -0.418
  59      -1.537     1.228    12.393       0.223
  60       5.095     0.494    13.646      -0.337
  61       5.209     1.583    14.750      -0.246
  62       6.288     0.622    16.040      -0.353
  63       5.006     0.859    18.079      -0.229
  64       5.222     0.839    16.255      -0.270
  65       3.698     1.468    14.778      -0.151
  66       6.249     3.684    16.100      -0.159
  67       7.414     2.798    17.696      -0.261
  68       7.463     0.553    18.582      -0.372
  69       5.039     0.883    15.266      -0.272
  70       7.058     2.262    19.803      -0.242
  71       7.569     1.810    17.636      -0.327
  72       4.383     1.230    17.126      -0.184
  73       7.449     4.149    18.411      -0.179
  74       5.754     0.249    15.286      -0.360
  75       6.352     3.833    14.733      -0.171
  76       7.021     2.506    16.257      -0.278
  77       4.101    -0.207    16.007      -0.269
  78       7.569     3.225    17.415      -0.249
  79       5.372     1.647    16.368      -0.228
  80       6.706     1.593    16.573      -0.309
  81       6.538     2.406    17.317      -0.239
  82       4.828     2.217    15.935      -0.164
  83       3.704    -0.371    15.283      -0.267
  84       7.762     2.649    17.566      -0.291
  85       8.483     3.661    20.543      -0.235
  86       6.869     3.515    17.161      -0.195
  87       5.515     1.564    15.415      -0.256
  88       7.175     0.114    15.902      -0.444
 ---------------------------------------------------------------------



--------------------------------------------------------------------------------------------------------


 stress matrix after NEB project (eV)
    -40.17759     -0.62250     -0.96818
     -0.62229    -42.31075     -4.18637
     -0.93522     -4.13639    -54.54174
  FORCES: max atom, RMS     2.593652    1.141909
  FORCE total and by dimension   10.712058    2.294858
  Stress total and by dimension   80.102822   54.541742
     LOOP+:  cpu time  567.7582: real time  568.6751
    4ORBIT:  cpu time    0.0000: real time    0.0000
 


 total charge     
 
# of ion       s       p       d       tot
------------------------------------------
    1        0.055   5.998   0.000   6.053
    2        0.055   5.998   0.000   6.053
    3        0.048   5.990   0.000   6.038
    4        0.055   5.998   0.000   6.053
    5        0.048   5.990   0.000   6.038
    6        0.046   5.989   0.000   6.035
    7        0.049   5.993   0.000   6.042
    8        0.053   5.995   0.000   6.047
    9        0.051   5.993   0.000   6.044
   10        0.049   5.991   0.000   6.040
   11        0.051   5.995   0.000   6.046
   12        0.054   5.997   0.000   6.051
   13        0.050   5.994   0.000   6.044
   14        0.049   5.993   0.000   6.041
   15        0.050   5.991   0.000   6.041
   16        0.049   5.993   0.000   6.043
   17        0.151   6.131   0.087   6.369
   18        0.147   6.124   0.081   6.352
   19        0.151   6.131   0.086   6.369
   20        0.153   6.134   0.088   6.375
   21        0.147   6.126   0.083   6.356
   22        0.146   6.123   0.080   6.350
   23        0.145   6.121   0.078   6.344
   24        0.145   6.120   0.078   6.343
   25        0.378   6.459   4.841  11.678
   26        0.380   6.466   4.837  11.683
   27        0.381   6.465   4.843  11.689
   28        0.375   6.457   4.829  11.661
   29        0.386   6.478   4.857  11.721
   30        0.375   6.454   4.821  11.650
   31        0.387   6.469   4.862  11.718
   32        0.390   6.483   4.862  11.735
   33        0.381   6.468   4.852  11.700
   34        0.367   6.443   4.819  11.629
   35        0.369   6.442   4.814  11.624
   36        0.373   6.450   4.828  11.651
   37        0.377   6.458   4.837  11.672
   38        0.393   6.491   4.869  11.753
   39        0.390   6.486   4.866  11.741
   40        0.366   6.434   4.806  11.606
   41        1.598   3.525   0.000   5.124
   42        1.602   3.481   0.000   5.083
   43        1.596   3.507   0.000   5.103
   44        1.598   3.492   0.000   5.090
   45        1.598   3.500   0.000   5.098
   46        1.600   3.491   0.000   5.091
   47        1.601   3.527   0.000   5.128
   48        1.598   3.517   0.000   5.115
   49        1.597   3.515   0.000   5.111
   50        1.598   3.494   0.000   5.092
   51        1.604   3.514   0.000   5.119
   52        1.598   3.487   0.000   5.085
   53        1.599   3.519   0.000   5.119
   54        1.602   3.480   0.000   5.082
   55        1.598   3.521   0.000   5.118
   56        1.594   3.481   0.000   5.075
   57        1.600   3.512   0.000   5.111
   58        1.597   3.529   0.000   5.126
   59        1.596   3.474   0.000   5.069
   60        1.597   3.535   0.000   5.131
   61        1.597   3.489   0.000   5.085
   62        1.598   3.513   0.000   5.111
   63        1.604   3.508   0.000   5.113
   64        1.601   3.525   0.000   5.126
   65        1.598   3.477   0.000   5.076
   66        1.599   3.494   0.000   5.093
   67        1.600   3.510   0.000   5.110
   68        1.603   3.500   0.000   5.103
   69        1.599   3.525   0.000   5.124
   70        1.602   3.522   0.000   5.125
   71        1.602   3.526   0.000   5.129
   72        1.600   3.503   0.000   5.103
   73        1.602   3.526   0.000   5.128
   74        1.598   3.492   0.000   5.090
   75        1.594   3.511   0.000   5.105
   76        1.598   3.508   0.000   5.106
   77        1.599   3.480   0.000   5.079
   78        1.599   3.531   0.000   5.130
   79        1.598   3.509   0.000   5.106
   80        1.601   3.532   0.000   5.133
   81        1.599   3.510   0.000   5.109
   82        1.597   3.504   0.000   5.101
   83        1.602   3.517   0.000   5.119
   84        1.599   3.537   0.000   5.136
   85        1.604   3.523   0.000   5.127
   86        1.599   3.520   0.000   5.119
   87        1.599   3.478   0.000   5.076
   88        1.599   3.513   0.000   5.112
--------------------------------------------------
tot         84.823 416.696  78.104 579.622
 


 magnetization (x)
 
# of ion       s       p       d       tot
------------------------------------------
    1        0.001   0.000   0.000   0.002
    2        0.002   0.000   0.000   0.002
    3        0.002   0.000   0.000   0.002
    4        0.002  -0.000   0.000   0.002
    5        0.002   0.000   0.000   0.002
    6        0.001   0.000   0.000   0.001
    7        0.001   0.000   0.000   0.001
    8        0.002  -0.000   0.000   0.002
    9        0.001  -0.000   0.000   0.001
   10        0.002   0.000   0.000   0.002
   11        0.002   0.000   0.000   0.002
   12        0.001   0.000   0.000   0.001
   13        0.002   0.000   0.000   0.002
   14        0.001   0.001   0.000   0.002
   15        0.002   0.000   0.000   0.003
   16        0.001   0.000   0.000   0.001
   17        0.008   0.003   0.001   0.011
   18        0.007   0.002   0.001   0.010
   19        0.008   0.003   0.001   0.012
   20        0.007   0.003   0.001   0.011
   21        0.008   0.002   0.001   0.012
   22        0.008   0.002   0.001   0.011
   23        0.007   0.002   0.001   0.010
   24        0.007   0.002   0.001   0.010
   25        0.016   0.031   2.747   2.793
   26        0.015   0.031   2.746   2.791
   27        0.015   0.030   2.748   2.793
   28        0.015   0.031   2.743   2.788
   29        0.015   0.032   2.730   2.777
   30        0.015   0.030   2.758   2.803
   31        0.014   0.029   2.721   2.764
   32        0.014   0.030   2.719   2.764
   33        0.015   0.030   2.743   2.787
   34        0.016   0.030   2.766   2.812
   35        0.015   0.030   2.770   2.815
   36        0.017   0.031   2.766   2.815
   37        0.016   0.031   2.760   2.807
   38        0.016   0.032   2.718   2.766
   39        0.016   0.032   2.728   2.776
   40        0.015   0.029   2.788   2.832
   41        0.001   0.027   0.000   0.028
   42        0.002   0.023   0.000   0.025
   43        0.002   0.027   0.000   0.029
   44        0.002   0.034   0.000   0.037
   45        0.002   0.036   0.000   0.038
   46        0.002   0.015   0.000   0.016
   47        0.002   0.035   0.000   0.037
   48        0.002   0.024   0.000   0.026
   49        0.002   0.046   0.000   0.048
   50        0.002   0.018   0.000   0.020
   51        0.002   0.046   0.000   0.048
   52        0.001  -0.000   0.000   0.001
   53        0.002   0.039   0.000   0.041
   54        0.002   0.025   0.000   0.028
   55        0.001   0.021   0.000   0.023
   56        0.002  -0.004   0.000  -0.003
   57        0.002   0.041   0.000   0.043
   58        0.002   0.039   0.000   0.041
   59        0.001  -0.002   0.000  -0.001
   60        0.002   0.027   0.000   0.029
   61        0.002   0.029   0.000   0.031
   62        0.002   0.049   0.000   0.051
   63        0.002   0.038   0.000   0.040
   64        0.002   0.043   0.000   0.045
   65        0.002   0.014   0.000   0.016
   66        0.002   0.033   0.000   0.036
   67        0.002   0.045   0.000   0.048
   68        0.002   0.051   0.000   0.053
   69        0.002   0.032   0.000   0.034
   70        0.002   0.056   0.000   0.058
   71        0.002   0.054   0.000   0.057
   72        0.002   0.035   0.000   0.037
   73        0.002   0.056   0.000   0.058
   74        0.002   0.026   0.000   0.028
   75        0.002   0.033   0.000   0.035
   76        0.002   0.038   0.000   0.041
   77        0.002   0.026   0.000   0.028
   78        0.002   0.055   0.000   0.057
   79        0.002   0.039   0.000   0.041
   80        0.002   0.050   0.000   0.052
   81        0.002   0.042   0.000   0.045
   82        0.002   0.033   0.000   0.035
   83        0.002   0.028   0.000   0.029
   84        0.002   0.057   0.000   0.059
   85        0.003   0.066   0.000   0.068
   86        0.002   0.045   0.000   0.048
   87        0.002   0.024   0.000   0.026
   88        0.002   0.041   0.000   0.043
--------------------------------------------------
tot          0.426   2.168  43.958  46.552
 

 total amount of memory used by VASP MPI-rank0    88181. kBytes
=======================================================================

   base      :      30000. kBytes
   nonlr-proj:      13672. kBytes
   fftplans  :        992. kBytes
   grid      :      21513. kBytes
   one-center:       2737. kBytes
   wavefun   :      19267. kBytes
 
  
  
 General timing and accounting informations for this job:
 ========================================================
  
                  Total CPU time used (sec):      587.422
                            User time (sec):      581.654
                          System time (sec):        5.768
                         Elapsed time (sec):      593.423
  
                   Maximum memory used (kb):      181548.
                   Average memory used (kb):           0.
  
                          Minor page faults:       312643
                          Major page faults:            0
                 Voluntary context switches:         4344
