 vasp.5.4.4.18Apr17-6-g9f103f2a35 (build Dec 02 2020 12:53:39) complex          
  
 executed on             LinuxIFC date 2021.07.30  21:51:57
 running on  112 total cores
 distrk:  each k-point on  112 cores,    1 groups
 distr:  one band on NCORES_PER_BAND=   1 cores,  112 groups


--------------------------------------------------------------------------------------------------------


 INCAR:
 POTCAR:    PAW_PBE Na_pv 19Sep2006               
 POTCAR:    PAW_PBE Mg_pv 13Apr2007               
 POTCAR:    PAW_PBE Mn_pv 02Aug2007               
 POTCAR:    PAW_PBE O 08Apr2002                   

 ----------------------------------------------------------------------------- 
|                                                                             |
|           W    W    AA    RRRRR   N    N  II  N    N   GGGG   !!!           |
|           W    W   A  A   R    R  NN   N  II  NN   N  G    G  !!!           |
|           W    W  A    A  R    R  N N  N  II  N N  N  G       !!!           |
|           W WW W  AAAAAA  RRRRR   N  N N  II  N  N N  G  GGG   !            |
|           WW  WW  A    A  R   R   N   NN  II  N   NN  G    G                |
|           W    W  A    A  R    R  N    N  II  N    N   GGGG   !!!           |
|                                                                             |
|      For optimal performance we recommend to set                            |
|        NCORE= 4 - approx SQRT( number of cores)                             |
|      NCORE specifies how many cores store one orbital (NPAR=cpu/NCORE).     |
|      This setting can  greatly improve the performance of VASP for DFT.     |
|      The default,   NCORE=1            might be grossly inefficient         |
|      on modern multi-core architectures or massively parallel machines.     |
|      Do your own testing !!!!                                               |
|      Unfortunately you need to use the default for GW and RPA calculations. |
|      (for HF NCORE is supported but not extensively tested yet)             |
|                                                                             |
 ----------------------------------------------------------------------------- 

 POTCAR:    PAW_PBE Na_pv 19Sep2006               
   VRHFIN =Na: p6s1                                                             
   LEXCH  = PE                                                                  
   EATOM  =   766.0439 eV,   56.3026 Ry                                         
                                                                                
   TITEL  = PAW_PBE Na_pv 19Sep2006                                             
   LULTRA =        F    use ultrasoft PP ?                                      
   IUNSCR =        1    unscreen: 0-lin 1-nonlin 2-no                           
   RPACOR =    1.800    partial core radius                                     
   POMASS =   22.990; ZVAL   =    7.000    mass and valenz                      
   RCORE  =    2.200    outmost cutoff radius                                   
   RWIGS  =    2.200; RWIGS  =    1.164    wigner-seitz radius (au A)           
   ENMAX  =  259.561; ENMIN  =  194.671 eV                                      
   ICORE  =        2    local potential                                         
   LCOR   =        T    correct aug charges                                     
   LPAW   =        T    paw PP                                                  
   EAUG   =  368.056                                                            
   DEXC   =    0.000                                                            
   RMAX   =    2.245    core radius for proj-oper                               
   RAUG   =    1.300    factor for augmentation sphere                          
   RDEP   =    2.259    radius for radial grids                                 
   RDEPT  =    1.738    core radius for aug-charge                              
                                                                                
   Atomic configuration                                                         
    5 entries                                                                   
     n  l   j            E        occ.                                          
     1  0  0.50     -1033.6933   2.0000                                         
     2  0  0.50       -56.7526   2.0000                                         
     2  1  1.50       -28.6721   6.0000                                         
     3  0  0.50        -2.7440   1.0000                                         
     3  2  1.50        -1.3606   0.0000                                         
   Description                                                                  
     l       E           TYP  RCUT    TYP  RCUT                                 
     1    -28.6720912     23  2.000                                             
     1      6.8029130     23  2.000                                             
     0     -2.7439560     23  2.200                                             
     0     34.0145650     23  2.200                                             
     2     -1.3605826     23  2.200                                             
  local pseudopotential read in
  partial core-charges read in
  partial kinetic energy density read in
  atomic valenz-charges read in
  non local Contribution for L=           1  read in
    real space projection operators read in
  non local Contribution for L=           1  read in
    real space projection operators read in
  non local Contribution for L=           0  read in
    real space projection operators read in
  non local Contribution for L=           0  read in
    real space projection operators read in
    PAW grid and wavefunctions read in
 
   number of l-projection  operators is LMAX  =           4
   number of lm-projection operators is LMMAX =           8
 
 POTCAR:    PAW_PBE Mg_pv 13Apr2007               
   VRHFIN =Mg: p6s2                                                             
   LEXCH  = PE                                                                  
   EATOM  =  1056.7344 eV,   77.6678 Ry                                         
                                                                                
   TITEL  = PAW_PBE Mg_pv 13Apr2007                                             
   LULTRA =        F    use ultrasoft PP ?                                      
   IUNSCR =        1    unscreen: 0-lin 1-nonlin 2-no                           
   RPACOR =    1.500    partial core radius                                     
   POMASS =   24.305; ZVAL   =    8.000    mass and valenz                      
   RCORE  =    2.000    outmost cutoff radius                                   
   RWIGS  =    2.000; RWIGS  =    1.058    wigner-seitz radius (au A)           
   ENMAX  =  403.929; ENMIN  =  302.947 eV                                      
   RCLOC  =    1.506    cutoff for local pot                                    
   LCOR   =        T    correct aug charges                                     
   LPAW   =        T    paw PP                                                  
   EAUG   =  758.780                                                            
   DEXC   =    0.000                                                            
   RMAX   =    2.045    core radius for proj-oper                               
   RAUG   =    1.300    factor for augmentation sphere                          
   RDEP   =    2.025    radius for radial grids                                 
   RDEPT  =    1.557    core radius for aug-charge                              
                                                                                
   Atomic configuration                                                         
    5 entries                                                                   
     n  l   j            E        occ.                                          
     1  0  0.50     -1259.6230   2.0000                                         
     2  0  0.50       -79.8442   2.0000                                         
     2  1  1.50       -46.6121   6.0000                                         
     3  0  0.50        -4.7055   2.0000                                         
     3  2  1.50        -1.3606   0.0000                                         
   Description                                                                  
     l       E           TYP  RCUT    TYP  RCUT                                 
     1    -46.6121073     23  1.600                                             
     1      2.7211652     23  1.600                                             
     0     -4.7054661     23  2.000                                             
     0     61.2262170     23  2.000                                             
     2     -1.3605826     23  2.000                                             
  local pseudopotential read in
  partial core-charges read in
  partial kinetic energy density read in
  atomic valenz-charges read in
  non local Contribution for L=           1  read in
    real space projection operators read in
  non local Contribution for L=           1  read in
    real space projection operators read in
  non local Contribution for L=           0  read in
    real space projection operators read in
  non local Contribution for L=           0  read in
    real space projection operators read in
  non local Contribution for L=           2  read in
    real space projection operators read in
    PAW grid and wavefunctions read in
 
   number of l-projection  operators is LMAX  =           5
   number of lm-projection operators is LMMAX =          13
 
 POTCAR:    PAW_PBE Mn_pv 02Aug2007               
   VRHFIN =Mn: 3p4s3d                                                           
   LEXCH  = PE                                                                  
   EATOM  =  2025.2664 eV,  148.8529 Ry                                         
                                                                                
   TITEL  = PAW_PBE Mn_pv 02Aug2007                                             
   LULTRA =        F    use ultrasoft PP ?                                      
   IUNSCR =        1    unscreen: 0-lin 1-nonlin 2-no                           
   RPACOR =    2.080    partial core radius                                     
   POMASS =   54.938; ZVAL   =   13.000    mass and valenz                      
   RCORE  =    2.300    outmost cutoff radius                                   
   RWIGS  =    2.500; RWIGS  =    1.323    wigner-seitz radius (au A)           
   ENMAX  =  269.864; ENMIN  =  202.398 eV                                      
   ICORE  =        3    local potential                                         
   LCOR   =        T    correct aug charges                                     
   LPAW   =        T    paw PP                                                  
   EAUG   =  569.085                                                            
   DEXC   =    0.000                                                            
   RMAX   =    2.343    core radius for proj-oper                               
   RAUG   =    1.300    factor for augmentation sphere                          
   RDEP   =    2.338    radius for radial grids                                 
   RDEPT  =    1.798    core radius for aug-charge                              
                                                                                
   Atomic configuration                                                         
    8 entries                                                                   
     n  l   j            E        occ.                                          
     1  0  0.50     -6424.8287   2.0000                                         
     2  0  0.50      -739.1154   2.0000                                         
     2  1  1.50      -625.3949   6.0000                                         
     3  0  0.50       -81.6100   2.0000                                         
     3  1  1.50       -50.4667   6.0000                                         
     3  2  2.50        -3.3745   6.0000                                         
     4  0  0.50        -4.1331   1.0000                                         
     4  3  2.50        -1.3606   0.0000                                         
   Description                                                                  
     l       E           TYP  RCUT    TYP  RCUT                                 
     1    -50.4666628     23  2.000                                             
     1     -1.3605826     23  2.000                                             
     2     -3.3744729     23  2.300                                             
     2     -4.7350555     23  2.300                                             
     0     -4.1331431     23  2.300                                             
     0      7.6656591     23  2.300                                             
     3      9.5240782     23  2.300                                             
  local pseudopotential read in
  partial core-charges read in
  partial kinetic energy density read in
  atomic valenz-charges read in
  non local Contribution for L=           1  read in
    real space projection operators read in
  non local Contribution for L=           1  read in
    real space projection operators read in
  non local Contribution for L=           2  read in
    real space projection operators read in
  non local Contribution for L=           2  read in
    real space projection operators read in
  non local Contribution for L=           0  read in
    real space projection operators read in
  non local Contribution for L=           0  read in
    real space projection operators read in
    PAW grid and wavefunctions read in
 
   number of l-projection  operators is LMAX  =           6
   number of lm-projection operators is LMMAX =          18
 
 POTCAR:    PAW_PBE O 08Apr2002                   
   VRHFIN =O: s2p4                                                              
   LEXCH  = PE                                                                  
   EATOM  =   432.3788 eV,   31.7789 Ry                                         
                                                                                
   TITEL  = PAW_PBE O 08Apr2002                                                 
   LULTRA =        F    use ultrasoft PP ?                                      
   IUNSCR =        1    unscreen: 0-lin 1-nonlin 2-no                           
   RPACOR =    1.200    partial core radius                                     
   POMASS =   16.000; ZVAL   =    6.000    mass and valenz                      
   RCORE  =    1.520    outmost cutoff radius                                   
   RWIGS  =    1.550; RWIGS  =    0.820    wigner-seitz radius (au A)           
   ENMAX  =  400.000; ENMIN  =  300.000 eV                                      
   ICORE  =        2    local potential                                         
   LCOR   =        T    correct aug charges                                     
   LPAW   =        T    paw PP                                                  
   EAUG   =  605.392                                                            
   DEXC   =    0.000                                                            
   RMAX   =    1.553    core radius for proj-oper                               
   RAUG   =    1.300    factor for augmentation sphere                          
   RDEP   =    1.550    radius for radial grids                                 
   RDEPT  =    1.329    core radius for aug-charge                              
                                                                                
   Atomic configuration                                                         
    4 entries                                                                   
     n  l   j            E        occ.                                          
     1  0  0.50      -514.6923   2.0000                                         
     2  0  0.50       -23.9615   2.0000                                         
     2  1  0.50        -9.0305   4.0000                                         
     3  2  1.50        -9.5241   0.0000                                         
   Description                                                                  
     l       E           TYP  RCUT    TYP  RCUT                                 
     0    -23.9615318     23  1.200                                             
     0     -9.5240782     23  1.200                                             
     1     -9.0304911     23  1.520                                             
     1      8.1634956     23  1.520                                             
     2     -9.5240782      7  1.500                                             
  local pseudopotential read in
  partial core-charges read in
  partial kinetic energy density read in
  kinetic energy density of atom read in
  atomic valenz-charges read in
  non local Contribution for L=           0  read in
    real space projection operators read in
  non local Contribution for L=           0  read in
    real space projection operators read in
  non local Contribution for L=           1  read in
    real space projection operators read in
  non local Contribution for L=           1  read in
    real space projection operators read in
    PAW grid and wavefunctions read in
 
   number of l-projection  operators is LMAX  =           4
   number of lm-projection operators is LMMAX =           8
 
 Optimization of the real space projectors (new method)

 maximal supplied QI-value         = 17.01
 optimisation between [QCUT,QGAM] = [ 10.20, 20.41] = [ 29.16,116.64] Ry 
 Optimized for a Real-space Cutoff    1.30 Angstroem

   l    n(q)    QCUT    max X(q) W(low)/X(q) W(high)/X(q)  e(spline) 
   1      7    10.205     4.940    0.23E-03    0.84E-03    0.11E-06
   1      7    10.205     6.253    0.40E-03    0.13E-02    0.18E-06
   0      8    10.205    37.438    0.23E-03    0.37E-03    0.42E-07
   0      8    10.205     9.606    0.16E-03    0.26E-03    0.31E-07
 Optimization of the real space projectors (new method)

 maximal supplied QI-value         = 18.90
 optimisation between [QCUT,QGAM] = [ 10.20, 20.41] = [ 29.16,116.64] Ry 
 Optimized for a Real-space Cutoff    1.26 Angstroem

   l    n(q)    QCUT    max X(q) W(low)/X(q) W(high)/X(q)  e(spline) 
   1      7    10.205     2.974    0.63E-04    0.14E-03    0.13E-06
   1      7    10.205     4.279    0.11E-03    0.45E-03    0.24E-06
   0      8    10.205    16.381    0.44E-03    0.15E-03    0.55E-07
   0      8    10.205     5.611    0.31E-03    0.11E-03    0.40E-07
   2      7    10.205     4.652    0.50E-03    0.47E-03    0.57E-07
 Optimization of the real space projectors (new method)

 maximal supplied QI-value         = 16.25
 optimisation between [QCUT,QGAM] = [ 10.24, 20.48] = [ 29.35,117.42] Ry 
 Optimized for a Real-space Cutoff    1.34 Angstroem

   l    n(q)    QCUT    max X(q) W(low)/X(q) W(high)/X(q)  e(spline) 
   1      8    10.239     3.658    0.23E-03    0.30E-03    0.98E-07
   1      8    10.239     5.612    0.32E-03    0.65E-03    0.21E-06
   2      7    10.239    55.373    0.42E-03    0.45E-03    0.65E-07
   2      7    10.239    50.863    0.43E-03    0.48E-03    0.67E-07
   0      8    10.239    79.536    0.11E-03    0.21E-03    0.56E-07
   0      8    10.239    38.668    0.96E-04    0.19E-03    0.52E-07
 Optimization of the real space projectors (new method)

 maximal supplied QI-value         = 24.76
 optimisation between [QCUT,QGAM] = [ 10.15, 20.30] = [ 28.85,115.39] Ry 
 Optimized for a Real-space Cutoff    1.38 Angstroem

   l    n(q)    QCUT    max X(q) W(low)/X(q) W(high)/X(q)  e(spline) 
   0      8    10.150    20.381    0.22E-03    0.32E-03    0.29E-06
   0      8    10.150    15.268    0.23E-03    0.35E-03    0.30E-06
   1      8    10.150     5.964    0.46E-03    0.53E-03    0.21E-06
   1      8    10.150     5.382    0.38E-03    0.45E-03    0.19E-06
  PAW_PBE Na_pv 19Sep2006               :
 energy of atom  1       EATOM= -766.0439
 kinetic energy error for atom=    0.0103 (will be added to EATOM!!)
  PAW_PBE Mg_pv 13Apr2007               :
 energy of atom  2       EATOM=-1056.7344
 kinetic energy error for atom=    0.0820 (will be added to EATOM!!)
  PAW_PBE Mn_pv 02Aug2007               :
 energy of atom  3       EATOM=-2025.2664
 kinetic energy error for atom=    0.0284 (will be added to EATOM!!)
  PAW_PBE O 08Apr2002                   :
 energy of atom  4       EATOM= -432.3788
 kinetic energy error for atom=    0.1156 (will be added to EATOM!!)
 
 
 POSCAR: Na Mg Mn  O                             
  positions in cartesian coordinates
  No initial velocities read in

 METAGGA = SCAN     LMAXTAU =  6    LMIXTAU =  F

 exchange correlation table for  LEXCH =        8
   RHO(1)=    0.500       N(1)  =     2000
   RHO(2)=  100.500       N(2)  =     4000

 VTST: version 3.2, (02/03/18)

 CHAIN: initializing optimizer
 
 OPT: Using VASP Dynamics algorithm
 CHAIN: Read ICHAIN            0
 
 POSCAR: Na Mg Mn  O                             
  positions in cartesian coordinates
  No initial velocities read in
 


--------------------------------------------------------------------------------------------------------


 ion  position               nearest neighbor table
   1  0.462  0.971  0.249-  79 2.30  51 2.33  88 2.34  31 2.84  29 2.88
   2  0.306  0.987  0.746-  81 2.24  44 2.29
   3  0.413  0.751  0.745-  85 2.29  84 2.31  82 2.33  81 2.36
   4  0.787  0.974  0.749-  56 2.31  59 2.37
   5  0.494  0.669  0.252-  74 2.16  65 2.31
   6  0.157  0.485  0.248-  87 2.28  78 2.33
   7  0.994  0.467  0.743-  57 2.30  80 2.30  39 2.75
   8  0.664  0.184  0.754-  60 2.33  59 2.34  57 2.36
   9  0.950  0.983  0.247-  63 2.27  54 2.34  67 2.35  25 2.84  27 2.91
  10  0.643  0.488  0.247-  65 2.30  52 2.31
  11  0.814  0.283  0.252-  55 2.28  64 2.33  62 2.35
  12  0.156  0.171  0.759-  47 2.36  48 2.36  61 2.38
  13  0.911  0.735  0.755-  72 2.21  73 2.21  70 2.27
  14  0.475  0.464  0.751-  48 2.25  45 2.35  33 2.90  35 2.91
  15  0.313  0.230  0.250-  52 2.22  43 2.28  50 2.31  41 2.34  26 2.96
  16  0.984  0.706  0.264-  76 2.14  86 2.29  67 2.32
  17  0.651  0.329  0.009-  43 1.95  71 2.02  49 2.07  53 2.07  60 2.09  66 2.13  30 2.84
  18  0.316  0.154  0.493-  50 2.01  51 2.05  52 2.05  46 2.08  44 2.12  45 2.16  31 2.79  36 2.83

  19  0.154  0.330  0.995-  83 1.96  78 2.08  41 2.08  55 2.10  48 2.10  61 2.16
  20  0.810  0.149  0.498-  63 1.96  62 2.06  56 2.10  58 2.12  64 2.13  57 2.14  27 2.85
  21  0.147  0.829  0.008-  67 1.99  42 2.00  47 2.05  77 2.06  73 2.10  84 2.11  26 2.82
  22  0.817  0.648  0.497-  75 1.93  68 1.96  76 2.08  69 2.10  70 2.14  74 2.23  39 2.71  28 2.76

  23  0.643  0.824  0.991-  85 1.95  54 2.03  79 2.09  59 2.10  72 2.12  65 2.14  29 2.80  38 2.85
                            33 2.85
  24  0.313  0.661  0.494-  87 1.95  80 1.96  88 2.04  86 2.12  82 2.12  81 2.16  39 2.85  40 2.85

  25  0.975  0.991  0.995-  72 1.91  61 1.91  47 1.92  54 1.92  41 1.92  67 1.92   9 2.84  34 2.87
                            30 2.91  26 2.96
  26  0.315  0.153  0.996-  42 1.85  49 1.88  48 1.89  47 1.93  43 1.99  41 2.02  21 2.82  29 2.90
                            15 2.96  25 2.96  33 2.98
  27  0.982  0.993  0.506-  58 1.88  76 1.88  69 1.91  63 1.93  50 1.97  44 2.01  20 2.85  36 2.88
                            32 2.90   9 2.91  40 2.96
  28  0.651  0.330  0.494-  68 1.84  75 1.89  62 1.92  57 1.98  46 2.04  52 2.05  22 2.76  39 2.89
                            31 2.92  35 2.94
  29  0.486  0.990  0.993-  59 1.80  79 1.88  53 1.90  84 1.92  42 1.96  49 1.98  30 2.78  23 2.80
                            38 2.83   1 2.88  26 2.90
  30  0.806  0.158  0.995-  53 1.90  54 1.91  60 1.94  59 1.95  61 1.98  55 2.01  29 2.78  17 2.84
                            25 2.91  37 2.95
  31  0.477  0.994  0.502-  81 1.86  51 1.89  46 1.90  62 1.94  88 1.94  56 1.96  18 2.79   1 2.84
                            36 2.85  28 2.92  40 2.94
  32  0.145  0.326  0.492-  64 1.90  80 1.92  58 1.93  50 1.93  45 1.94  87 2.00  35 2.83  27 2.90
                            39 2.93
  33  0.489  0.496  0.008-  71 1.89  43 1.92  78 1.94  65 1.94  48 2.00  85 2.01  34 2.84  23 2.85
                            14 2.90  38 2.96  26 2.98
  34  0.815  0.660  0.011-  71 1.83  67 1.94  66 1.95  72 1.96  73 1.96  65 1.97  33 2.84  37 2.84
                            25 2.87
  35  0.471  0.488  0.492-  52 1.89  68 1.89  82 1.90  87 1.92  45 1.95  74 2.00  32 2.83  40 2.88
                            14 2.91  28 2.94
  36  0.149  0.828  0.502-  44 1.80  70 1.85  51 1.87  76 1.88  86 1.88  81 1.92  39 2.82  18 2.83
                            31 2.85  27 2.88
  37  0.981  0.498  0.009-  73 1.86  66 1.90  83 1.90  60 1.96  55 1.97  77 1.99  34 2.84  38 2.90
                            30 2.95
  38  0.315  0.664  0.006-  79 1.87  83 1.89  77 1.89  85 1.90  78 1.97  84 1.98  29 2.83  23 2.85
                            37 2.90  33 2.96
  39  0.984  0.503  0.500-  80 1.88  70 1.89  64 1.95  57 1.97  86 1.98  75 2.00  22 2.71   7 2.75
                            36 2.82  24 2.85  28 2.89  32 2.93
  40  0.641  0.819  0.503-  82 1.84  88 1.91  56 1.94  74 1.94  69 1.96  63 2.00  24 2.85  35 2.88
                            31 2.94  27 2.96
  41  0.140  0.144  0.090-  25 1.92  26 2.02  19 2.08  15 2.34
  42  0.329  0.005  0.086-  26 1.85  29 1.96  21 2.00
  43  0.477  0.324  0.092-  33 1.92  17 1.95  26 1.99  15 2.28
  44  0.144  0.971  0.595-  36 1.80  27 2.01  18 2.12   2 2.29
  45  0.306  0.334  0.592-  32 1.94  35 1.95  18 2.16  14 2.35
  46  0.489  0.157  0.597-  31 1.90  28 2.04  18 2.08
  47  0.142  0.997  0.907-  25 1.92  26 1.93  21 2.05  12 2.36
  48  0.336  0.323  0.907-  26 1.89  33 2.00  19 2.10  14 2.25  12 2.36
  49  0.477  0.158  0.907-  26 1.88  29 1.98  17 2.07
  50  0.142  0.157  0.407-  32 1.93  27 1.97  18 2.01  15 2.31
  51  0.311  0.972  0.407-  36 1.87  31 1.89  18 2.05   1 2.33
  52  0.481  0.337  0.398-  35 1.89  18 2.05  28 2.05  15 2.22  10 2.31
  53  0.643  0.140  0.092-  29 1.90  30 1.90  17 2.07
  54  0.815  0.000  0.083-  30 1.91  25 1.92  23 2.03   9 2.34
  55  0.974  0.323  0.094-  37 1.97  30 2.01  19 2.10  11 2.28
  56  0.631  0.975  0.598-  40 1.94  31 1.96  20 2.10   4 2.31
  57  0.818  0.338  0.594-  39 1.97  28 1.98  20 2.14   7 2.30   8 2.36
  58  0.999  0.161  0.593-  27 1.88  32 1.93  20 2.12
  59  0.638  0.004  0.898-  29 1.80  30 1.95  23 2.10   8 2.34   4 2.37
  60  0.827  0.334  0.906-  30 1.94  37 1.96  17 2.09   8 2.33
  61  0.966  0.145  0.900-  25 1.91  30 1.98  19 2.16  12 2.38
  62  0.637  0.158  0.407-  28 1.92  31 1.94  20 2.06  11 2.35
  63  0.817  0.983  0.410-  27 1.93  20 1.96  40 2.00   9 2.27
  64  0.989  0.342  0.407-  32 1.90  39 1.95  20 2.13  11 2.33
  65  0.649  0.656  0.106-  33 1.94  34 1.97  23 2.14  10 2.30   5 2.31
  66  0.834  0.509  0.108-  37 1.90  34 1.95  17 2.13
  67  0.977  0.836  0.095-  25 1.92  34 1.94  21 1.99  16 2.32   9 2.35
  68  0.633  0.481  0.573-  28 1.84  35 1.89  22 1.96
  69  0.815  0.829  0.590-  27 1.91  40 1.96  22 2.10
  70  0.009  0.669  0.597-  36 1.85  39 1.89  22 2.14  13 2.27
  71  0.658  0.510  0.923-  34 1.83  33 1.89  17 2.02
  72  0.828  0.819  0.903-  25 1.91  34 1.96  23 2.12  13 2.21
  73  0.969  0.644  0.914-  37 1.86  34 1.96  21 2.10  13 2.21
  74  0.632  0.662  0.397-  40 1.94  35 2.00   5 2.16  22 2.23
  75  0.810  0.485  0.401-  28 1.89  22 1.93  39 2.00
  76  0.996  0.842  0.415-  36 1.88  27 1.88  22 2.08  16 2.14
  77  0.158  0.658  0.102-  38 1.89  37 1.99  21 2.06
  78  0.327  0.502  0.098-  33 1.94  38 1.97  19 2.08   6 2.33
  79  0.470  0.831  0.091-  38 1.87  29 1.88  23 2.09   1 2.30
  80  0.143  0.490  0.580-  39 1.88  32 1.92  24 1.96   7 2.30
  81  0.318  0.847  0.595-  31 1.86  36 1.92  24 2.16   2 2.24   3 2.36
  82  0.493  0.654  0.588-  40 1.84  35 1.90  24 2.12   3 2.33
  83  0.148  0.505  0.923-  38 1.89  37 1.90  19 1.96
  84  0.322  0.828  0.904-  29 1.92  38 1.98  21 2.11   3 2.31
  85  0.467  0.653  0.911-  38 1.90  23 1.95  33 2.01   3 2.29
  86  0.136  0.673  0.399-  36 1.88  39 1.98  24 2.12  16 2.29
  87  0.314  0.498  0.400-  35 1.92  24 1.95  32 2.00   6 2.28
  88  0.493  0.839  0.408-  40 1.91  31 1.94  24 2.04   1 2.34
 
  LATTYP: Found a hexagonal cell.
 ALAT       =    10.0190000534
 C/A-ratio  =     1.1196726572
  
  Lattice vectors:
  
 A1 = (  10.0190000534,   0.0000000000,   0.0000000000)
 A2 = (  -5.0095000267,   8.6767085668,   0.0000000000)
 A3 = (   0.0000000000,   0.0000000000,  11.2180004120)


Analysis of symmetry for initial positions (statically):
=====================================================================
 Subroutine PRICEL returns:
 Original cell was already a primitive cell.
 

 Routine SETGRP: Setting up the symmetry group for a 
 hexagonal supercell.


 Subroutine GETGRP returns: Found  1 space group operations
 (whereof  1 operations were pure point group operations)
 out of a pool of 24 trial point group operations.


The static configuration has the point symmetry C_1 .


Analysis of symmetry for dynamics (positions and initial velocities):
=====================================================================
 Subroutine PRICEL returns:
 Original cell was already a primitive cell.
 

 Routine SETGRP: Setting up the symmetry group for a 
 hexagonal supercell.


 Subroutine GETGRP returns: Found  1 space group operations
 (whereof  1 operations were pure point group operations)
 out of a pool of 24 trial point group operations.


The dynamic configuration has the point symmetry C_1 .


Analysis of structural, dynamic, and magnetic symmetry:
=====================================================================
 Subroutine PRICEL returns:
 Original cell was already a primitive cell.
 

 Routine SETGRP: Setting up the symmetry group for a 
 hexagonal supercell.


 Subroutine GETGRP returns: Found  1 space group operations
 (whereof  1 operations were pure point group operations)
 out of a pool of 24 trial point group operations.


The magnetic configuration has the point symmetry C_1 .


 Subroutine INISYM returns: Found  1 space group operations
 (whereof  1 operations are pure point group operations),
 and found     1 'primitive' translations

 
 

Automatic generation of k-mesh.
 generate k-points for:    2    2    2
Space group operators:
 irot       det(A)        alpha          n_x          n_y          n_z        tau_x        tau_y        tau_z
    1     1.000000     0.000000     1.000000     0.000000     0.000000     0.000000     0.000000     0.000000
 
 Subroutine IBZKPT returns following result:
 ===========================================
 
 Found      8 irreducible k-points:
 
 Following reciprocal coordinates:
            Coordinates               Weight
  0.000000  0.000000  0.000000      1.000000
  0.500000 -0.000000 -0.000000      1.000000
  0.000000  0.500000  0.000000      1.000000
  0.500000  0.500000 -0.000000      1.000000
  0.000000  0.000000  0.500000      1.000000
  0.500000 -0.000000  0.500000      1.000000
  0.000000  0.500000  0.500000      1.000000
  0.500000  0.500000  0.500000      1.000000
 
 Following cartesian coordinates:
            Coordinates               Weight
  0.000000  0.000000  0.000000      1.000000
  0.049905  0.028813 -0.000000      1.000000
  0.000000  0.057626  0.000000      1.000000
  0.049905  0.086438 -0.000000      1.000000
  0.000000  0.000000  0.044571      1.000000
  0.049905  0.028813  0.044571      1.000000
  0.000000  0.057626  0.044571      1.000000
  0.049905  0.086438  0.044571      1.000000
 


--------------------------------------------------------------------------------------------------------




 Dimension of arrays:
   k-points           NKPTS =      8   k-points in BZ     NKDIM =      8   number of bands    NBANDS=    448
   number of dos      NEDOS =    301   number of ions     NIONS =     88
   non local maximal  LDIM  =      6   non local SUM 2l+1 LMDIM =     18
   total plane-waves  NPLWV = 140000
   max r-space proj   IRMAX =   1632   max aug-charges    IRDMAX=   4555
   dimension x,y,z NGX =    50 NGY =   50 NGZ =   56
   dimension x,y,z NGXF=   100 NGYF=  100 NGZF=  112
   support grid    NGXF=   100 NGYF=  100 NGZF=  112
   ions per type =              16   8  16  48
   NGX,Y,Z   is equivalent  to a cutoff of   8.30,  8.30,  8.30 a.u.
   NGXF,Y,Z  is equivalent  to a cutoff of  16.59, 16.59, 16.60 a.u.

 SYSTEM =  unknown system                          
 POSCAR =  Na Mg Mn  O                             

 Startparameter for this run:
   NWRITE =      2    write-flag & timer
   PREC   = normal    normal or accurate (medium, high low for compatibility)
   ISTART =      0    job   : 0-new  1-cont  2-samecut
   ICHARG =      1    charge: 1-file 2-atom 10-const
   ISPIN  =      2    spin polarized calculation?
   LNONCOLLINEAR =      F non collinear calculations
   LSORBIT =      F    spin-orbit coupling
   INIWAV =      1    electr: 0-lowe 1-rand  2-diag
   LASPH  =      T    aspherical Exc in radial PAW
   METAGGA=      F    non-selfconsistent MetaGGA calc.

 Electronic Relaxation 1
   ENCUT  =  400.0 eV  29.40 Ry    5.42 a.u.  16.34 16.34 18.29*2*pi/ulx,y,z
   ENINI  =  400.0     initial cutoff
   ENAUG  =  758.8 eV  augmentation charge cutoff
   NELM   =    200;   NELMIN=  6; NELMDL=-12     # of ELM steps 
   EDIFF  = 0.1E-04   stopping-criterion for ELM
   LREAL  =      T    real-space projection
   NLSPLINE    = F    spline interpolate recip. space projectors
   LCOMPAT=      F    compatible to vasp.4.4
   GGA_COMPAT  = T    GGA compatible to vasp.4.4-vasp.4.6
   LMAXPAW     = -100 max onsite density
   LMAXMIX     =    4 max onsite mixed and CHGCAR
   VOSKOWN=      0    Vosko Wilk Nusair interpolation
   ROPT   =   -0.00050  -0.00050  -0.00050  -0.00050
 Ionic relaxation
   EDIFFG = 0.1E-03   stopping-criterion for IOM
   NSW    =      1    number of steps for IOM
   NBLOCK =      1;   KBLOCK =      1    inner block; outer block 
   IBRION =     -1    ionic relax: 0-MD 1-quasi-New 2-CG
   NFREE  =      0    steps in history (QN), initial steepest desc. (CG)
   ISIF   =      2    stress and relaxation
   IWAVPR =     10    prediction:  0-non 1-charg 2-wave 3-comb
   ISYM   =      2    0-nonsym 1-usesym 2-fastsym
   LCORR  =      T    Harris-Foulkes like correction to forces

   POTIM  = 0.5000    time-step for ionic-motion
   TEIN   =    0.0    initial temperature
   TEBEG  =    0.0;   TEEND  =   0.0 temperature during run
   SMASS  =  -3.00    Nose mass-parameter (am)
   estimated Nose-frequenzy (Omega)   =  0.10E-29 period in steps =****** mass=  -0.229E-26a.u.
   SCALEE = 1.0000    scale energy and forces
   NPACO  =    256;   APACO  = 16.0  distance and # of slots for P.C.
   PSTRESS=    0.0 pullay stress

  Mass of Ions in am
   POMASS =  22.99 24.30 54.94 16.00
  Ionic Valenz
   ZVAL   =   7.00  8.00 13.00  6.00
  Atomic Wigner-Seitz radii
   RWIGS  =  -1.00 -1.00 -1.00 -1.00
  virtual crystal weights 
   VCA    =   1.00  1.00  1.00  1.00
   NELECT =     672.0000    total number of electrons
   NUPDOWN=      48.0000    fix difference up-down

 DOS related values:
   EMIN   =  10.00;   EMAX   =-10.00  energy-range for DOS
   EFERMI =   0.00
   ISMEAR =     0;   SIGMA  =   0.05  broadening in eV -4-tet -1-fermi 0-gaus

 Electronic relaxation 2 (details)
   IALGO  =     48    algorithm
   LDIAG  =      T    sub-space diagonalisation (order eigenvalues)
   LSUBROT=      F    optimize rotation matrix (better conditioning)
   TURBO    =      0    0=normal 1=particle mesh
   IRESTART =      0    0=no restart 2=restart with 2 vectors
   NREBOOT  =      0    no. of reboots
   NMIN     =      0    reboot dimension
   EREF     =   0.00    reference energy to select bands
   IMIX   =      4    mixing-type and parameters
     AMIX     =   0.40;   BMIX     =  1.00
     AMIX_MAG =   1.60;   BMIX_MAG =  1.00
     AMIN     =   0.10
     WC   =   100.;   INIMIX=   1;  MIXPRE=   1;  MAXMIX= -45

 Intra band minimization:
   WEIMIN = 0.0000     energy-eigenvalue tresh-hold
   EBREAK =  0.56E-08  absolut break condition
   DEPER  =   0.30     relativ break condition  

   TIME   =   0.40     timestep for ELM

  volume/ion in A,a.u.               =      11.08        74.78
  Fermi-wavevector in a.u.,A,eV,Ry     =   1.445993  2.732531 28.448379  2.090897
  Thomas-Fermi vector in A             =   2.564112
 
 Write flags
   LWAVE        =      F    write WAVECAR
   LDOWNSAMPLE  =      F    k-point downsampling of WAVECAR
   LCHARG       =      F    write CHGCAR
   LVTOT        =      F    write LOCPOT, total local potential
   LVHAR        =      F    write LOCPOT, Hartree potential only
   LELF         =      F    write electronic localiz. function (ELF)
   LORBIT       =     11    0 simple, 1 ext, 2 COOP (PROOUT), +10 PAW based schemes


 Dipole corrections
   LMONO  =      F    monopole corrections only (constant potential shift)
   LDIPOL =      F    correct potential (dipole corrections)
   IDIPOL =      0    1-x, 2-y, 3-z, 4-all directions 
   EPSILON=  1.0000000 bulk dielectric constant

 Exchange correlation treatment:
   GGA     =    --    GGA type
   LEXCH   =     8    internal setting for exchange type
   VOSKOWN=      0    Vosko Wilk Nusair interpolation
   LHFCALC =     F    Hartree Fock is set to
   LHFONE  =     F    Hartree Fock one center treatment
   AEXX    =    0.0000 exact exchange contribution

 Linear response parameters
   LEPSILON=     F    determine dielectric tensor
   LRPA    =     F    only Hartree local field effects (RPA)
   LNABLA  =     F    use nabla operator in PAW spheres
   LVEL    =     F    velocity operator in full k-point grid
   LINTERFAST=   F  fast interpolation
   KINTER  =     0    interpolate to denser k-point grid
   CSHIFT  =0.1000    complex shift for real part using Kramers Kronig
   OMEGAMAX=  -1.0    maximum frequency
   DEG_THRESHOLD= 0.2000000E-02 threshold for treating states as degnerate
   RTIME   =   -0.100 relaxation time in fs
  (WPLASMAI=    0.000 imaginary part of plasma frequency in eV, 0.658/RTIME)
   DFIELD  = 0.0000000 0.0000000 0.0000000 field for delta impulse in time
 
 Orbital magnetization related:
   ORBITALMAG=     F  switch on orbital magnetization
   LCHIMAG   =     F  perturbation theory with respect to B field
   DQ        =  0.001000  dq finite difference perturbation B field
   LLRAUG    =     F  two centre corrections for induced B field



--------------------------------------------------------------------------------------------------------


 Static calculation
 charge density and potential will be updated during run
 spin polarized calculation
 RMM-DIIS sequential band-by-band
 perform sub-space diagonalisation
    before iterative eigenvector-optimisation
 modified Broyden-mixing scheme, WC =      100.0
 initial mixing is a Kerker type mixing with AMIX =  0.4000 and BMIX =      1.0000
 Hartree-type preconditioning will be used
 using additional bands          112
 real space projection scheme for non local part
 use partial core corrections
 calculate Harris-corrections to forces 
   (improved forces if not selfconsistent)
 use gradient corrections 
 use of overlap-Matrix (Vanderbilt PP)
 Gauss-broadening in eV      SIGMA  =   0.05


--------------------------------------------------------------------------------------------------------


  energy-cutoff  :      400.00
  volume of cell :      975.20
      direct lattice vectors                 reciprocal lattice vectors
    10.019000053  0.000000000  0.000000000     0.099810360  0.057625538 -0.000000000
    -5.009500027  8.676708567  0.000000000     0.000000000  0.115251076  0.000000000
     0.000000000  0.000000000 11.218000412     0.000000000  0.000000000  0.089142446

  length of vectors
    10.019000053 10.019000053 11.218000412     0.115251076  0.115251076  0.089142446


 
 k-points in units of 2pi/SCALE and weight: read from INCAR                         
   0.00000000  0.00000000  0.00000000       0.125
   0.04990518  0.02881277 -0.00000000       0.125
   0.00000000  0.05762554  0.00000000       0.125
   0.04990518  0.08643831 -0.00000000       0.125
   0.00000000  0.00000000  0.04457122       0.125
   0.04990518  0.02881277  0.04457122       0.125
   0.00000000  0.05762554  0.04457122       0.125
   0.04990518  0.08643831  0.04457122       0.125
 
 k-points in reciprocal lattice and weights: read from INCAR                         
   0.00000000  0.00000000  0.00000000       0.125
   0.50000000 -0.00000000 -0.00000000       0.125
   0.00000000  0.50000000  0.00000000       0.125
   0.50000000  0.50000000 -0.00000000       0.125
   0.00000000  0.00000000  0.50000000       0.125
   0.50000000 -0.00000000  0.50000000       0.125
   0.00000000  0.50000000  0.50000000       0.125
   0.50000000  0.50000000  0.50000000       0.125
 
 position of ions in fractional coordinates (direct lattice) 
   0.46158041  0.97122549  0.24927081
   0.30576478  0.98676860  0.74591814
   0.41341365  0.75082372  0.74502404
   0.78727518  0.97354428  0.74925296
   0.49384323  0.66886423  0.25247548
   0.15746615  0.48466881  0.24784096
   0.99378476  0.46734196  0.74295415
   0.66396777  0.18439826  0.75372434
   0.95049584  0.98289806  0.24730076
   0.64254485  0.48755700  0.24686574
   0.81387957  0.28279058  0.25180513
   0.15577593  0.17084721  0.75924672
   0.91076043  0.73462995  0.75451236
   0.47464141  0.46444801  0.75082097
   0.31293903  0.23024975  0.24960420
   0.98398506  0.70575034  0.26385629
   0.65087819  0.32919626  0.00851973
   0.31644096  0.15443298  0.49322426
   0.15445321  0.32972526  0.99519519
   0.81031568  0.14894358  0.49835798
   0.14651446  0.82884886  0.00814365
   0.81731510  0.64832418  0.49686038
   0.64332183  0.82437597  0.99051917
   0.31262235  0.66084506  0.49390353
   0.97470955  0.99073859  0.99504959
   0.31542033  0.15279296  0.99554769
   0.98198953  0.99265197  0.50579691
   0.65101608  0.33011481  0.49448830
   0.48616975  0.98991800  0.99291342
   0.80638652  0.15835844  0.99467816
   0.47737091  0.99379962  0.50193170
   0.14476764  0.32611099  0.49249686
   0.48873961  0.49636333  0.00841802
   0.81547643  0.66013742  0.01107586
   0.47054460  0.48766073  0.49240772
   0.14902220  0.82833484  0.50158761
   0.98114680  0.49820735  0.00866762
   0.31544117  0.66392457  0.00635646
   0.98410717  0.50299027  0.50042787
   0.64107121  0.81917007  0.50272061
   0.13978668  0.14439001  0.08998395
   0.32899119  0.00539231  0.08586860
   0.47716569  0.32394311  0.09184792
   0.14411164  0.97140522  0.59548937
   0.30595582  0.33367031  0.59240772
   0.48947150  0.15657550  0.59701549
   0.14163605  0.99677446  0.90730965
   0.33633077  0.32290009  0.90721159
   0.47695399  0.15785248  0.90695308
   0.14202537  0.15728660  0.40673737
   0.31123310  0.97182243  0.40707076
   0.48078607  0.33731224  0.39790068
   0.64267409  0.14044150  0.09181939
   0.81535035  0.00036235  0.08299599
   0.97401083  0.32322280  0.09442324
   0.63050709  0.97491577  0.59842751
   0.81823757  0.33752315  0.59421820
   0.99898337  0.16056780  0.59257709
   0.63757226  0.00414941  0.89841323
   0.82737300  0.33436873  0.90644497
   0.96598003  0.14457210  0.89950968
   0.63668247  0.15787438  0.40739257
   0.81693521  0.98348814  0.41037973
   0.98898989  0.34150507  0.40711266
   0.64853720  0.65641366  0.10581387
   0.83354077  0.50887614  0.10802727
   0.97702449  0.83591145  0.09514530
   0.63277188  0.48144754  0.57301121
   0.81538533  0.82893415  0.59025403
   0.00850485  0.66856573  0.59680066
   0.65753083  0.51016696  0.92339094
   0.82827553  0.81939366  0.90319127
   0.96891362  0.64359428  0.91381705
   0.63248113  0.66202984  0.39671063
   0.81034101  0.48471837  0.40109376
   0.99579377  0.84218341  0.41503653
   0.15761259  0.65770447  0.10210822
   0.32672986  0.50235063  0.09797557
   0.47026862  0.83050271  0.09088964
   0.14285314  0.49034147  0.57969957
   0.31804203  0.84651224  0.59499552
   0.49266698  0.65425500  0.58821178
   0.14783263  0.50495761  0.92314135
   0.32178812  0.82766408  0.90415400
   0.46709902  0.65342750  0.91125866
   0.13596246  0.67327835  0.39943037
   0.31427042  0.49769564  0.40032268
   0.49316148  0.83880425  0.40848902
 
 position of ions in cartesian coordinates  (Angst):
  -0.24078003  8.42704057  2.79632000
  -1.87976003  8.56190357  8.36771000
   0.38073997  6.51467857  8.35768000
   3.01074000  8.44716000  8.40512000
   1.59714000  5.80354000  2.83227000
  -0.85029500  4.20533000  2.78028000
   7.61558000  4.05499000  8.33446000
   5.72855005  1.59997000  8.45528000
   4.59919000  8.52832000  2.77422000
   3.99524005  4.23039000  2.76934000
   6.73762003  2.45369143  2.82475000
   0.70485997  1.48239143  8.51723000
   5.44478000  6.37417000  8.46412000
   2.42878000  4.02988000  8.42271000
   1.98190000  1.99781000  2.80006000
   6.32309005  6.12359000  2.95994000
   4.87204000  2.85634000  0.09557430
   2.39679000  1.33997000  5.53299000
  -0.10429200  2.86093000 11.16410000
   7.37242000  1.29234000  5.59058000
  -2.68419000  7.19168000  0.09135550
   4.94090000  5.62532000  5.57378000
   2.31573000  7.15287000 11.11164441
  -0.17834000  5.73396000  5.54061000
   4.80251000  8.59635000 11.16246671
   2.39478000  1.32574000 11.16805441
   4.86586303  8.61295187  5.67403000
   4.86882000  2.86431000  5.54717000
  -0.08805950  8.58923000 11.13850321
   7.28589000  1.37403000 11.15830000
  -0.19566003  8.62290967  5.63067000
  -0.18322600  2.82957000  5.52483000
   2.41015000  4.30680000  0.09443340
   4.86330000  5.72782000  0.12424900
   2.27145000  4.23129000  5.52383000
  -2.65649000  7.18722000  5.62681000
   7.33434005  4.32280000  0.09723340
  -0.16552500  5.76068000  0.07130680
   7.34004005  4.36430000  5.61380000
   2.31926000  7.10770000  5.63952000
   0.67720100  1.25283000  1.00944000
   3.26915000  0.04678750  0.96327400
   3.15793000  2.81076000  1.03035000
  -3.42240000  8.42860000  6.68020000
   1.39385000  2.89516000  6.64563000
   4.11965000  1.35856000  6.69732000
  -3.57429003  8.64872147 10.17820000
   1.75213000  2.80171000 10.17710000
   3.98784000  1.36964000 10.17420000
   0.63502500  1.36473000  4.56278000
  -1.75010000  8.43222000  4.56652000
   3.12723000  2.92676000  4.46365000
   5.73541000  1.21857000  1.03003000
   8.16718000  0.00314399  0.93104900
   8.13943000  2.80451000  1.05924000
   1.43321000  8.45906000  6.71316000
   6.50710000  2.92859000  6.66594000
   9.20445005  1.39320000  6.64753000
   6.36705000  0.03600320 10.07840000
   6.61443000  2.90122000 10.16850000
   8.95392000  1.25441000 10.09070000
   5.58805000  1.36983000  4.57013000
   3.25809000  8.53344000  4.60364000
   8.19792005  2.96314000  4.56699000
   3.20939000  5.69551000  1.18702000
   5.80203000  4.41537000  1.21185000
   5.60131000  7.25296000  1.06734000
   3.92793000  4.17738000  6.42804000
   4.01680000  7.19242000  6.62147000
  -3.26397000  5.80095000  6.69491000
   4.03212000  4.42657000 10.35860000
   4.19374000  7.10964000 10.13200000
   6.48346000  5.58428000 10.25120000
   3.02039000  5.74424000  4.45030000
   5.69061000  4.20576000  4.49947000
   5.75794005  7.30738000  4.65588000
  -1.71565000  5.70671000  1.14545000
   0.75698100  4.35875000  1.09909000
   0.55121800  7.20603000  1.01960000
  -1.02512000  4.25455000  6.50307000
  -1.05414000  7.34494000  6.67466000
   1.65854000  5.67678000  6.59856000
  -1.04845000  4.38137000 10.35580000
  -0.92218800  7.18140000 10.14280000
   1.40652000  5.66960000 10.22250000
  -2.01058000  5.84184000  4.48081000
   0.65546900  4.31836000  4.49082000
   0.73899500  7.27806000  4.58243000
 


--------------------------------------------------------------------------------------------------------


 k-point  1 :   0.0000 0.0000 0.0000  plane waves:   17725
 k-point  2 :   0.5000-0.0000-0.0000  plane waves:   17736
 k-point  3 :   0.0000 0.5000 0.0000  plane waves:   17736
 k-point  4 :   0.5000 0.5000-0.0000  plane waves:   17736
 k-point  5 :   0.0000 0.0000 0.5000  plane waves:   17676
 k-point  6 :   0.5000-0.0000 0.5000  plane waves:   17700
 k-point  7 :   0.0000 0.5000 0.5000  plane waves:   17700
 k-point  8 :   0.5000 0.5000 0.5000  plane waves:   17700

 maximum and minimum number of plane-waves per node :     17736    17676

 maximum number of plane-waves:     17736
 maximum index in each direction: 
   IXMAX=   16   IYMAX=   16   IZMAX=   18
   IXMIN=  -16   IYMIN=  -16   IZMIN=  -18


 serial   3D FFT for wavefunctions
 parallel 3D FFT for charge:
    minimum data exchange during FFTs selected (reduces bandwidth)


 total amount of memory used by VASP MPI-rank0    88182. kBytes
=======================================================================

   base      :      30000. kBytes
   nonlr-proj:      13673. kBytes
   fftplans  :        992. kBytes
   grid      :      21513. kBytes
   one-center:       2737. kBytes
   wavefun   :      19267. kBytes
 
     INWAV:  cpu time    0.0000: real time    0.0001
 Broyden mixing: mesh for mixing (old mesh)
   NGX = 33   NGY = 33   NGZ = 37
  (NGX  =100   NGY  =100   NGZ  =112)
  gives a total of  40293 points

 initial charge density was supplied:
 charge density of overlapping atoms calculated
 number of electron     672.0000000 magnetization      48.0000000
 keeping initial charge density in first step


--------------------------------------------------------------------------------------------------------


 Maximum index for non-local projection operator         1551
 Maximum index for augmentation-charges          285 (set IRDMAX)


--------------------------------------------------------------------------------------------------------


 First call to EWALD:  gamma=   0.179
 Maximum number of real-space cells 3x 3x 2
 Maximum number of reciprocal cells 3x 3x 3

    FEWALD:  cpu time    0.0024: real time    0.0029


--------------------------------------- Iteration      1(   1)  ---------------------------------------


    POTLOK:  cpu time    0.2652: real time    0.2697
    SETDIJ:  cpu time    3.1284: real time    3.1294
    EDDIAG:  cpu time    3.8079: real time    3.8139
  RMM-DIIS:  cpu time    6.5995: real time    6.6022
    ORTHCH:  cpu time    1.1538: real time    1.1563
       DOS:  cpu time    0.0024: real time    0.0025
    --------------------------------------------
      LOOP:  cpu time   14.9573: real time   14.9740

 eigenvalue-minimisations  :  7168
 total energy-change (2. order) : 0.1828799E+04  (-0.3586618E+05)
 number of electron     672.0000000 magnetization      48.0000000
 augmentation part      672.0000000 magnetization      48.0000000

 Free energy of the ion-electron system (eV)
  ---------------------------------------------------
  alpha Z        PSCENC =      2652.81237852
  Ewald energy   TEWEN  =    -41788.08151996
  -Hartree energ DENC   =    -25823.72592886
  -exchange      EXHF   =         0.00000000
  -V(xc)+E(xc)   XCENC  =      3606.08694942
  PAW double counting   =     55594.23204139   -59034.67079123
  entropy T*S    EENTRO =        -0.05362411
  eigenvalues    EBANDS =     -7239.99864945
  atomic energy  EATOM  =     73862.19814772
  Solvation  Ediel_sol  =         0.00000000
  ---------------------------------------------------
  free energy    TOTEN  =      1828.79900344 eV

  energy without entropy =     1828.85262755  energy(sigma->0) =     1828.82581550


--------------------------------------------------------------------------------------------------------




--------------------------------------- Iteration      1(   2)  ---------------------------------------


    EDDIAG:  cpu time    3.6798: real time    3.6839
  RMM-DIIS:  cpu time    6.6072: real time    6.6277
    ORTHCH:  cpu time    1.1663: real time    1.1692
       DOS:  cpu time    0.0015: real time    0.0015
    --------------------------------------------
      LOOP:  cpu time   11.4549: real time   11.4824

 eigenvalue-minimisations  :  7168
 total energy-change (2. order) :-0.2657795E+04  (-0.8648741E+04)
 number of electron     672.0000000 magnetization      48.0000000
 augmentation part      672.0000000 magnetization      48.0000000

 Free energy of the ion-electron system (eV)
  ---------------------------------------------------
  alpha Z        PSCENC =      2652.81237852
  Ewald energy   TEWEN  =    -41788.08151996
  -Hartree energ DENC   =    -25823.72592886
  -exchange      EXHF   =         0.00000000
  -V(xc)+E(xc)   XCENC  =      3606.08694942
  PAW double counting   =     55594.23204139   -59034.67079123
  entropy T*S    EENTRO =        -0.05098376
  eigenvalues    EBANDS =     -9897.79660493
  atomic energy  EATOM  =     73862.19814772
  Solvation  Ediel_sol  =         0.00000000
  ---------------------------------------------------
  free energy    TOTEN  =      -828.99631170 eV

  energy without entropy =     -828.94532793  energy(sigma->0) =     -828.97081982


--------------------------------------------------------------------------------------------------------




--------------------------------------- Iteration      1(   3)  ---------------------------------------


    EDDIAG:  cpu time    3.7457: real time    3.7492
  RMM-DIIS:  cpu time    6.6143: real time    6.6218
    ORTHCH:  cpu time    1.2177: real time    1.2199
       DOS:  cpu time    0.0015: real time    0.0015
    --------------------------------------------
      LOOP:  cpu time   11.5792: real time   11.5924

 eigenvalue-minimisations  :  7168
 total energy-change (2. order) : 0.2958083E+03  (-0.1555940E+04)
 number of electron     672.0000000 magnetization      48.0000000
 augmentation part      672.0000000 magnetization      48.0000000

 Free energy of the ion-electron system (eV)
  ---------------------------------------------------
  alpha Z        PSCENC =      2652.81237852
  Ewald energy   TEWEN  =    -41788.08151996
  -Hartree energ DENC   =    -25823.72592886
  -exchange      EXHF   =         0.00000000
  -V(xc)+E(xc)   XCENC  =      3606.08694942
  PAW double counting   =     55594.23204139   -59034.67079123
  entropy T*S    EENTRO =        -0.04085842
  eigenvalues    EBANDS =     -9601.99847661
  atomic energy  EATOM  =     73862.19814772
  Solvation  Ediel_sol  =         0.00000000
  ---------------------------------------------------
  free energy    TOTEN  =      -533.18805803 eV

  energy without entropy =     -533.14719961  energy(sigma->0) =     -533.16762882


--------------------------------------------------------------------------------------------------------




--------------------------------------- Iteration      1(   4)  ---------------------------------------


    EDDIAG:  cpu time    3.7062: real time    3.7094
  RMM-DIIS:  cpu time    6.5934: real time    6.5974
    ORTHCH:  cpu time    1.1488: real time    1.1511
       DOS:  cpu time    0.0011: real time    0.0011
    --------------------------------------------
      LOOP:  cpu time   11.4496: real time   11.4590

 eigenvalue-minimisations  :  7168
 total energy-change (2. order) :-0.5241891E+03  (-0.5075096E+03)
 number of electron     672.0000000 magnetization      48.0000000
 augmentation part      672.0000000 magnetization      48.0000000

 Free energy of the ion-electron system (eV)
  ---------------------------------------------------
  alpha Z        PSCENC =      2652.81237852
  Ewald energy   TEWEN  =    -41788.08151996
  -Hartree energ DENC   =    -25823.72592886
  -exchange      EXHF   =         0.00000000
  -V(xc)+E(xc)   XCENC  =      3606.08694942
  PAW double counting   =     55594.23204139   -59034.67079123
  entropy T*S    EENTRO =        -0.00000422
  eigenvalues    EBANDS =    -10126.22847822
  atomic energy  EATOM  =     73862.19814772
  Solvation  Ediel_sol  =         0.00000000
  ---------------------------------------------------
  free energy    TOTEN  =     -1057.37720544 eV

  energy without entropy =    -1057.37720122  energy(sigma->0) =    -1057.37720333


--------------------------------------------------------------------------------------------------------




--------------------------------------- Iteration      1(   5)  ---------------------------------------


    EDDIAG:  cpu time    3.7513: real time    3.7558
  RMM-DIIS:  cpu time    6.5249: real time    6.6099
    ORTHCH:  cpu time    1.1566: real time    1.1590
       DOS:  cpu time    0.0012: real time    0.0012
    --------------------------------------------
      LOOP:  cpu time   11.4340: real time   11.5258

 eigenvalue-minimisations  :  7168
 total energy-change (2. order) :-0.1479669E+03  (-0.2133040E+03)
 number of electron     672.0000000 magnetization      48.0000000
 augmentation part      672.0000000 magnetization      48.0000000

 Free energy of the ion-electron system (eV)
  ---------------------------------------------------
  alpha Z        PSCENC =      2652.81237852
  Ewald energy   TEWEN  =    -41788.08151996
  -Hartree energ DENC   =    -25823.72592886
  -exchange      EXHF   =         0.00000000
  -V(xc)+E(xc)   XCENC  =      3606.08694942
  PAW double counting   =     55594.23204139   -59034.67079123
  entropy T*S    EENTRO =        -0.00000000
  eigenvalues    EBANDS =    -10274.19536519
  atomic energy  EATOM  =     73862.19814772
  Solvation  Ediel_sol  =         0.00000000
  ---------------------------------------------------
  free energy    TOTEN  =     -1205.34408819 eV

  energy without entropy =    -1205.34408819  energy(sigma->0) =    -1205.34408819


--------------------------------------------------------------------------------------------------------




--------------------------------------- Iteration      1(   6)  ---------------------------------------


    EDDIAG:  cpu time    3.7122: real time    3.7155
  RMM-DIIS:  cpu time    6.5838: real time    6.5897
    ORTHCH:  cpu time    1.1497: real time    1.1522
       DOS:  cpu time    0.0013: real time    0.0013
    --------------------------------------------
      LOOP:  cpu time   11.4470: real time   11.4588

 eigenvalue-minimisations  :  7168
 total energy-change (2. order) :-0.2153446E+02  (-0.1153724E+03)
 number of electron     672.0000000 magnetization      48.0000000
 augmentation part      672.0000000 magnetization      48.0000000

 Free energy of the ion-electron system (eV)
  ---------------------------------------------------
  alpha Z        PSCENC =      2652.81237852
  Ewald energy   TEWEN  =    -41788.08151996
  -Hartree energ DENC   =    -25823.72592886
  -exchange      EXHF   =         0.00000000
  -V(xc)+E(xc)   XCENC  =      3606.08694942
  PAW double counting   =     55594.23204139   -59034.67079123
  entropy T*S    EENTRO =        -0.00000000
  eigenvalues    EBANDS =    -10295.72982723
  atomic energy  EATOM  =     73862.19814772
  Solvation  Ediel_sol  =         0.00000000
  ---------------------------------------------------
  free energy    TOTEN  =     -1226.87855023 eV

  energy without entropy =    -1226.87855023  energy(sigma->0) =    -1226.87855023


--------------------------------------------------------------------------------------------------------




--------------------------------------- Iteration      1(   7)  ---------------------------------------


    EDDIAG:  cpu time    3.7288: real time    3.7316
  RMM-DIIS:  cpu time    6.6485: real time    6.6560
    ORTHCH:  cpu time    1.1497: real time    1.1519
       DOS:  cpu time    0.0010: real time    0.0010
    --------------------------------------------
      LOOP:  cpu time   11.5281: real time   11.5406

 eigenvalue-minimisations  :  7168
 total energy-change (2. order) :-0.6733819E+01  (-0.7619359E+02)
 number of electron     672.0000000 magnetization      48.0000000
 augmentation part      672.0000000 magnetization      48.0000000

 Free energy of the ion-electron system (eV)
  ---------------------------------------------------
  alpha Z        PSCENC =      2652.81237852
  Ewald energy   TEWEN  =    -41788.08151996
  -Hartree energ DENC   =    -25823.72592886
  -exchange      EXHF   =         0.00000000
  -V(xc)+E(xc)   XCENC  =      3606.08694942
  PAW double counting   =     55594.23204139   -59034.67079123
  entropy T*S    EENTRO =        -0.00000000
  eigenvalues    EBANDS =    -10302.46364619
  atomic energy  EATOM  =     73862.19814772
  Solvation  Ediel_sol  =         0.00000000
  ---------------------------------------------------
  free energy    TOTEN  =     -1233.61236919 eV

  energy without entropy =    -1233.61236919  energy(sigma->0) =    -1233.61236919


--------------------------------------------------------------------------------------------------------




--------------------------------------- Iteration      1(   8)  ---------------------------------------


    EDDIAG:  cpu time    3.7847: real time    3.8085
  RMM-DIIS:  cpu time    6.6080: real time    6.6108
    ORTHCH:  cpu time    1.1559: real time    1.1581
       DOS:  cpu time    0.0010: real time    0.0010
    --------------------------------------------
      LOOP:  cpu time   11.5496: real time   11.5785

 eigenvalue-minimisations  :  7168
 total energy-change (2. order) : 0.4646113E+01  (-0.5274726E+02)
 number of electron     672.0000000 magnetization      48.0000000
 augmentation part      672.0000000 magnetization      48.0000000

 Free energy of the ion-electron system (eV)
  ---------------------------------------------------
  alpha Z        PSCENC =      2652.81237852
  Ewald energy   TEWEN  =    -41788.08151996
  -Hartree energ DENC   =    -25823.72592886
  -exchange      EXHF   =         0.00000000
  -V(xc)+E(xc)   XCENC  =      3606.08694942
  PAW double counting   =     55594.23204139   -59034.67079123
  entropy T*S    EENTRO =        -0.00000001
  eigenvalues    EBANDS =    -10297.81753365
  atomic energy  EATOM  =     73862.19814772
  Solvation  Ediel_sol  =         0.00000000
  ---------------------------------------------------
  free energy    TOTEN  =     -1228.96625666 eV

  energy without entropy =    -1228.96625665  energy(sigma->0) =    -1228.96625666


--------------------------------------------------------------------------------------------------------




--------------------------------------- Iteration      1(   9)  ---------------------------------------


    EDDIAG:  cpu time    3.7930: real time    3.7993
  RMM-DIIS:  cpu time   13.8290: real time   13.8383
    ORTHCH:  cpu time    1.1458: real time    1.1653
       DOS:  cpu time    0.0049: real time    0.0134
    --------------------------------------------
      LOOP:  cpu time   18.7726: real time   18.8163

 eigenvalue-minimisations  : 20240
 total energy-change (2. order) : 0.1806306E+02  (-0.2363526E+02)
 number of electron     672.0000000 magnetization      48.0000000
 augmentation part      672.0000000 magnetization      48.0000000

 Free energy of the ion-electron system (eV)
  ---------------------------------------------------
  alpha Z        PSCENC =      2652.81237852
  Ewald energy   TEWEN  =    -41788.08151996
  -Hartree energ DENC   =    -25823.72592886
  -exchange      EXHF   =         0.00000000
  -V(xc)+E(xc)   XCENC  =      3606.08694942
  PAW double counting   =     55594.23204139   -59034.67079123
  entropy T*S    EENTRO =        -0.00000000
  eigenvalues    EBANDS =    -10279.75447787
  atomic energy  EATOM  =     73862.19814772
  Solvation  Ediel_sol  =         0.00000000
  ---------------------------------------------------
  free energy    TOTEN  =     -1210.90320087 eV

  energy without entropy =    -1210.90320087  energy(sigma->0) =    -1210.90320087


--------------------------------------------------------------------------------------------------------




--------------------------------------- Iteration      1(  10)  ---------------------------------------


    EDDIAG:  cpu time    3.7534: real time    3.7588
  RMM-DIIS:  cpu time   15.6160: real time   15.6274
    ORTHCH:  cpu time    1.1588: real time    1.1611
       DOS:  cpu time    0.0011: real time    0.0011
    --------------------------------------------
      LOOP:  cpu time   20.5292: real time   20.5484

 eigenvalue-minimisations  : 20190
 total energy-change (2. order) :-0.3075137E+01  (-0.1033737E+01)
 number of electron     672.0000000 magnetization      48.0000000
 augmentation part      672.0000000 magnetization      48.0000000

 Free energy of the ion-electron system (eV)
  ---------------------------------------------------
  alpha Z        PSCENC =      2652.81237852
  Ewald energy   TEWEN  =    -41788.08151996
  -Hartree energ DENC   =    -25823.72592886
  -exchange      EXHF   =         0.00000000
  -V(xc)+E(xc)   XCENC  =      3606.08694942
  PAW double counting   =     55594.23204139   -59034.67079123
  entropy T*S    EENTRO =        -0.00000012
  eigenvalues    EBANDS =    -10282.82961444
  atomic energy  EATOM  =     73862.19814772
  Solvation  Ediel_sol  =         0.00000000
  ---------------------------------------------------
  free energy    TOTEN  =     -1213.97833756 eV

  energy without entropy =    -1213.97833744  energy(sigma->0) =    -1213.97833750


--------------------------------------------------------------------------------------------------------




--------------------------------------- Iteration      1(  11)  ---------------------------------------


    EDDIAG:  cpu time    3.7531: real time    3.7573
  RMM-DIIS:  cpu time   15.2451: real time   15.2756
    ORTHCH:  cpu time    1.1578: real time    1.1600
       DOS:  cpu time    0.0011: real time    0.0011
    --------------------------------------------
      LOOP:  cpu time   20.1570: real time   20.1940

 eigenvalue-minimisations  : 21762
 total energy-change (2. order) : 0.1037934E+00  (-0.9800525E-01)
 number of electron     672.0000000 magnetization      48.0000000
 augmentation part      672.0000000 magnetization      48.0000000

 Free energy of the ion-electron system (eV)
  ---------------------------------------------------
  alpha Z        PSCENC =      2652.81237852
  Ewald energy   TEWEN  =    -41788.08151996
  -Hartree energ DENC   =    -25823.72592886
  -exchange      EXHF   =         0.00000000
  -V(xc)+E(xc)   XCENC  =      3606.08694942
  PAW double counting   =     55594.23204139   -59034.67079123
  entropy T*S    EENTRO =        -0.00000010
  eigenvalues    EBANDS =    -10282.72582108
  atomic energy  EATOM  =     73862.19814772
  Solvation  Ediel_sol  =         0.00000000
  ---------------------------------------------------
  free energy    TOTEN  =     -1213.87454418 eV

  energy without entropy =    -1213.87454408  energy(sigma->0) =    -1213.87454413


--------------------------------------------------------------------------------------------------------




--------------------------------------- Iteration      1(  12)  ---------------------------------------


    EDDIAG:  cpu time    3.7396: real time    3.7434
  RMM-DIIS:  cpu time   16.0252: real time   16.0564
    ORTHCH:  cpu time    1.1786: real time    1.1808
       DOS:  cpu time    0.0014: real time    0.0014
    CHARGE:  cpu time    1.3685: real time    1.3710
    MIXING:  cpu time    0.0014: real time    0.0015
    --------------------------------------------
      LOOP:  cpu time   22.3146: real time   22.3545

 eigenvalue-minimisations  : 22813
 total energy-change (2. order) : 0.7036191E-02  (-0.6728904E-02)
 number of electron     671.9999853 magnetization      47.9999999
 augmentation part      239.0526864 magnetization      29.0283488

 Broyden mixing:
  rms(total) = 0.12584E+02    rms(broyden)= 0.12574E+02
  rms(prec ) = 0.14433E+02
  weight for this iteration     100.00

 Free energy of the ion-electron system (eV)
  ---------------------------------------------------
  alpha Z        PSCENC =      2652.81237852
  Ewald energy   TEWEN  =    -41788.08151996
  -Hartree energ DENC   =    -25823.72592886
  -exchange      EXHF   =         0.00000000
  -V(xc)+E(xc)   XCENC  =      3606.08694942
  PAW double counting   =     55594.23204139   -59034.67079123
  entropy T*S    EENTRO =        -0.00000009
  eigenvalues    EBANDS =    -10282.71878490
  atomic energy  EATOM  =     73862.19814772
  Solvation  Ediel_sol  =         0.00000000
  ---------------------------------------------------
  free energy    TOTEN  =     -1213.86750799 eV

  energy without entropy =    -1213.86750790  energy(sigma->0) =    -1213.86750795


--------------------------------------------------------------------------------------------------------




--------------------------------------- Iteration      1(  13)  ---------------------------------------


    POTLOK:  cpu time    0.2066: real time    0.2075
    SETDIJ:  cpu time    3.3038: real time    3.3050
    EDDIAG:  cpu time    3.7251: real time    3.7282
  RMM-DIIS:  cpu time   13.0125: real time   13.0203
    ORTHCH:  cpu time    1.1725: real time    1.1748
       DOS:  cpu time    0.0012: real time    0.0012
    CHARGE:  cpu time    1.3411: real time    1.3423
    MIXING:  cpu time    0.0007: real time    0.0008
    --------------------------------------------
      LOOP:  cpu time   22.7636: real time   22.7802

 eigenvalue-minimisations  : 17312
 total energy-change (2. order) : 0.2238805E+03  (-0.1382994E+03)
 number of electron     671.9999989 magnetization      47.9999995
 augmentation part      269.2936698 magnetization      26.2881087

 Broyden mixing:
  rms(total) = 0.14066E+02    rms(broyden)= 0.14063E+02
  rms(prec ) = 0.15836E+02
  weight for this iteration     100.00

 eigenvalues of (default mixing * dielectric matrix)
  average eigenvalue GAMMA=   0.3175
  0.3175

 Free energy of the ion-electron system (eV)
  ---------------------------------------------------
  alpha Z        PSCENC =      2652.81237852
  Ewald energy   TEWEN  =    -41788.08151996
  -Hartree energ DENC   =    -25151.53262122
  -exchange      EXHF   =         0.00000000
  -V(xc)+E(xc)   XCENC  =      3696.25820922
  PAW double counting   =     59899.03868658   -63324.06999671
  entropy T*S    EENTRO =        -0.08305402
  eigenvalues    EBANDS =    -10836.52721806
  atomic energy  EATOM  =     73862.19814772
  Solvation  Ediel_sol  =         0.00000000
  ---------------------------------------------------
  free energy    TOTEN  =      -989.98698792 eV

  energy without entropy =     -989.90393390  energy(sigma->0) =     -989.94546091


--------------------------------------------------------------------------------------------------------




--------------------------------------- Iteration      1(  14)  ---------------------------------------


    POTLOK:  cpu time    0.2050: real time    0.2060
    SETDIJ:  cpu time    3.2950: real time    3.2962
    EDDIAG:  cpu time    3.7678: real time    3.7845
  RMM-DIIS:  cpu time   13.6291: real time   13.6371
    ORTHCH:  cpu time    1.1625: real time    1.1653
       DOS:  cpu time    0.0010: real time    0.0010
    CHARGE:  cpu time    1.3372: real time    1.3382
    MIXING:  cpu time    0.0007: real time    0.0007
    --------------------------------------------
      LOOP:  cpu time   23.3982: real time   23.4288

 eigenvalue-minimisations  : 17759
 total energy-change (2. order) : 0.7456560E+02  (-0.1907052E+02)
 number of electron     671.9999902 magnetization      47.9999992
 augmentation part      246.5715899 magnetization      32.1633491

 Broyden mixing:
  rms(total) = 0.52730E+01    rms(broyden)= 0.52686E+01
  rms(prec ) = 0.57113E+01
  weight for this iteration     100.00

 eigenvalues of (default mixing * dielectric matrix)
  average eigenvalue GAMMA=   0.7294
  1.1011  0.3576

 Free energy of the ion-electron system (eV)
  ---------------------------------------------------
  alpha Z        PSCENC =      2652.81237852
  Ewald energy   TEWEN  =    -41788.08151996
  -Hartree energ DENC   =    -25766.51870624
  -exchange      EXHF   =         0.00000000
  -V(xc)+E(xc)   XCENC  =      3673.83663700
  PAW double counting   =     63325.49754146   -66807.70485925
  entropy T*S    EENTRO =        -0.00000000
  eigenvalues    EBANDS =    -10067.46100657
  atomic energy  EATOM  =     73862.19814772
  Solvation  Ediel_sol  =         0.00000000
  ---------------------------------------------------
  free energy    TOTEN  =      -915.42138731 eV

  energy without entropy =     -915.42138731  energy(sigma->0) =     -915.42138731


--------------------------------------------------------------------------------------------------------




--------------------------------------- Iteration      1(  15)  ---------------------------------------


    POTLOK:  cpu time    0.1974: real time    0.1986
    SETDIJ:  cpu time    3.2992: real time    3.3010
    EDDIAG:  cpu time    3.7374: real time    3.7400
  RMM-DIIS:  cpu time   13.5863: real time   13.6431
    ORTHCH:  cpu time    1.1555: real time    1.1577
       DOS:  cpu time    0.0011: real time    0.0011
    CHARGE:  cpu time    1.3424: real time    1.3447
    MIXING:  cpu time    0.0007: real time    0.0006
    --------------------------------------------
      LOOP:  cpu time   23.3200: real time   23.3869

 eigenvalue-minimisations  : 18424
 total energy-change (2. order) : 0.1411002E+02  (-0.2313951E+01)
 number of electron     671.9999918 magnetization      47.9999994
 augmentation part      249.6591244 magnetization      33.8024340

 Broyden mixing:
  rms(total) = 0.22280E+01    rms(broyden)= 0.22276E+01
  rms(prec ) = 0.23150E+01
  weight for this iteration     100.00

 eigenvalues of (default mixing * dielectric matrix)
  average eigenvalue GAMMA=   0.9185
  1.6429  0.3836  0.7289

 Free energy of the ion-electron system (eV)
  ---------------------------------------------------
  alpha Z        PSCENC =      2652.81237852
  Ewald energy   TEWEN  =    -41788.08151996
  -Hartree energ DENC   =    -25685.60469611
  -exchange      EXHF   =         0.00000000
  -V(xc)+E(xc)   XCENC  =      3706.73588637
  PAW double counting   =     67432.87380625   -70955.56300527
  entropy T*S    EENTRO =        -0.00000000
  eigenvalues    EBANDS =    -10126.68236481
  atomic energy  EATOM  =     73862.19814772
  Solvation  Ediel_sol  =         0.00000000
  ---------------------------------------------------
  free energy    TOTEN  =      -901.31136728 eV

  energy without entropy =     -901.31136728  energy(sigma->0) =     -901.31136728


--------------------------------------------------------------------------------------------------------




--------------------------------------- Iteration      1(  16)  ---------------------------------------


    POTLOK:  cpu time    0.2131: real time    0.2131
    SETDIJ:  cpu time    3.3380: real time    3.3389
    EDDIAG:  cpu time    3.7203: real time    3.7228
  RMM-DIIS:  cpu time   13.1372: real time   13.1606
    ORTHCH:  cpu time    1.1602: real time    1.1626
       DOS:  cpu time    0.0012: real time    0.0012
    CHARGE:  cpu time    1.3381: real time    1.3386
    MIXING:  cpu time    0.0009: real time    0.0009
    --------------------------------------------
      LOOP:  cpu time   22.9089: real time   22.9386

 eigenvalue-minimisations  : 17545
 total energy-change (2. order) :-0.1328152E+01  (-0.7191137E+00)
 number of electron     671.9999926 magnetization      47.9999996
 augmentation part      251.0798624 magnetization      33.9138100

 Broyden mixing:
  rms(total) = 0.14945E+01    rms(broyden)= 0.14940E+01
  rms(prec ) = 0.15712E+01
  weight for this iteration     100.00

 eigenvalues of (default mixing * dielectric matrix)
  average eigenvalue GAMMA=   0.9631
  2.0630  0.8926  0.3894  0.5075

 Free energy of the ion-electron system (eV)
  ---------------------------------------------------
  alpha Z        PSCENC =      2652.81237852
  Ewald energy   TEWEN  =    -41788.08151996
  -Hartree energ DENC   =    -25636.44194323
  -exchange      EXHF   =         0.00000000
  -V(xc)+E(xc)   XCENC  =      3707.58811378
  PAW double counting   =     70233.53668558   -73784.59562426
  entropy T*S    EENTRO =        -0.00000000
  eigenvalues    EBANDS =    -10149.65575712
  atomic energy  EATOM  =     73862.19814772
  Solvation  Ediel_sol  =         0.00000000
  ---------------------------------------------------
  free energy    TOTEN  =      -902.63951896 eV

  energy without entropy =     -902.63951896  energy(sigma->0) =     -902.63951896


--------------------------------------------------------------------------------------------------------




--------------------------------------- Iteration      1(  17)  ---------------------------------------


    POTLOK:  cpu time    0.2030: real time    0.2039
    SETDIJ:  cpu time    3.3429: real time    3.3437
    EDDIAG:  cpu time    3.7739: real time    3.7777
  RMM-DIIS:  cpu time   13.7441: real time   13.7511
    ORTHCH:  cpu time    1.1581: real time    1.1609
       DOS:  cpu time    0.0013: real time    0.0013
    CHARGE:  cpu time    1.3395: real time    1.3399
    MIXING:  cpu time    0.0016: real time    0.0016
    --------------------------------------------
      LOOP:  cpu time   23.5645: real time   23.5801

 eigenvalue-minimisations  : 18562
 total energy-change (2. order) : 0.6682362E-01  (-0.7741371E-01)
 number of electron     671.9999927 magnetization      47.9999998
 augmentation part      251.1189786 magnetization      33.9155596

 Broyden mixing:
  rms(total) = 0.78725E+00    rms(broyden)= 0.78711E+00
  rms(prec ) = 0.88876E+00
  weight for this iteration     100.00

 eigenvalues of (default mixing * dielectric matrix)
  average eigenvalue GAMMA=   0.9923
  2.2195  1.1219  0.3787  0.6868  0.5548

 Free energy of the ion-electron system (eV)
  ---------------------------------------------------
  alpha Z        PSCENC =      2652.81237852
  Ewald energy   TEWEN  =    -41788.08151996
  -Hartree energ DENC   =    -25624.91988936
  -exchange      EXHF   =         0.00000000
  -V(xc)+E(xc)   XCENC  =      3705.16533714
  PAW double counting   =     71186.90797425   -74747.33521165
  entropy T*S    EENTRO =        -0.00000000
  eigenvalues    EBANDS =    -10149.31991200
  atomic energy  EATOM  =     73862.19814772
  Solvation  Ediel_sol  =         0.00000000
  ---------------------------------------------------
  free energy    TOTEN  =      -902.57269534 eV

  energy without entropy =     -902.57269534  energy(sigma->0) =     -902.57269534


--------------------------------------------------------------------------------------------------------




--------------------------------------- Iteration      1(  18)  ---------------------------------------


    POTLOK:  cpu time    0.2013: real time    0.2031
    SETDIJ:  cpu time    3.2897: real time    3.3515
    EDDIAG:  cpu time    3.7326: real time    3.7354
  RMM-DIIS:  cpu time   13.1841: real time   13.1915
    ORTHCH:  cpu time    1.1617: real time    1.1640
       DOS:  cpu time    0.0011: real time    0.0011
    CHARGE:  cpu time    1.3353: real time    1.3370
    MIXING:  cpu time    0.0010: real time    0.0010
    --------------------------------------------
      LOOP:  cpu time   22.9067: real time   22.9845

 eigenvalue-minimisations  : 17617
 total energy-change (2. order) : 0.4143793E+00  (-0.7435421E-01)
 number of electron     671.9999923 magnetization      47.9999999
 augmentation part      250.6131672 magnetization      33.8833193

 Broyden mixing:
  rms(total) = 0.28958E+00    rms(broyden)= 0.28933E+00
  rms(prec ) = 0.30422E+00
  weight for this iteration     100.00

 eigenvalues of (default mixing * dielectric matrix)
  average eigenvalue GAMMA=   1.0154
  2.4493  1.3613  0.8432  0.3805  0.5784  0.4797

 Free energy of the ion-electron system (eV)
[...]
   4      -0.608    -0.925     1.532     0.030    -0.043     0.486
   5      -0.929    -0.792     1.720    -0.098     0.447     0.194
   6      -0.586    -0.908     1.494    -0.038     0.034    -0.608
   7      -0.940    -0.947     1.886    -0.024    -0.036    -0.126
   8      -0.863    -0.664     1.527     0.108     0.454    -0.358
   9      -0.945    -0.865     1.810    -0.024     0.024     0.067
  10      -0.681    -0.969     1.651     0.013     0.006    -0.607
  11      -0.842    -0.601     1.443     0.083    -0.330     0.213
  12      -0.791    -0.732     1.523     0.082     0.398    -0.309
  13      -0.849    -0.589     1.438    -0.107    -0.401    -0.109
  14      -0.940    -0.859     1.799    -0.035     0.049    -0.068
  15      -0.800    -0.471     1.270     0.051    -0.282     0.162
  16      -0.828    -0.662     1.490    -0.108     0.528     0.278
  17       1.369     1.578    -2.947    -0.192     0.004     0.137
  18       1.366     1.503    -2.869    -0.140     0.001    -0.163
  19       1.334     1.519    -2.853    -0.161     0.021     0.119
  20       1.499     1.356    -2.855    -0.081     0.068    -0.097
  21       1.487     1.437    -2.924     0.102    -0.035    -0.141
  22       1.205     1.775    -2.980     0.172    -0.026     0.189
  23       1.463     1.437    -2.901     0.065     0.056    -0.126
  24       1.417     1.588    -3.006     0.084    -0.055     0.090
  25      -0.956     0.373     0.583     0.391    -0.820    -0.300
  26      -1.213    -0.749     1.962    -0.654    -0.905     0.940
  27       0.110    -2.409     2.299     0.592     0.652    -0.893
  28       0.254    -1.787     1.534     2.066     0.533     0.156
  29       0.766     0.351    -1.117    -1.002     0.964     0.594
  30       0.030     0.249    -0.278    -0.125     0.830     0.680
  31       0.357     0.722    -1.080    -0.953     0.510    -0.647
  32      -0.129    -1.618     1.747     2.158    -1.235     1.207
  33      -1.036    -0.659     1.695     0.803     0.806    -0.896
  34       0.735     0.455    -1.190    -0.639    -0.345    -0.228
  35      -0.797     0.280     0.517     1.171     0.517    -0.323
  36       1.379     1.842    -3.221    -0.347     1.094    -0.660
  37      -1.236     0.883     0.353     1.195    -0.071    -0.023
  38      -0.221    -0.648     0.869    -0.986     0.462    -0.014
  39       0.484    -0.944     0.461     0.650    -1.050    -0.447
  40       0.623    -0.630     0.007     0.174    -0.205     0.541
  41      -3.758     3.403     0.355    -3.530     1.028    -4.322
  42      -3.672     3.047     0.626     5.692     0.108     4.818
  43       4.640    -5.814     1.174     1.944    -4.041     1.084
  44      -3.089     2.067     1.022     5.126    -1.450    -4.614
  45      -2.214     2.837    -0.623    -5.138    -1.832     3.617
  46       6.388    -6.297    -0.091    -0.438     5.117    -0.614
  47      -3.024     1.772     1.251    -4.804     1.157    -4.260
  48       5.270    -5.489     0.219    -0.421    -3.654    -0.813
  49      -4.760     2.204     2.556     3.455     4.130     4.793
  50       3.598    -4.611     1.013     1.735     5.593    -0.134
  51      -3.702     4.418    -0.716    -5.970    -2.955     1.751
  52      -3.964     3.127     0.837     3.944    -1.713    -4.778
  53      -2.583     2.979    -0.396    -4.954     3.576    -3.351
  54      -4.301     3.055     1.247     5.487     2.957     5.445
  55       4.081    -6.117     2.036    -0.153    -4.726    -0.972
  56      -1.612     0.395     1.217     5.209    -1.458    -3.210
  57      -3.753     2.091     1.662    -4.072    -3.716     3.576
  58       6.684    -6.657    -0.027    -0.167     3.887     1.037
  59      -1.685     1.978    -0.293    -5.491     2.781    -2.707
  60       6.142    -5.791    -0.352     0.104    -4.351     0.276
  61      -2.188     1.293     0.895     5.245     2.027     4.417
  62       5.798    -6.460     0.662    -0.875     4.355    -1.353
  63      -3.652     3.345     0.306    -4.360    -4.526     3.176
  64      -3.970     2.049     1.921     5.266    -2.670    -4.384
  65      -2.593     1.461     1.132    -5.467     2.447    -5.771
  66      -2.090     2.413    -0.323     5.100     1.921     3.067
  67       4.362    -5.502     1.140     0.088    -4.383     0.165
  68      -5.516     2.259     3.257     4.474    -1.657    -5.493
  69      -2.087    -0.539     2.626    -5.143    -1.755     4.522
  70       7.597    -7.028    -0.569     1.319     3.979    -1.672
  71      -4.398     3.341     1.056    -5.942     2.522    -5.174
  72       6.623    -5.884    -0.739    -0.235    -3.397     0.630
  73      -3.648     4.414    -0.767     5.182     1.811     4.489
  74       5.950    -5.658    -0.291    -0.833     4.829    -0.447
  75      -0.322    -0.053     0.374    -4.976    -0.872     3.579
  76      -3.667     3.305     0.361     4.587    -1.226    -3.817
  77      -3.291     2.468     0.823    -5.358     3.037    -4.955
  78      -3.002     1.277     1.725     4.834     2.649     3.599
  79       6.677    -5.817    -0.860    -1.377    -3.977     1.191
  80      -4.347     1.483     2.864     4.815    -4.311    -5.362
  81      -1.447     2.056    -0.609    -5.608    -1.070     4.248
  82       6.615    -6.890     0.275    -0.944     4.308     0.451
  83      -5.166     2.269     2.897    -4.069     2.557    -4.554
  84       3.896    -4.926     1.030    -2.040    -4.346     1.047
  85      -3.231     3.404    -0.173     3.702     1.307     3.601
  86       7.291    -5.961    -1.330    -1.005     4.310     2.396
  87      -2.770     0.663     2.107    -2.873    -2.974     3.609
  88      -2.869     3.557    -0.688     5.442    -3.173    -2.906
 ---------------------------------------------------------------------


 Total hyperfine coupling parameters after diagonalization (MHz)
 (convention: |A_zz| > |A_xx| > |A_yy|)
 ----------------------------------------------------------------------
  ion      A_xx      A_yy      A_zz     asymmetry (A_yy - A_xx)/ A_zz 
 ----------------------------------------------------------------------
   1       0.092    -0.014     2.829      -0.037
   2       2.912     2.448     5.332      -0.087
   3       2.440     2.126     4.470      -0.070
   4       2.205     1.790     4.436      -0.094
   5       2.491     2.167     5.038      -0.064
   6       1.835     1.366     4.061      -0.116
   7       0.168     0.115     2.980      -0.018
   8       2.088     1.677     4.370      -0.094
   9       0.349     0.257     3.021      -0.031
  10       2.062     1.640     4.528      -0.093
  11       1.916     1.566     4.004      -0.087
  12       2.071     1.795     4.372      -0.063
  13       2.180     1.773     4.242      -0.096
  14      -0.075     0.030     2.681       0.039
  15       0.708     0.325     2.499      -0.153
  16       2.204     1.789     4.445      -0.093
  17      14.799    10.592    15.238      -0.276
  18      13.398     9.242    13.711      -0.303
  19      13.669     9.570    14.040      -0.292
  20      13.837     9.658    14.054      -0.297
  21      14.229     9.942    14.440      -0.297
  22      14.856    10.709    15.527      -0.267
  23      14.222     9.929    14.351      -0.299
  24      14.861    10.468    15.100      -0.291
  25      94.637    93.120    95.642      -0.016
  26      94.371    93.545    97.792      -0.008
  27      99.759    96.847   102.178      -0.028
  28      98.369    94.289    99.439      -0.041
  29      96.841    94.616    98.195      -0.023
  30     100.045    98.540   100.711      -0.015
  31      94.382    93.492    96.562      -0.009
  32      99.399    94.387   100.444      -0.050
  33      99.602    97.590   101.730      -0.020
  34      97.752    96.370    98.946      -0.014
  35      96.496    94.098    96.842      -0.025
  36      94.293    89.502    95.295      -0.050
  37      97.661    95.533    98.732      -0.022
  38      96.050    94.235    96.851      -0.019
  39      99.218    98.570   101.514      -0.006
  40      95.307    94.033    95.698      -0.013
  41       3.514     0.397    13.271      -0.235
  42       7.754     1.045    17.355      -0.387
  43       4.465    -1.440    12.592      -0.469
  44       6.422     1.717    16.507      -0.285
  45       5.415     2.456    15.850      -0.187
  46       4.044     0.564    16.156      -0.215
  47       4.889    -0.025    13.849      -0.355
  48       4.073    -0.139    12.746      -0.330
  49       4.457    -0.003    16.086      -0.277
  50       4.132     1.439    15.046      -0.179
  51       7.203     0.954    16.871      -0.370
  52       2.606    -0.591    13.480      -0.237
  53       6.837     3.258    17.681      -0.202
  54       5.326     1.115    18.591      -0.227
  55       3.638    -1.039    13.166      -0.355
  56       5.182    -0.120    12.726      -0.417
  57       4.301    -0.326    14.042      -0.330
  58       7.374     2.113    17.447      -0.302
  59       8.507     4.764    18.271      -0.205
  60       5.337     2.028    16.169      -0.205
  61       4.032    -0.056    14.307      -0.286
  62       7.392     2.399    17.531      -0.285
  63       3.999    -1.669    13.878      -0.408
  64       4.846    -0.323    15.592      -0.332
  65       5.537     1.752    18.205      -0.208
  66       7.147     3.744    16.584      -0.205
  67       5.184     1.581    14.514      -0.248
  68       6.435     0.681    17.813      -0.323
  69       5.213    -0.560    14.254      -0.405
  70       9.153     2.800    19.832      -0.320
  71       8.559     3.488    21.303      -0.238
  72       4.969     1.008    14.936      -0.265
  73       5.051     1.894    17.381      -0.182
  74       2.824     0.024    14.385      -0.195
  75       7.865     2.718    15.064      -0.342
  76       4.654     0.349    14.086      -0.306
  77       3.895     0.448    16.487      -0.209
  78       4.878     0.296    14.194      -0.323
  79       7.705     4.082    18.789      -0.193
  80       3.153    -0.998    16.653      -0.249
  81       5.015     0.703    15.025      -0.287
  82       6.463     1.184    17.053      -0.310
  83       4.949    -0.320    15.392      -0.342
  84       5.163     1.864    14.696      -0.224
  85       4.157     1.415    13.397      -0.205
  86       7.424     1.499    18.075      -0.328
  87       5.660     3.335    14.752      -0.158
  88       4.504     0.278    15.159      -0.279
 ---------------------------------------------------------------------



--------------------------------------------------------------------------------------------------------


 stress matrix after NEB project (eV)
    -43.49096     -1.48846     -7.98103
     -1.50764    -45.61423      5.28955
     -7.92751      5.27923    -60.02551
  FORCES: max atom, RMS     3.295793    1.186364
  FORCE total and by dimension   11.129083    3.140562
  Stress total and by dimension   88.102578   60.025512
     LOOP+:  cpu time  526.5657: real time  527.5278
    4ORBIT:  cpu time    0.0000: real time    0.0000
 


 total charge     
 
# of ion       s       p       d       tot
------------------------------------------
    1        0.048   5.993   0.000   6.042
    2        0.053   5.995   0.000   6.047
    3        0.050   5.992   0.000   6.042
    4        0.050   5.991   0.000   6.042
    5        0.056   5.999   0.000   6.055
    6        0.052   5.994   0.000   6.046
    7        0.047   5.991   0.000   6.038
    8        0.050   5.992   0.000   6.042
    9        0.048   5.992   0.000   6.040
   10        0.056   5.998   0.000   6.054
   11        0.049   5.991   0.000   6.040
   12        0.049   5.990   0.000   6.039
   13        0.052   5.996   0.000   6.048
   14        0.044   5.988   0.000   6.032
   15        0.054   5.997   0.000   6.051
   16        0.055   5.998   0.000   6.053
   17        0.150   6.131   0.086   6.367
   18        0.148   6.125   0.081   6.354
   19        0.144   6.120   0.078   6.341
   20        0.146   6.122   0.079   6.346
   21        0.149   6.130   0.086   6.364
   22        0.152   6.131   0.086   6.368
   23        0.148   6.127   0.082   6.357
   24        0.153   6.134   0.088   6.375
   25        0.380   6.465   4.834  11.679
   26        0.377   6.457   4.833  11.667
   27        0.374   6.451   4.826  11.652
   28        0.362   6.427   4.803  11.592
   29        0.392   6.491   4.878  11.762
   30        0.362   6.428   4.803  11.594
   31        0.383   6.470   4.849  11.702
   32        0.366   6.436   4.799  11.600
   33        0.365   6.431   4.809  11.605
   34        0.373   6.451   4.832  11.656
   35        0.376   6.458   4.830  11.665
   36        0.412   6.538   4.920  11.871
   37        0.375   6.455   4.829  11.658
   38        0.381   6.471   4.840  11.692
   39        0.370   6.438   4.829  11.637
   40        0.372   6.445   4.814  11.631
   41        1.597   3.484   0.000   5.081
   42        1.602   3.513   0.000   5.114
   43        1.598   3.521   0.000   5.119
   44        1.600   3.520   0.000   5.119
   45        1.599   3.480   0.000   5.079
   46        1.599   3.480   0.000   5.078
   47        1.597   3.512   0.000   5.109
   48        1.596   3.511   0.000   5.107
   49        1.600   3.496   0.000   5.095
   50        1.597   3.503   0.000   5.100
   51        1.603   3.512   0.000   5.116
   52        1.597   3.509   0.000   5.106
   53        1.601   3.506   0.000   5.107
   54        1.603   3.492   0.000   5.095
   55        1.597   3.475   0.000   5.073
   56        1.594   3.500   0.000   5.094
   57        1.597   3.475   0.000   5.072
   58        1.599   3.496   0.000   5.096
   59        1.600   3.537   0.000   5.137
   60        1.597   3.493   0.000   5.091
   61        1.596   3.484   0.000   5.081
   62        1.597   3.506   0.000   5.103
   63        1.602   3.488   0.000   5.090
   64        1.598   3.503   0.000   5.101
   65        1.600   3.482   0.000   5.082
   66        1.596   3.505   0.000   5.100
   67        1.598   3.526   0.000   5.123
   68        1.603   3.533   0.000   5.136
   69        1.596   3.497   0.000   5.093
   70        1.601   3.522   0.000   5.123
   71        1.606   3.515   0.000   5.121
   72        1.598   3.503   0.000   5.102
   73        1.603   3.502   0.000   5.104
   74        1.599   3.474   0.000   5.073
   75        1.597   3.523   0.000   5.120
   76        1.600   3.542   0.000   5.143
   77        1.600   3.486   0.000   5.086
   78        1.597   3.498   0.000   5.094
   79        1.602   3.523   0.000   5.125
   80        1.603   3.516   0.000   5.119
   81        1.601   3.524   0.000   5.124
   82        1.600   3.520   0.000   5.120
   83        1.601   3.522   0.000   5.123
   84        1.598   3.491   0.000   5.089
   85        1.596   3.517   0.000   5.113
   86        1.602   3.488   0.000   5.090
   87        1.597   3.520   0.000   5.118
   88        1.599   3.509   0.000   5.108
--------------------------------------------------
tot         84.782 416.461  77.994 579.237
 


 magnetization (x)
 
# of ion       s       p       d       tot
------------------------------------------
    1        0.001   0.000   0.000   0.001
    2        0.002   0.000   0.000   0.003
    3        0.002   0.001   0.000   0.003
    4        0.002   0.000   0.000   0.002
    5        0.002   0.000   0.000   0.003
    6        0.002  -0.000   0.000   0.002
    7        0.001   0.000   0.000   0.001
    8        0.002   0.000   0.000   0.002
    9        0.001   0.000   0.000   0.001
   10        0.002  -0.000   0.000   0.002
   11        0.002   0.000   0.000   0.002
   12        0.002   0.000   0.000   0.002
   13        0.002   0.001   0.000   0.003
   14        0.001   0.000   0.000   0.001
   15        0.001   0.000   0.000   0.001
   16        0.002   0.000   0.000   0.002
   17        0.008   0.002   0.001   0.011
   18        0.007   0.002   0.001   0.010
   19        0.007   0.003   0.001   0.011
   20        0.007   0.002   0.001   0.011
   21        0.007   0.002   0.001   0.011
   22        0.008   0.003   0.002   0.012
   23        0.007   0.002   0.001   0.011
   24        0.008   0.002   0.001   0.011
   25        0.015   0.030   2.748   2.793
   26        0.015   0.030   2.743   2.788
   27        0.016   0.031   2.769   2.815
   28        0.016   0.029   2.787   2.831
   29        0.015   0.031   2.715   2.761
   30        0.016   0.030   2.785   2.831
   31        0.015   0.030   2.735   2.780
   32        0.015   0.029   2.785   2.829
   33        0.016   0.030   2.786   2.832
   34        0.016   0.030   2.755   2.800
   35        0.015   0.030   2.757   2.803
   36        0.014   0.032   2.669   2.716
   37        0.015   0.031   2.760   2.806
   38        0.015   0.030   2.743   2.789
   39        0.016   0.030   2.772   2.818
   40        0.015   0.030   2.760   2.805
   41        0.002   0.019   0.000   0.020
   42        0.002   0.047   0.000   0.050
   43        0.002   0.009   0.000   0.011
   44        0.002   0.049   0.000   0.051
   45        0.002   0.032   0.000   0.034
   46        0.002   0.022   0.000   0.024
   47        0.002   0.024   0.000   0.026
   48        0.001   0.025   0.000   0.026
   49        0.002   0.029   0.000   0.031
   50        0.002   0.027   0.000   0.028
   51        0.002   0.042   0.000   0.044
   52        0.002   0.015   0.000   0.017
   53        0.002   0.047   0.000   0.049
   54        0.002   0.036   0.000   0.038
   55        0.002   0.008   0.000   0.010
   56        0.002   0.027   0.000   0.028
   57        0.002   0.015   0.000   0.016
   58        0.002   0.041   0.000   0.043
   59        0.003   0.057   0.000   0.059
   60        0.002   0.030   0.000   0.032
   61        0.002   0.025   0.000   0.027
   62        0.002   0.050   0.000   0.052
   63        0.002   0.008   0.000   0.009
   64        0.002   0.033   0.000   0.035
   65        0.002   0.032   0.000   0.034
   66        0.002   0.045   0.000   0.047
   67        0.002   0.037   0.000   0.039
   68        0.002   0.051   0.000   0.053
   69        0.002   0.026   0.000   0.027
   70        0.003   0.063   0.000   0.065
   71        0.003   0.060   0.000   0.063
   72        0.002   0.028   0.000   0.030
   73        0.002   0.037   0.000   0.039
   74        0.002   0.009   0.000   0.011
   75        0.002   0.034   0.000   0.036
   76        0.002   0.037   0.000   0.038
   77        0.002   0.024   0.000   0.026
   78        0.002   0.026   0.000   0.027
   79        0.002   0.056   0.000   0.058
   80        0.002   0.022   0.000   0.024
   81        0.002   0.037   0.000   0.039
   82        0.002   0.048   0.000   0.051
   83        0.002   0.038   0.000   0.040
   84        0.002   0.029   0.000   0.031
   85        0.002   0.022   0.000   0.024
   86        0.002   0.036   0.000   0.038
   87        0.002   0.034   0.000   0.036
   88        0.002   0.025   0.000   0.027
--------------------------------------------------
tot          0.425   2.078  44.078  46.580
 

 total amount of memory used by VASP MPI-rank0    88182. kBytes
=======================================================================

   base      :      30000. kBytes
   nonlr-proj:      13673. kBytes
   fftplans  :        992. kBytes
   grid      :      21513. kBytes
   one-center:       2737. kBytes
   wavefun   :      19267. kBytes
 
  
  
 General timing and accounting informations for this job:
 ========================================================
  
                  Total CPU time used (sec):      545.938
                            User time (sec):      540.620
                          System time (sec):        5.318
                         Elapsed time (sec):      551.870
  
                   Maximum memory used (kb):      184352.
                   Average memory used (kb):           0.
  
                          Minor page faults:       266471
                          Major page faults:            0
                 Voluntary context switches:         3672
