88
Lattice="10.019 0.0 0.0 5.009500000000001 8.676708520516291 0.0 0.0 0.0 11.218" Properties=species:S:1:pos:R:3:forces:R:3 energy=0.0 pbc="T T T"
Na      13.08166643       7.10952628       9.32514053       0.22324900      -0.20366800      -0.21823300
Na       2.67600543       2.81483628       3.59536053      -0.00146696       0.11098700       0.10652900
Na       6.48153643       4.41913828       3.69930053       0.26862000      -0.06125010      -0.67109700
Na       7.33450643       8.39849628       3.64795053      -0.19528000       0.12053200      -0.52875000
Na       5.96607643       6.02961628       9.12472053      -0.26266300       0.08620740       0.16187400
Na       5.46531643       3.03282628       9.15577053       0.22092100      -0.56415900       0.61227500
Na      10.03882643       7.27286628       3.54019053       0.15040500      -0.45022300       0.41453500
Na       3.86547643       5.92554628       3.64045053      -0.09419140       0.04066900      -0.04301500
Na      11.86435643       4.12898776       9.23332053      -0.27418200       0.01083600       0.14452800
Na       1.71127643       1.04270776       9.17120053      -0.24099000       0.05255880       0.50470600
Na       8.85815643       5.61684776       9.12105053       0.55174800      -0.15928400       0.78105400
Na       9.87894643       4.29755776       3.63610053      -0.11778700      -0.02589690      -0.11033600
Na       5.96591343       1.39783776       3.66513053       0.16630900      -0.06021390      -0.26103500
Na       9.58244643       1.30472776       3.68949053      -0.19069500      -0.30023400      -0.53794900
Na      10.33388643       8.56364628       9.26670053      -0.17453000      -0.15199600      -0.17215100
Na       8.29089643       1.40105776       9.15902053       0.42044800       0.46312800       0.51701600
Mg       6.58615643       7.18474628       6.19495553      -1.45674000      -0.83345800       0.95495500
Mg       6.57150643       7.07169628       0.83534053      -0.54881600       0.40878600       0.41875800
Mg      11.51268643       7.14298628       6.56566353      -0.12180800      -0.50056800      -0.43983900
Mg      11.46647043       7.06113628       0.85610053       0.90953300       0.11898400      -0.29596900
Mg       3.99878643       2.88727776       6.50256053       0.22811100      -0.07237960      -0.55208900
Mg       4.12214643       2.76526776       0.74671053      -1.10353000       0.24552500       1.13994000
Mg       9.07705643       2.74513776       6.36870193       0.00305076       0.05926220       0.85643200
Mg       8.97825643       2.68545776       0.82252053       0.59540800       1.35065000      -0.68226100
Mn      11.51809643       4.22244776       6.36630383      -0.23972400       0.77792600       0.29506600
Mn       4.00238643       5.70257628       6.49629913       0.57752600      -0.15813600       0.30594100
Mn      11.56848643       4.17992776       0.89253053      -0.26258700       0.29694500      -0.13942000
Mn       4.01360643       5.65817628       0.74359053      -0.13026700      -0.03412320       1.22665000
Mn       6.58798543       4.14981776       6.40726053      -1.02980000       2.11510000       1.88838000
Mn       8.98784643       5.60776628       6.39576053       1.33190000       0.97870700       0.49428400
Mn       6.50167743       4.25161776       0.72954053       0.36076500      -1.07576000       0.84969000
Mn       9.00217643       5.58955628       0.84828053       0.89036200       0.81950400       0.03625210
Mn      13.98147643       8.57058628       6.44907053       1.32708000       0.16447600       0.28828000
Mn       1.56873643       1.30744776       6.38211183      -1.04686000       0.69555600      -0.41209500
Mn      14.05032643       8.52651628       0.82237053      -0.41256100       0.37149900      -0.02758110
Mn       1.52756643       1.31706776       0.82646053       0.15772400      -0.58583400       0.69254900
Mn       9.06756643       8.58695628       6.36936193      -0.42928200      -0.09296490       0.99836700
Mn       6.47444143       1.41131776       6.54034153       0.41124600      -1.04035000      -0.49939400
Mn       9.08083643       8.56403628       0.85949053      -1.80672000      -0.21791900      -0.54756500
Mn       6.51301643       1.31690776       0.74114053       0.76254600       0.53446000       0.32000600
O       12.37739543       5.56674628       7.49326053       0.42333900       0.12148800       0.19541700
O        5.02541643       4.35714728       7.56591053      -0.83049900       0.32370100      -0.77953700
O        4.81663643       7.14096628       7.40741953      -0.28764300       0.04558940       0.43784500
O        3.16152643       4.26737998       1.88738053       0.10984100       0.52578300      -0.44079900
O       13.29425643       7.06510628       1.79886053      -0.01438750       0.17480400      -0.19933200
O        5.61553643       5.51820628       1.87523053       0.08692030       0.19093000      -0.85172700
O        3.12969643       4.37026928       5.41706053       0.05714730      -0.01479720      -0.29810300
O       13.26526643       7.18100628       5.47476053      -0.01465610      -0.85639700       0.03240420
O        5.59245643       5.51387628       5.47436053       0.41942800       0.64121400      -0.87574800
O       12.41709343       5.52837628      11.02164053      -0.11351600       0.22519400      -0.32359200
O        4.86554643       4.30554328      10.94691053       0.78609600       0.38244900      -0.32270900
O        4.77445643       7.14013628      11.01851053       0.00884870      -0.84887100      -0.71765400
O        7.47214643       5.49725628       7.43177053      -0.83942100       0.57140100      -0.19437900
O        9.86963643       4.31782528       7.44152053       0.50346500      -0.42215200      -0.35522100
O        9.72182643       7.05854628       7.54772053      -0.21944700       0.86650100      -0.95876700
O        8.15146643       4.28264748       1.92962053      -0.40492500       0.14813000      -1.15914000
O        8.33077643       7.10377628       1.85845053      -0.06500290       0.04800870       0.37413200
O       10.57024643       5.61593628       1.89670053       0.56385700      -0.77364000       0.03383170
O        8.15509643       4.26983228       5.36086053       0.15543300      -0.24666900      -0.59007300
O        8.33953643       7.14866628       5.38056053       0.34565700      -0.00712294      -0.91106400
O       10.62119643       5.59754628       5.43766053       0.12469000       0.15183100      -0.81043900
O        7.41759643       5.61311628      10.97381053      -0.13445900      -0.62218200       0.02103000
O        9.97254643       4.26297628      11.05157053      -0.42843400       0.25000600       0.03631030
O        9.78013643       7.14401628      11.00076053      -0.47421100      -0.45868900       0.03954210
O        9.95496643       1.23734776       7.47797053       0.20467600       0.06773450      -0.47521100
O        7.34549643       8.62987628       7.36739453       1.03778000       0.03720000      -0.43441600
O        2.22489643       2.81949776       7.36409853       0.10149900      -0.70773800       1.05805000
O        5.58023643       8.61105628       1.84658053       0.62881400       0.46760500       0.57945900
O       10.82202643       2.80864776       1.89088053      -0.39817300      -0.68918400       0.61738000
O        3.18574643       1.26491776       1.95257053      -0.34072800      -0.60642100      -0.62651800
O        0.53648643       0.10486776       5.29646053       0.71265800      -0.80578800       0.28438300
O       10.86475643       2.74940776       5.34016053      -0.65283500       0.56500800      -0.79878700
O        3.24119643       1.32006776       5.29226053      -0.52408400      -0.87359700       0.67433600
O        9.92764643       1.21892776      10.98445053       0.27622200      -0.02517150       0.18988300
O        7.38288643       8.61970628      11.08835053       0.53291700       0.48244100      -0.10817800
O        2.33122643       2.69154776      11.06973053      -0.71092300       0.75320900      -0.44221600
O        4.79889643       1.35270776       7.46722053       0.76661200      -0.78304500       0.25911000
O        7.42662243       0.01791776       7.56038053      -0.72482500      -0.17274200       0.60103000
O        7.26001743       2.78136776       7.54231053      -0.03115470      -0.18380200      -0.41700100
O       10.63446643       8.60241628       1.82743053       0.76780100       0.71940900       0.52929200
O        5.84287843       2.78143776       1.82594053       0.10118500       0.14548000      -0.37595100
O        8.09792643       1.26413776       1.75790053       0.09501550      -0.80150800       1.00417000
O       10.72975643       8.63019628       5.45376053      -0.80689300       0.53529700       0.24744100
O        5.76721743       2.87906776       5.40526053       0.07081560      -1.52994000       0.00681003
O        8.05052643       1.22316776       5.52116053       0.11064100       0.79143800      -0.97485900
O        4.90353643       1.28298776      11.02079053       0.01438810      -0.77328000      -0.82571600
O       12.42226043       8.65279628      10.96757053      -0.29908200      -0.48836800      -0.51999700
O        7.21125843       2.75236776      10.86134053      -0.10691300       0.22537100       0.69598600
