 vasp.5.4.4.18Apr17-6-g9f103f2a35 (build Dec 02 2020 12:53:39) complex          
  
 executed on             LinuxIFC date 2021.08.02  14:51:25
 running on   96 total cores
 distrk:  each k-point on   96 cores,    1 groups
 distr:  one band on NCORES_PER_BAND=   1 cores,   96 groups


--------------------------------------------------------------------------------------------------------


 INCAR:
 POTCAR:    PAW_PBE Na_pv 19Sep2006               
 POTCAR:    PAW_PBE Mg_pv 13Apr2007               
 POTCAR:    PAW_PBE Mn_pv 02Aug2007               
 POTCAR:    PAW_PBE O 08Apr2002                   

 ----------------------------------------------------------------------------- 
|                                                                             |
|           W    W    AA    RRRRR   N    N  II  N    N   GGGG   !!!           |
|           W    W   A  A   R    R  NN   N  II  NN   N  G    G  !!!           |
|           W    W  A    A  R    R  N N  N  II  N N  N  G       !!!           |
|           W WW W  AAAAAA  RRRRR   N  N N  II  N  N N  G  GGG   !            |
|           WW  WW  A    A  R   R   N   NN  II  N   NN  G    G                |
|           W    W  A    A  R    R  N    N  II  N    N   GGGG   !!!           |
|                                                                             |
|      For optimal performance we recommend to set                            |
|        NCORE= 4 - approx SQRT( number of cores)                             |
|      NCORE specifies how many cores store one orbital (NPAR=cpu/NCORE).     |
|      This setting can  greatly improve the performance of VASP for DFT.     |
|      The default,   NCORE=1            might be grossly inefficient         |
|      on modern multi-core architectures or massively parallel machines.     |
|      Do your own testing !!!!                                               |
|      Unfortunately you need to use the default for GW and RPA calculations. |
|      (for HF NCORE is supported but not extensively tested yet)             |
|                                                                             |
 ----------------------------------------------------------------------------- 

 POTCAR:    PAW_PBE Na_pv 19Sep2006               
   VRHFIN =Na: p6s1                                                             
   LEXCH  = PE                                                                  
   EATOM  =   766.0439 eV,   56.3026 Ry                                         
                                                                                
   TITEL  = PAW_PBE Na_pv 19Sep2006                                             
   LULTRA =        F    use ultrasoft PP ?                                      
   IUNSCR =        1    unscreen: 0-lin 1-nonlin 2-no                           
   RPACOR =    1.800    partial core radius                                     
   POMASS =   22.990; ZVAL   =    7.000    mass and valenz                      
   RCORE  =    2.200    outmost cutoff radius                                   
   RWIGS  =    2.200; RWIGS  =    1.164    wigner-seitz radius (au A)           
   ENMAX  =  259.561; ENMIN  =  194.671 eV                                      
   ICORE  =        2    local potential                                         
   LCOR   =        T    correct aug charges                                     
   LPAW   =        T    paw PP                                                  
   EAUG   =  368.056                                                            
   DEXC   =    0.000                                                            
   RMAX   =    2.245    core radius for proj-oper                               
   RAUG   =    1.300    factor for augmentation sphere                          
   RDEP   =    2.259    radius for radial grids                                 
   RDEPT  =    1.738    core radius for aug-charge                              
                                                                                
   Atomic configuration                                                         
    5 entries                                                                   
     n  l   j            E        occ.                                          
     1  0  0.50     -1033.6933   2.0000                                         
     2  0  0.50       -56.7526   2.0000                                         
     2  1  1.50       -28.6721   6.0000                                         
     3  0  0.50        -2.7440   1.0000                                         
     3  2  1.50        -1.3606   0.0000                                         
   Description                                                                  
     l       E           TYP  RCUT    TYP  RCUT                                 
     1    -28.6720912     23  2.000                                             
     1      6.8029130     23  2.000                                             
     0     -2.7439560     23  2.200                                             
     0     34.0145650     23  2.200                                             
     2     -1.3605826     23  2.200                                             
  local pseudopotential read in
  partial core-charges read in
  partial kinetic energy density read in
  atomic valenz-charges read in
  non local Contribution for L=           1  read in
    real space projection operators read in
  non local Contribution for L=           1  read in
    real space projection operators read in
  non local Contribution for L=           0  read in
    real space projection operators read in
  non local Contribution for L=           0  read in
    real space projection operators read in
    PAW grid and wavefunctions read in
 
   number of l-projection  operators is LMAX  =           4
   number of lm-projection operators is LMMAX =           8
 
 POTCAR:    PAW_PBE Mg_pv 13Apr2007               
   VRHFIN =Mg: p6s2                                                             
   LEXCH  = PE                                                                  
   EATOM  =  1056.7344 eV,   77.6678 Ry                                         
                                                                                
   TITEL  = PAW_PBE Mg_pv 13Apr2007                                             
   LULTRA =        F    use ultrasoft PP ?                                      
   IUNSCR =        1    unscreen: 0-lin 1-nonlin 2-no                           
   RPACOR =    1.500    partial core radius                                     
   POMASS =   24.305; ZVAL   =    8.000    mass and valenz                      
   RCORE  =    2.000    outmost cutoff radius                                   
   RWIGS  =    2.000; RWIGS  =    1.058    wigner-seitz radius (au A)           
   ENMAX  =  403.929; ENMIN  =  302.947 eV                                      
   RCLOC  =    1.506    cutoff for local pot                                    
   LCOR   =        T    correct aug charges                                     
   LPAW   =        T    paw PP                                                  
   EAUG   =  758.780                                                            
   DEXC   =    0.000                                                            
   RMAX   =    2.045    core radius for proj-oper                               
   RAUG   =    1.300    factor for augmentation sphere                          
   RDEP   =    2.025    radius for radial grids                                 
   RDEPT  =    1.557    core radius for aug-charge                              
                                                                                
   Atomic configuration                                                         
    5 entries                                                                   
     n  l   j            E        occ.                                          
     1  0  0.50     -1259.6230   2.0000                                         
     2  0  0.50       -79.8442   2.0000                                         
     2  1  1.50       -46.6121   6.0000                                         
     3  0  0.50        -4.7055   2.0000                                         
     3  2  1.50        -1.3606   0.0000                                         
   Description                                                                  
     l       E           TYP  RCUT    TYP  RCUT                                 
     1    -46.6121073     23  1.600                                             
     1      2.7211652     23  1.600                                             
     0     -4.7054661     23  2.000                                             
     0     61.2262170     23  2.000                                             
     2     -1.3605826     23  2.000                                             
  local pseudopotential read in
  partial core-charges read in
  partial kinetic energy density read in
  atomic valenz-charges read in
  non local Contribution for L=           1  read in
    real space projection operators read in
  non local Contribution for L=           1  read in
    real space projection operators read in
  non local Contribution for L=           0  read in
    real space projection operators read in
  non local Contribution for L=           0  read in
    real space projection operators read in
  non local Contribution for L=           2  read in
    real space projection operators read in
    PAW grid and wavefunctions read in
 
   number of l-projection  operators is LMAX  =           5
   number of lm-projection operators is LMMAX =          13
 
 POTCAR:    PAW_PBE Mn_pv 02Aug2007               
   VRHFIN =Mn: 3p4s3d                                                           
   LEXCH  = PE                                                                  
   EATOM  =  2025.2664 eV,  148.8529 Ry                                         
                                                                                
   TITEL  = PAW_PBE Mn_pv 02Aug2007                                             
   LULTRA =        F    use ultrasoft PP ?                                      
   IUNSCR =        1    unscreen: 0-lin 1-nonlin 2-no                           
   RPACOR =    2.080    partial core radius                                     
   POMASS =   54.938; ZVAL   =   13.000    mass and valenz                      
   RCORE  =    2.300    outmost cutoff radius                                   
   RWIGS  =    2.500; RWIGS  =    1.323    wigner-seitz radius (au A)           
   ENMAX  =  269.864; ENMIN  =  202.398 eV                                      
   ICORE  =        3    local potential                                         
   LCOR   =        T    correct aug charges                                     
   LPAW   =        T    paw PP                                                  
   EAUG   =  569.085                                                            
   DEXC   =    0.000                                                            
   RMAX   =    2.343    core radius for proj-oper                               
   RAUG   =    1.300    factor for augmentation sphere                          
   RDEP   =    2.338    radius for radial grids                                 
   RDEPT  =    1.798    core radius for aug-charge                              
                                                                                
   Atomic configuration                                                         
    8 entries                                                                   
     n  l   j            E        occ.                                          
     1  0  0.50     -6424.8287   2.0000                                         
     2  0  0.50      -739.1154   2.0000                                         
     2  1  1.50      -625.3949   6.0000                                         
     3  0  0.50       -81.6100   2.0000                                         
     3  1  1.50       -50.4667   6.0000                                         
     3  2  2.50        -3.3745   6.0000                                         
     4  0  0.50        -4.1331   1.0000                                         
     4  3  2.50        -1.3606   0.0000                                         
   Description                                                                  
     l       E           TYP  RCUT    TYP  RCUT                                 
     1    -50.4666628     23  2.000                                             
     1     -1.3605826     23  2.000                                             
     2     -3.3744729     23  2.300                                             
     2     -4.7350555     23  2.300                                             
     0     -4.1331431     23  2.300                                             
     0      7.6656591     23  2.300                                             
     3      9.5240782     23  2.300                                             
  local pseudopotential read in
  partial core-charges read in
  partial kinetic energy density read in
  atomic valenz-charges read in
  non local Contribution for L=           1  read in
    real space projection operators read in
  non local Contribution for L=           1  read in
    real space projection operators read in
  non local Contribution for L=           2  read in
    real space projection operators read in
  non local Contribution for L=           2  read in
    real space projection operators read in
  non local Contribution for L=           0  read in
    real space projection operators read in
  non local Contribution for L=           0  read in
    real space projection operators read in
    PAW grid and wavefunctions read in
 
   number of l-projection  operators is LMAX  =           6
   number of lm-projection operators is LMMAX =          18
 
 POTCAR:    PAW_PBE O 08Apr2002                   
   VRHFIN =O: s2p4                                                              
   LEXCH  = PE                                                                  
   EATOM  =   432.3788 eV,   31.7789 Ry                                         
                                                                                
   TITEL  = PAW_PBE O 08Apr2002                                                 
   LULTRA =        F    use ultrasoft PP ?                                      
   IUNSCR =        1    unscreen: 0-lin 1-nonlin 2-no                           
   RPACOR =    1.200    partial core radius                                     
   POMASS =   16.000; ZVAL   =    6.000    mass and valenz                      
   RCORE  =    1.520    outmost cutoff radius                                   
   RWIGS  =    1.550; RWIGS  =    0.820    wigner-seitz radius (au A)           
   ENMAX  =  400.000; ENMIN  =  300.000 eV                                      
   ICORE  =        2    local potential                                         
   LCOR   =        T    correct aug charges                                     
   LPAW   =        T    paw PP                                                  
   EAUG   =  605.392                                                            
   DEXC   =    0.000                                                            
   RMAX   =    1.553    core radius for proj-oper                               
   RAUG   =    1.300    factor for augmentation sphere                          
   RDEP   =    1.550    radius for radial grids                                 
   RDEPT  =    1.329    core radius for aug-charge                              
                                                                                
   Atomic configuration                                                         
    4 entries                                                                   
     n  l   j            E        occ.                                          
     1  0  0.50      -514.6923   2.0000                                         
     2  0  0.50       -23.9615   2.0000                                         
     2  1  0.50        -9.0305   4.0000                                         
     3  2  1.50        -9.5241   0.0000                                         
   Description                                                                  
     l       E           TYP  RCUT    TYP  RCUT                                 
     0    -23.9615318     23  1.200                                             
     0     -9.5240782     23  1.200                                             
     1     -9.0304911     23  1.520                                             
     1      8.1634956     23  1.520                                             
     2     -9.5240782      7  1.500                                             
  local pseudopotential read in
  partial core-charges read in
  partial kinetic energy density read in
  kinetic energy density of atom read in
  atomic valenz-charges read in
  non local Contribution for L=           0  read in
    real space projection operators read in
  non local Contribution for L=           0  read in
    real space projection operators read in
  non local Contribution for L=           1  read in
    real space projection operators read in
  non local Contribution for L=           1  read in
    real space projection operators read in
    PAW grid and wavefunctions read in
 
   number of l-projection  operators is LMAX  =           4
   number of lm-projection operators is LMMAX =           8
 
 Optimization of the real space projectors (new method)

 maximal supplied QI-value         = 17.01
 optimisation between [QCUT,QGAM] = [ 10.20, 20.41] = [ 29.16,116.64] Ry 
 Optimized for a Real-space Cutoff    1.30 Angstroem

   l    n(q)    QCUT    max X(q) W(low)/X(q) W(high)/X(q)  e(spline) 
   1      7    10.205     4.940    0.23E-03    0.84E-03    0.11E-06
   1      7    10.205     6.253    0.40E-03    0.13E-02    0.18E-06
   0      8    10.205    37.438    0.23E-03    0.37E-03    0.42E-07
   0      8    10.205     9.606    0.16E-03    0.26E-03    0.31E-07
 Optimization of the real space projectors (new method)

 maximal supplied QI-value         = 18.90
 optimisation between [QCUT,QGAM] = [ 10.20, 20.41] = [ 29.16,116.64] Ry 
 Optimized for a Real-space Cutoff    1.26 Angstroem

   l    n(q)    QCUT    max X(q) W(low)/X(q) W(high)/X(q)  e(spline) 
   1      7    10.205     2.974    0.63E-04    0.14E-03    0.13E-06
   1      7    10.205     4.279    0.11E-03    0.45E-03    0.24E-06
   0      8    10.205    16.381    0.44E-03    0.15E-03    0.55E-07
   0      8    10.205     5.611    0.31E-03    0.11E-03    0.40E-07
   2      7    10.205     4.652    0.50E-03    0.47E-03    0.57E-07
 Optimization of the real space projectors (new method)

 maximal supplied QI-value         = 16.25
 optimisation between [QCUT,QGAM] = [ 10.24, 20.48] = [ 29.35,117.42] Ry 
 Optimized for a Real-space Cutoff    1.34 Angstroem

   l    n(q)    QCUT    max X(q) W(low)/X(q) W(high)/X(q)  e(spline) 
   1      8    10.239     3.658    0.23E-03    0.30E-03    0.98E-07
   1      8    10.239     5.612    0.32E-03    0.65E-03    0.21E-06
   2      7    10.239    55.373    0.42E-03    0.45E-03    0.65E-07
   2      7    10.239    50.863    0.43E-03    0.48E-03    0.67E-07
   0      8    10.239    79.536    0.11E-03    0.21E-03    0.56E-07
   0      8    10.239    38.668    0.96E-04    0.19E-03    0.52E-07
 Optimization of the real space projectors (new method)

 maximal supplied QI-value         = 24.76
 optimisation between [QCUT,QGAM] = [ 10.15, 20.30] = [ 28.85,115.39] Ry 
 Optimized for a Real-space Cutoff    1.38 Angstroem

   l    n(q)    QCUT    max X(q) W(low)/X(q) W(high)/X(q)  e(spline) 
   0      8    10.150    20.381    0.22E-03    0.32E-03    0.29E-06
   0      8    10.150    15.268    0.23E-03    0.35E-03    0.30E-06
   1      8    10.150     5.964    0.46E-03    0.53E-03    0.21E-06
   1      8    10.150     5.382    0.38E-03    0.45E-03    0.19E-06
  PAW_PBE Na_pv 19Sep2006               :
 energy of atom  1       EATOM= -766.0439
 kinetic energy error for atom=    0.0103 (will be added to EATOM!!)
  PAW_PBE Mg_pv 13Apr2007               :
 energy of atom  2       EATOM=-1056.7344
 kinetic energy error for atom=    0.0820 (will be added to EATOM!!)
  PAW_PBE Mn_pv 02Aug2007               :
 energy of atom  3       EATOM=-2025.2664
 kinetic energy error for atom=    0.0284 (will be added to EATOM!!)
  PAW_PBE O 08Apr2002                   :
 energy of atom  4       EATOM= -432.3788
 kinetic energy error for atom=    0.1156 (will be added to EATOM!!)
 
 
 POSCAR: Na Mg Mn  O                             
  positions in cartesian coordinates
  No initial velocities read in

 METAGGA = SCAN     LMAXTAU =  6    LMIXTAU =  F

 exchange correlation table for  LEXCH =        8
   RHO(1)=    0.500       N(1)  =     2000
   RHO(2)=  100.500       N(2)  =     4000

 VTST: version 3.2, (02/03/18)

 CHAIN: initializing optimizer
 
 OPT: Using VASP Dynamics algorithm
 CHAIN: Read ICHAIN            0
 
 POSCAR: Na Mg Mn  O                             
  positions in cartesian coordinates
  No initial velocities read in
 


--------------------------------------------------------------------------------------------------------


 ion  position               nearest neighbor table
   1  0.851  0.592  0.244-  66 2.34  76 2.37  36 2.82  34 2.84
   2  0.959  0.181  0.755-  61 2.21  60 2.26  58 2.38  30 2.95
   3  0.340  0.406  0.746-  85 2.34  80 2.36
   4  0.034  0.913  0.741-  44 2.26  69 2.32  27 2.78  25 2.92
   5  0.535  0.112  0.247-  42 2.31  53 2.38  52 2.38
   6  0.526  0.436  0.247-  74 2.31  43 2.32  33 2.82  35 2.91
   7  0.438  0.145  0.753-  49 2.16  46 2.24  48 2.35  45 2.37  26 2.90
   8  0.539  0.863  0.756-  59 2.22  84 2.25  56 2.34  81 2.34  29 2.89
   9  0.319  0.591  0.260-  86 2.10  77 2.17  40 2.81
  10  0.675  0.885  0.242-  79 2.21
  11  0.898  0.312  0.258-  75 2.17  55 2.30  64 2.35
  12  0.198  0.651  0.763-  84 2.26  73 2.34  81 2.37
  13  0.859  0.412  0.751-  70 2.33
  14  0.703  0.608  0.751-  71 2.36  72 2.36
  15  0.194  0.895  0.253-  51 2.32  76 2.33  42 2.35
  16  0.044  0.105  0.250-  41 2.34  50 2.34
  17  0.688  0.265  0.996-  49 2.00  71 2.01  66 2.06  60 2.13  43 2.17  53 2.19  33 2.81
  18  0.694  0.258  0.492-  57 1.93  52 2.02  75 2.06  68 2.08  62 2.11  46 2.15  36 2.80  39 2.84

  19  0.193  0.266  0.006-  78 1.93  83 2.07  55 2.08  61 2.09  48 2.11  41 2.16  37 2.82
  20  0.184  0.251  0.504-  64 2.00  87 2.06  58 2.07  80 2.09  45 2.10  50 2.10
  21  0.198  0.761  0.005-  67 1.96  77 2.00  84 2.05  47 2.06  73 2.06  42 2.11  29 2.83  38 2.85

  22  0.184  0.757  0.499-  44 1.95  76 2.03  70 2.11  51 2.12  81 2.14  86 2.17  27 2.78  36 2.85

  23  0.677  0.752  0.996-  65 1.93  79 1.95  59 2.09  72 2.09  85 2.10  54 2.19  38 2.74  33 2.82
                            29 2.85
  24  0.695  0.751  0.507-  56 1.98  69 2.02  82 2.06  74 2.10  63 2.11  27 2.82  32 2.82  35 2.84

  25  0.017  0.921  0.001-  54 1.88  67 1.88  72 1.88  41 1.92  61 1.93  47 2.01  34 2.80  30 2.88
                             4 2.92  26 2.93
  26  0.355  0.095  0.003-  49 1.93  47 1.93  41 1.93  42 1.93  43 1.94  48 1.96  33 2.88   7 2.90
                            29 2.93  25 2.93
  27  0.019  0.913  0.494-  69 1.85  50 1.89  58 1.91  76 1.91  44 1.94  63 2.04  22 2.78   4 2.78
                            24 2.82  32 2.87  36 2.89  28 2.95
  28  0.359  0.087  0.494-  52 1.88  51 1.88  45 1.89  46 1.90  50 1.98  44 1.99  31 2.85  35 2.92
                            27 2.95
  29  0.525  0.928  0.006-  79 1.90  59 1.90  84 1.92  49 1.93  42 1.94  53 2.02  21 2.83  23 2.85
                            38 2.88   8 2.89  30 2.91  26 2.93
  30  0.861  0.097  0.005-  61 1.88  59 1.90  60 1.91  55 1.93  53 1.95  54 1.95  25 2.88  37 2.90
                            29 2.91   2 2.95
  31  0.527  0.926  0.498-  56 1.82  46 1.84  88 1.89  51 1.93  62 1.99  81 2.01  32 2.82  28 2.85
                            40 2.90
  32  0.851  0.076  0.496-  63 1.84  64 1.85  56 1.87  58 1.88  62 1.97  57 2.01  31 2.82  24 2.82
                            27 2.87  39 2.99
  33  0.526  0.427  0.996-  43 1.84  78 1.89  65 1.90  48 1.93  71 1.96  85 2.04  17 2.81  23 2.82
                             6 2.82  26 2.88  38 2.89  34 2.91
  34  0.862  0.599  0.991-  73 1.84  72 1.87  65 1.94  66 1.96  67 1.97  71 1.97  25 2.80   1 2.84
                            33 2.91  37 2.95
  35  0.524  0.424  0.506-  82 1.88  74 1.89  87 1.90  45 1.90  68 1.91  52 1.97  24 2.84  36 2.88
                             6 2.91  28 2.92  40 2.93
  36  0.856  0.580  0.495-  75 1.82  70 1.88  68 1.94  74 1.95  69 1.96  76 1.97  18 2.80  39 2.82
                             1 2.82  22 2.85  35 2.88  27 2.89
  37  0.033  0.431  0.008-  55 1.88  83 1.88  73 1.92  77 1.96  66 1.97  60 1.98  19 2.82  38 2.85
                            30 2.90  34 2.95
  38  0.362  0.596  0.995-  84 1.88  85 1.90  77 1.91  83 1.91  78 1.93  79 1.95  23 2.74  37 2.85
                            21 2.85  29 2.88  33 2.89
  39  0.021  0.421  0.504-  86 1.88  57 1.92  80 1.92  75 1.94  70 1.95  64 1.98  36 2.82  18 2.84
                            40 2.90  32 2.99
  40  0.356  0.593  0.509-  86 1.84  81 1.87  80 1.91  88 1.95  87 2.00  82 2.00   9 2.81  31 2.90
                            39 2.90  35 2.93
  41  0.183  0.070  0.097-  25 1.92  26 1.93  19 2.16  16 2.34
  42  0.374  0.947  0.101-  26 1.93  29 1.94  21 2.11   5 2.31  15 2.35
  43  0.504  0.270  0.094-  33 1.84  26 1.94  17 2.17   6 2.32
  44  0.187  0.925  0.589-  27 1.94  22 1.95  28 1.99   4 2.26
  45  0.370  0.248  0.588-  28 1.89  35 1.90  20 2.10   7 2.37
  46  0.509  0.071  0.587-  31 1.84  28 1.90  18 2.15   7 2.24
  47  0.194  0.933  0.909-  26 1.93  25 2.01  21 2.06
  48  0.368  0.261  0.903-  33 1.93  26 1.96  19 2.11   7 2.35
  49  0.513  0.084  0.914-  26 1.93  29 1.93  17 2.00   7 2.16
  50  0.181  0.071  0.405-  27 1.89  28 1.98  20 2.10  16 2.34
  51  0.370  0.934  0.403-  28 1.88  31 1.93  22 2.12  15 2.32
  52  0.513  0.255  0.409-  28 1.88  35 1.97  18 2.02   5 2.38
  53  0.699  0.090  0.105-  30 1.95  29 2.02  17 2.19   5 2.38
  54  0.869  0.935  0.095-  25 1.88  30 1.95  23 2.19
  55  0.013  0.265  0.099-  37 1.88  30 1.93  19 2.08  11 2.30
  56  0.682  0.924  0.580-  31 1.82  32 1.87  24 1.98   8 2.34
  57  0.852  0.251  0.585-  39 1.92  18 1.93  32 2.01
  58  0.002  0.063  0.586-  32 1.88  27 1.91  20 2.07   2 2.38
  59  0.693  0.947  0.914-  30 1.90  29 1.90  23 2.09   8 2.22
  60  0.875  0.262  0.910-  30 1.91  37 1.98  17 2.13   2 2.26
  61  0.012  0.085  0.914-  30 1.88  25 1.93  19 2.09   2 2.21
  62  0.694  0.080  0.392-  32 1.97  31 1.99  18 2.11
  63  0.856  0.931  0.397-  32 1.84  27 2.04  24 2.11
  64  0.006  0.243  0.416-  32 1.85  39 1.98  20 2.00  11 2.35
  65  0.692  0.591  0.080-  33 1.90  23 1.93  34 1.94
  66  0.865  0.440  0.091-  34 1.96  37 1.97  17 2.06   1 2.34
  67  0.026  0.764  0.086-  25 1.88  21 1.96  34 1.97
  68  0.690  0.430  0.594-  35 1.91  36 1.94  18 2.08
  69  0.877  0.755  0.589-  27 1.85  36 1.96  24 2.02   4 2.32
  70  0.003  0.576  0.596-  36 1.88  39 1.95  22 2.11  13 2.33
  71  0.693  0.435  0.898-  33 1.96  34 1.97  17 2.01  14 2.36
  72  0.865  0.761  0.907-  34 1.87  25 1.88  23 2.09  14 2.36
  73  0.017  0.583  0.916-  34 1.84  37 1.92  21 2.06  12 2.34
  74  0.682  0.568  0.406-  35 1.89  36 1.95  24 2.10   6 2.31
  75  0.873  0.439  0.404-  36 1.82  39 1.94  18 2.06  11 2.17
  76  0.012  0.752  0.399-  27 1.91  36 1.97  22 2.03  15 2.33   1 2.37
  77  0.208  0.594  0.096-  38 1.91  37 1.96  21 2.00   9 2.17
  78  0.369  0.434  0.084-  33 1.89  19 1.93  38 1.93
  79  0.519  0.762  0.091-  29 1.90  23 1.95  38 1.95  10 2.21
  80  0.189  0.434  0.597-  40 1.91  39 1.92  20 2.09   3 2.36
  81  0.366  0.755  0.598-  40 1.87  31 2.01  22 2.14   8 2.34  12 2.37
  82  0.517  0.575  0.600-  35 1.88  40 2.00  24 2.06
  83  0.189  0.440  0.909-  37 1.88  38 1.91  19 2.07
  84  0.374  0.763  0.910-  38 1.88  29 1.92  21 2.05   8 2.25  12 2.26
  85  0.502  0.581  0.891-  38 1.90  33 2.04  23 2.10   3 2.34
  86  0.193  0.566  0.416-  40 1.84  39 1.88   9 2.10  22 2.17
  87  0.366  0.429  0.415-  35 1.90  40 2.00  20 2.06
  88  0.504  0.758  0.406-  31 1.89  40 1.95
 
  LATTYP: Found a hexagonal cell.
 ALAT       =    10.0190000534
 C/A-ratio  =     1.1196726572
  
  Lattice vectors:
  
 A1 = (  10.0190000534,   0.0000000000,   0.0000000000)
 A2 = (  -5.0095000267,   8.6767085668,   0.0000000000)
 A3 = (   0.0000000000,   0.0000000000,  11.2180004120)


Analysis of symmetry for initial positions (statically):
=====================================================================
 Subroutine PRICEL returns:
 Original cell was already a primitive cell.
 

 Routine SETGRP: Setting up the symmetry group for a 
 hexagonal supercell.


 Subroutine GETGRP returns: Found  1 space group operations
 (whereof  1 operations were pure point group operations)
 out of a pool of 24 trial point group operations.


The static configuration has the point symmetry C_1 .


Analysis of symmetry for dynamics (positions and initial velocities):
=====================================================================
 Subroutine PRICEL returns:
 Original cell was already a primitive cell.
 

 Routine SETGRP: Setting up the symmetry group for a 
 hexagonal supercell.


 Subroutine GETGRP returns: Found  1 space group operations
 (whereof  1 operations were pure point group operations)
 out of a pool of 24 trial point group operations.


The dynamic configuration has the point symmetry C_1 .


Analysis of structural, dynamic, and magnetic symmetry:
=====================================================================
 Subroutine PRICEL returns:
 Original cell was already a primitive cell.
 

 Routine SETGRP: Setting up the symmetry group for a 
 hexagonal supercell.


 Subroutine GETGRP returns: Found  1 space group operations
 (whereof  1 operations were pure point group operations)
 out of a pool of 24 trial point group operations.


The magnetic configuration has the point symmetry C_1 .


 Subroutine INISYM returns: Found  1 space group operations
 (whereof  1 operations are pure point group operations),
 and found     1 'primitive' translations

 
 

Automatic generation of k-mesh.
 generate k-points for:    2    2    2
Space group operators:
 irot       det(A)        alpha          n_x          n_y          n_z        tau_x        tau_y        tau_z
    1     1.000000     0.000000     1.000000     0.000000     0.000000     0.000000     0.000000     0.000000
 
 Subroutine IBZKPT returns following result:
 ===========================================
 
 Found      8 irreducible k-points:
 
 Following reciprocal coordinates:
            Coordinates               Weight
  0.000000  0.000000  0.000000      1.000000
  0.500000 -0.000000 -0.000000      1.000000
  0.000000  0.500000  0.000000      1.000000
  0.500000  0.500000 -0.000000      1.000000
  0.000000  0.000000  0.500000      1.000000
  0.500000 -0.000000  0.500000      1.000000
  0.000000  0.500000  0.500000      1.000000
  0.500000  0.500000  0.500000      1.000000
 
 Following cartesian coordinates:
            Coordinates               Weight
  0.000000  0.000000  0.000000      1.000000
  0.049905  0.028813 -0.000000      1.000000
  0.000000  0.057626  0.000000      1.000000
  0.049905  0.086438 -0.000000      1.000000
  0.000000  0.000000  0.044571      1.000000
  0.049905  0.028813  0.044571      1.000000
  0.000000  0.057626  0.044571      1.000000
  0.049905  0.086438  0.044571      1.000000
 


--------------------------------------------------------------------------------------------------------




 Dimension of arrays:
   k-points           NKPTS =      8   k-points in BZ     NKDIM =      8   number of bands    NBANDS=    480
   number of dos      NEDOS =    301   number of ions     NIONS =     88
   non local maximal  LDIM  =      6   non local SUM 2l+1 LMDIM =     18
   total plane-waves  NPLWV = 140000
   max r-space proj   IRMAX =   1632   max aug-charges    IRDMAX=   4555
   dimension x,y,z NGX =    50 NGY =   50 NGZ =   56
   dimension x,y,z NGXF=   100 NGYF=  100 NGZF=  112
   support grid    NGXF=   100 NGYF=  100 NGZF=  112
   ions per type =              16   8  16  48
   NGX,Y,Z   is equivalent  to a cutoff of   8.30,  8.30,  8.30 a.u.
   NGXF,Y,Z  is equivalent  to a cutoff of  16.59, 16.59, 16.60 a.u.

 SYSTEM =  unknown system                          
 POSCAR =  Na Mg Mn  O                             

 Startparameter for this run:
   NWRITE =      2    write-flag & timer
   PREC   = normal    normal or accurate (medium, high low for compatibility)
   ISTART =      0    job   : 0-new  1-cont  2-samecut
   ICHARG =      1    charge: 1-file 2-atom 10-const
   ISPIN  =      2    spin polarized calculation?
   LNONCOLLINEAR =      F non collinear calculations
   LSORBIT =      F    spin-orbit coupling
   INIWAV =      1    electr: 0-lowe 1-rand  2-diag
   LASPH  =      T    aspherical Exc in radial PAW
   METAGGA=      F    non-selfconsistent MetaGGA calc.

 Electronic Relaxation 1
   ENCUT  =  400.0 eV  29.40 Ry    5.42 a.u.  16.34 16.34 18.29*2*pi/ulx,y,z
   ENINI  =  400.0     initial cutoff
   ENAUG  =  758.8 eV  augmentation charge cutoff
   NELM   =    200;   NELMIN=  6; NELMDL=-12     # of ELM steps 
   EDIFF  = 0.1E-04   stopping-criterion for ELM
   LREAL  =      T    real-space projection
   NLSPLINE    = F    spline interpolate recip. space projectors
   LCOMPAT=      F    compatible to vasp.4.4
   GGA_COMPAT  = T    GGA compatible to vasp.4.4-vasp.4.6
   LMAXPAW     = -100 max onsite density
   LMAXMIX     =    4 max onsite mixed and CHGCAR
   VOSKOWN=      0    Vosko Wilk Nusair interpolation
   ROPT   =   -0.00050  -0.00050  -0.00050  -0.00050
 Ionic relaxation
   EDIFFG = 0.1E-03   stopping-criterion for IOM
   NSW    =      1    number of steps for IOM
   NBLOCK =      1;   KBLOCK =      1    inner block; outer block 
   IBRION =     -1    ionic relax: 0-MD 1-quasi-New 2-CG
   NFREE  =      0    steps in history (QN), initial steepest desc. (CG)
   ISIF   =      2    stress and relaxation
   IWAVPR =     10    prediction:  0-non 1-charg 2-wave 3-comb
   ISYM   =      2    0-nonsym 1-usesym 2-fastsym
   LCORR  =      T    Harris-Foulkes like correction to forces

   POTIM  = 0.5000    time-step for ionic-motion
   TEIN   =    0.0    initial temperature
   TEBEG  =    0.0;   TEEND  =   0.0 temperature during run
   SMASS  =  -3.00    Nose mass-parameter (am)
   estimated Nose-frequenzy (Omega)   =  0.10E-29 period in steps =****** mass=  -0.229E-26a.u.
   SCALEE = 1.0000    scale energy and forces
   NPACO  =    256;   APACO  = 16.0  distance and # of slots for P.C.
   PSTRESS=    0.0 pullay stress

  Mass of Ions in am
   POMASS =  22.99 24.30 54.94 16.00
  Ionic Valenz
   ZVAL   =   7.00  8.00 13.00  6.00
  Atomic Wigner-Seitz radii
   RWIGS  =  -1.00 -1.00 -1.00 -1.00
  virtual crystal weights 
   VCA    =   1.00  1.00  1.00  1.00
   NELECT =     672.0000    total number of electrons
   NUPDOWN=      48.0000    fix difference up-down

 DOS related values:
   EMIN   =  10.00;   EMAX   =-10.00  energy-range for DOS
   EFERMI =   0.00
   ISMEAR =     0;   SIGMA  =   0.05  broadening in eV -4-tet -1-fermi 0-gaus

 Electronic relaxation 2 (details)
   IALGO  =     48    algorithm
   LDIAG  =      T    sub-space diagonalisation (order eigenvalues)
   LSUBROT=      F    optimize rotation matrix (better conditioning)
   TURBO    =      0    0=normal 1=particle mesh
   IRESTART =      0    0=no restart 2=restart with 2 vectors
   NREBOOT  =      0    no. of reboots
   NMIN     =      0    reboot dimension
   EREF     =   0.00    reference energy to select bands
   IMIX   =      4    mixing-type and parameters
     AMIX     =   0.40;   BMIX     =  1.00
     AMIX_MAG =   1.60;   BMIX_MAG =  1.00
     AMIN     =   0.10
     WC   =   100.;   INIMIX=   1;  MIXPRE=   1;  MAXMIX= -45

 Intra band minimization:
   WEIMIN = 0.0000     energy-eigenvalue tresh-hold
   EBREAK =  0.52E-08  absolut break condition
   DEPER  =   0.30     relativ break condition  

   TIME   =   0.40     timestep for ELM

  volume/ion in A,a.u.               =      11.08        74.78
  Fermi-wavevector in a.u.,A,eV,Ry     =   1.445993  2.732531 28.448379  2.090897
  Thomas-Fermi vector in A             =   2.564112
 
 Write flags
   LWAVE        =      F    write WAVECAR
   LDOWNSAMPLE  =      F    k-point downsampling of WAVECAR
   LCHARG       =      F    write CHGCAR
   LVTOT        =      F    write LOCPOT, total local potential
   LVHAR        =      F    write LOCPOT, Hartree potential only
   LELF         =      F    write electronic localiz. function (ELF)
   LORBIT       =     11    0 simple, 1 ext, 2 COOP (PROOUT), +10 PAW based schemes


 Dipole corrections
   LMONO  =      F    monopole corrections only (constant potential shift)
   LDIPOL =      F    correct potential (dipole corrections)
   IDIPOL =      0    1-x, 2-y, 3-z, 4-all directions 
   EPSILON=  1.0000000 bulk dielectric constant

 Exchange correlation treatment:
   GGA     =    --    GGA type
   LEXCH   =     8    internal setting for exchange type
   VOSKOWN=      0    Vosko Wilk Nusair interpolation
   LHFCALC =     F    Hartree Fock is set to
   LHFONE  =     F    Hartree Fock one center treatment
   AEXX    =    0.0000 exact exchange contribution

 Linear response parameters
   LEPSILON=     F    determine dielectric tensor
   LRPA    =     F    only Hartree local field effects (RPA)
   LNABLA  =     F    use nabla operator in PAW spheres
   LVEL    =     F    velocity operator in full k-point grid
   LINTERFAST=   F  fast interpolation
   KINTER  =     0    interpolate to denser k-point grid
   CSHIFT  =0.1000    complex shift for real part using Kramers Kronig
   OMEGAMAX=  -1.0    maximum frequency
   DEG_THRESHOLD= 0.2000000E-02 threshold for treating states as degnerate
   RTIME   =   -0.100 relaxation time in fs
  (WPLASMAI=    0.000 imaginary part of plasma frequency in eV, 0.658/RTIME)
   DFIELD  = 0.0000000 0.0000000 0.0000000 field for delta impulse in time
 
 Orbital magnetization related:
   ORBITALMAG=     F  switch on orbital magnetization
   LCHIMAG   =     F  perturbation theory with respect to B field
   DQ        =  0.001000  dq finite difference perturbation B field
   LLRAUG    =     F  two centre corrections for induced B field



--------------------------------------------------------------------------------------------------------


 Static calculation
 charge density and potential will be updated during run
 spin polarized calculation
 RMM-DIIS sequential band-by-band
 perform sub-space diagonalisation
    before iterative eigenvector-optimisation
 modified Broyden-mixing scheme, WC =      100.0
 initial mixing is a Kerker type mixing with AMIX =  0.4000 and BMIX =      1.0000
 Hartree-type preconditioning will be used
 using additional bands          144
 real space projection scheme for non local part
 use partial core corrections
 calculate Harris-corrections to forces 
   (improved forces if not selfconsistent)
 use gradient corrections 
 use of overlap-Matrix (Vanderbilt PP)
 Gauss-broadening in eV      SIGMA  =   0.05


--------------------------------------------------------------------------------------------------------


  energy-cutoff  :      400.00
  volume of cell :      975.20
      direct lattice vectors                 reciprocal lattice vectors
    10.019000053  0.000000000  0.000000000     0.099810360  0.057625538 -0.000000000
    -5.009500027  8.676708567  0.000000000     0.000000000  0.115251076  0.000000000
     0.000000000  0.000000000 11.218000412     0.000000000  0.000000000  0.089142446

  length of vectors
    10.019000053 10.019000053 11.218000412     0.115251076  0.115251076  0.089142446


 
 k-points in units of 2pi/SCALE and weight: read from INCAR                         
   0.00000000  0.00000000  0.00000000       0.125
   0.04990518  0.02881277 -0.00000000       0.125
   0.00000000  0.05762554  0.00000000       0.125
   0.04990518  0.08643831 -0.00000000       0.125
   0.00000000  0.00000000  0.04457122       0.125
   0.04990518  0.02881277  0.04457122       0.125
   0.00000000  0.05762554  0.04457122       0.125
   0.04990518  0.08643831  0.04457122       0.125
 
 k-points in reciprocal lattice and weights: read from INCAR                         
   0.00000000  0.00000000  0.00000000       0.125
   0.50000000 -0.00000000 -0.00000000       0.125
   0.00000000  0.50000000  0.00000000       0.125
   0.50000000  0.50000000 -0.00000000       0.125
   0.00000000  0.00000000  0.50000000       0.125
   0.50000000 -0.00000000  0.50000000       0.125
   0.00000000  0.50000000  0.50000000       0.125
   0.50000000  0.50000000  0.50000000       0.125
 
 position of ions in fractional coordinates (direct lattice) 
   0.85081302  0.59235365  0.24370297
   0.95895712  0.18062708  0.75460685
   0.34035542  0.40607465  0.74572648
   0.03351552  0.91305159  0.74140129
   0.53464518  0.11239647  0.24720983
   0.52567469  0.43629200  0.24700570
   0.43798883  0.14544571  0.75262611
   0.53885554  0.86309884  0.75629432
   0.31939027  0.59083365  0.26046353
   0.67496233  0.88463071  0.24212069
   0.89830288  0.31157931  0.25813780
   0.19815886  0.65148091  0.76342393
   0.85853630  0.41228570  0.75073183
   0.70282364  0.60768336  0.75063110
   0.19378671  0.89450625  0.25349259
   0.04408048  0.10512874  0.24980388
   0.68751937  0.26481816  0.99603740
   0.69419942  0.25831800  0.49208859
   0.19315860  0.26565027  0.00610989
   0.18408445  0.25110213  0.50395256
   0.19845179  0.76100977  0.00479583
   0.18361799  0.75689761  0.49931893
   0.67720201  0.75188880  0.99621381
   0.69516711  0.75118462  0.50707522
   0.01653210  0.92106701  0.00097406
   0.35464500  0.09474365  0.00291339
   0.01931273  0.91304208  0.49374396
   0.35900551  0.08718560  0.49363075
   0.52496830  0.92781842  0.00558028
   0.86078118  0.09659780  0.00462646
   0.52669068  0.92649764  0.49752450
   0.85148341  0.07627754  0.49566855
   0.52642506  0.42700524  0.99554217
   0.86186824  0.59898750  0.99076235
   0.52393071  0.42365143  0.50584683
   0.85588651  0.58048049  0.49510428
   0.03329238  0.43099638  0.00803156
   0.36170089  0.59563254  0.99504999
   0.02112672  0.42072636  0.50434657
   0.35573166  0.59307167  0.50873059
   0.18254548  0.07018330  0.09684168
   0.37416077  0.94745519  0.10126047
   0.50429997  0.27039055  0.09437867
   0.18651510  0.92470601  0.58883489
   0.36967496  0.24799150  0.58825100
   0.50912114  0.07132543  0.58707700
   0.19440093  0.93349494  0.90852198
   0.36759645  0.26116355  0.90349435
   0.51330928  0.08419518  0.91379030
   0.18108041  0.07133339  0.40496879
   0.36958671  0.93427473  0.40322605
   0.51343909  0.25477518  0.40876893
   0.69851782  0.08956184  0.10532091
   0.86928978  0.93476282  0.09548047
   0.01313142  0.26456807  0.09891157
   0.68217639  0.92423302  0.58024066
   0.85223186  0.25108715  0.58491084
   0.00242269  0.06332228  0.58646281
   0.69311330  0.94662584  0.91383487
   0.87515042  0.26195071  0.91007306
   0.01193597  0.08517746  0.91367442
   0.69373917  0.07966719  0.39236939
   0.85633436  0.93139714  0.39726420
   0.00649112  0.24300920  0.41588071
   0.69193652  0.59097755  0.07993662
   0.86507384  0.44033633  0.09086735
   0.02649764  0.76409619  0.08571207
   0.69027624  0.42979892  0.59420483
   0.87691424  0.75496831  0.58936261
   0.00311216  0.57641097  0.59617933
   0.69276225  0.43530792  0.89788729
   0.86512512  0.76137512  0.90672131
   0.01674233  0.58334793  0.91602778
   0.68206675  0.56788239  0.40637189
   0.87348964  0.43904436  0.40420038
   0.01222210  0.75151078  0.39883133
   0.20752368  0.59383348  0.09587359
   0.36880929  0.43390762  0.08366464
   0.51946621  0.76174507  0.09133089
   0.18935114  0.43433060  0.59680066
   0.36581834  0.75542009  0.59752271
   0.51730229  0.57539907  0.60030841
   0.18923859  0.43973818  0.90907467
   0.37405198  0.76291602  0.90998392
   0.50235164  0.58056116  0.89066854
   0.19280079  0.56601878  0.41626492
   0.36598091  0.42867407  0.41543322
   0.50401648  0.75800402  0.40608841
 
 position of ions in cartesian coordinates  (Angst):
   5.55690011  5.13968000  2.73386000
   8.70294003  1.56724857  8.46518000
   1.37578997  3.52339143  8.36556000
  -4.23813997  7.92228257  8.31704000
   4.79355997  0.97523143  2.77320000
   3.08112997  3.78557857  2.77091000
   3.65959989  1.26199000  8.44296000
   1.07510005  7.48885713  8.48411000
   0.24018997  5.12649143  2.92188000
   2.33089000  7.67568287  2.71611000
   7.43924005  2.70348287  2.89579000
  -1.27824000  5.65271000  8.56409000
   6.53633005  3.57728287  8.42171000
   3.99740024  5.27269143  8.42058000
  -2.53948000  7.76137000  2.84368000
  -0.08500008  0.91217143  2.80230000
   5.56165000  2.29775000 11.17354801
   5.66114000  2.24135000  5.52025000
   0.60448100  2.30497000  0.06854070
   0.58644600  2.17874000  5.65334000
  -1.82399000  6.60306000  0.05379959
  -1.95201000  6.56738000  5.60136000
   3.01830000  6.52392000 11.17552691
   3.20182000  6.51781000  5.68837000
  -4.44845005  7.99183000  0.01092700
   3.07857000  0.82206300  0.03268240
  -4.38039005  7.92220000  5.53882000
   3.16012000  0.75648400  5.53755000
   0.61175100  8.05041000  0.06259959
   8.14026000  0.83815100  0.05189959
   0.63562400  8.03895000  5.58123000
   8.14890000  0.66183800  5.56041000
   3.13517000  3.70500000 11.16799251
   5.63443000  5.19724000 11.11437241
   3.12698000  3.67590000  5.67459000
   5.66721000  5.03666000  5.55408000
  -1.82552005  3.73963000  0.09009800
   0.64006000  5.16813000 11.16247121
  -1.89596005  3.65052000  5.65776000
   0.59308300  5.14591000  5.70694000
   1.47734000  0.60896000  1.08637000
  -0.99756003  8.22079257  1.13594000
   3.69806000  2.34610000  1.05874000
  -2.76362003  8.02340457  6.60555000
   2.46146000  2.15175000  6.59900000
   4.74358000  0.61887000  6.58583000
  -2.72864003  8.09966357 10.19180000
   2.37465000  2.26604000 10.13540000
   4.72107000  0.73053700 10.25090000
   1.45690000  0.61893900  4.54294000
  -0.97736003  8.10642957  4.52339000
   3.86785000  2.21061000  4.58557000
   6.54979000  0.77710200  1.18149000
   4.02671997  8.11066457  1.07110000
  -1.19379005  2.29558000  1.10959000
   2.20477997  8.01930057  6.50914000
   7.28069000  2.17861000  6.56153000
  -0.29294005  0.54942900  6.57894000
   2.20217997  8.21359657 10.25140000
   7.45589000  2.27287000 10.20920000
  -0.30711005  0.73906000 10.24960000
   6.55148000  0.69124900  4.40160000
   3.91377997  8.08146157  4.45651000
  -1.15232005  2.10852000  4.66535000
   3.97201000  5.12774000  0.89672900
   6.46131000  3.82067000  1.01935000
  -3.56226005  6.62984000  0.96151800
   4.76280000  3.72924000  6.66579000
   5.00379000  6.55064000  6.61147000
  -2.85635005  5.00135000  6.68794000
   4.76011000  3.77704000 10.07250000
   4.85358000  6.60623000 10.17160000
  -2.75454005  5.06154000 10.27600000
   3.98882000  4.92735000  4.55868000
   6.55210000  3.80946000  4.53432000
  -3.64224005  6.52064000  4.47409000
  -0.89562900  5.15252000  1.07551000
   1.52144000  3.76489000  0.93855000
   1.38857000  6.60944000  1.02455000
  -0.27867000  3.76856000  6.69491000
  -0.11914300  6.55456000  6.70301000
   2.30039000  4.99257000  6.73426000
  -0.30688700  3.81548000 10.19800000
  -0.07420100  6.61960000 10.20820000
   2.12474000  5.03736000  9.99152000
  -0.90380000  4.91118000  4.66966000
   1.51932000  3.71948000  4.66033000
   1.25252000  6.57698000  4.55550000
 


--------------------------------------------------------------------------------------------------------


 k-point  1 :   0.0000 0.0000 0.0000  plane waves:   17725
 k-point  2 :   0.5000-0.0000-0.0000  plane waves:   17736
 k-point  3 :   0.0000 0.5000 0.0000  plane waves:   17736
 k-point  4 :   0.5000 0.5000-0.0000  plane waves:   17736
 k-point  5 :   0.0000 0.0000 0.5000  plane waves:   17676
 k-point  6 :   0.5000-0.0000 0.5000  plane waves:   17700
 k-point  7 :   0.0000 0.5000 0.5000  plane waves:   17700
 k-point  8 :   0.5000 0.5000 0.5000  plane waves:   17700

 maximum and minimum number of plane-waves per node :     17736    17676

 maximum number of plane-waves:     17736
 maximum index in each direction: 
   IXMAX=   16   IYMAX=   16   IZMAX=   18
   IXMIN=  -16   IYMIN=  -16   IZMIN=  -18


 serial   3D FFT for wavefunctions
 parallel 3D FFT for charge:
    minimum data exchange during FFTs selected (reduces bandwidth)


 total amount of memory used by VASP MPI-rank0    94439. kBytes
=======================================================================

   base      :      30000. kBytes
   nonlr-proj:      13680. kBytes
   fftplans  :       1275. kBytes
   grid      :      22786. kBytes
   one-center:       2737. kBytes
   wavefun   :      23961. kBytes
 
     INWAV:  cpu time    0.0000: real time    0.0001
 Broyden mixing: mesh for mixing (old mesh)
   NGX = 33   NGY = 33   NGZ = 37
  (NGX  =100   NGY  =100   NGZ  =112)
  gives a total of  40293 points

 initial charge density was supplied:
 charge density of overlapping atoms calculated
 number of electron     672.0000000 magnetization      48.0000000
 keeping initial charge density in first step


--------------------------------------------------------------------------------------------------------


 Maximum index for non-local projection operator         1550
 Maximum index for augmentation-charges          497 (set IRDMAX)


--------------------------------------------------------------------------------------------------------


 First call to EWALD:  gamma=   0.179
 Maximum number of real-space cells 3x 3x 2
 Maximum number of reciprocal cells 3x 3x 3

    FEWALD:  cpu time    0.0027: real time    0.0027


--------------------------------------- Iteration      1(   1)  ---------------------------------------


    POTLOK:  cpu time    0.1945: real time    0.1961
    SETDIJ:  cpu time    4.6403: real time    4.6404
    EDDIAG:  cpu time    4.4359: real time    4.8088
  RMM-DIIS:  cpu time    9.1186: real time    9.1215
    ORTHCH:  cpu time    1.1713: real time    1.2503
       DOS:  cpu time    0.0020: real time    0.0021
    --------------------------------------------
      LOOP:  cpu time   19.5625: real time   20.0193

 eigenvalue-minimisations  :  7680
 total energy-change (2. order) : 0.1602444E+04  (-0.3496914E+05)
 number of electron     672.0000000 magnetization      48.0000000
 augmentation part      672.0000000 magnetization      48.0000000

 Free energy of the ion-electron system (eV)
  ---------------------------------------------------
  alpha Z        PSCENC =      2652.81237852
  Ewald energy   TEWEN  =    -41723.62499687
  -Hartree energ DENC   =    -25883.15238306
  -exchange      EXHF   =         0.00000000
  -V(xc)+E(xc)   XCENC  =      3606.54185393
  PAW double counting   =     55594.23204139   -59034.67079123
  entropy T*S    EENTRO =        -0.04035317
  eigenvalues    EBANDS =     -7471.85237785
  atomic energy  EATOM  =     73862.19814772
  Solvation  Ediel_sol  =         0.00000000
  ---------------------------------------------------
  free energy    TOTEN  =      1602.44351938 eV

  energy without entropy =     1602.48387255  energy(sigma->0) =     1602.46369596


--------------------------------------------------------------------------------------------------------




--------------------------------------- Iteration      1(   2)  ---------------------------------------


    EDDIAG:  cpu time    4.4441: real time    4.8717
  RMM-DIIS:  cpu time    9.1065: real time    9.1120
    ORTHCH:  cpu time    1.1713: real time    1.2519
       DOS:  cpu time    0.0020: real time    0.0020
    --------------------------------------------
      LOOP:  cpu time   14.7238: real time   15.2376

 eigenvalue-minimisations  :  7680
 total energy-change (2. order) :-0.2329535E+04  (-0.8031860E+04)
 number of electron     672.0000000 magnetization      48.0000000
 augmentation part      672.0000000 magnetization      48.0000000

 Free energy of the ion-electron system (eV)
  ---------------------------------------------------
  alpha Z        PSCENC =      2652.81237852
  Ewald energy   TEWEN  =    -41723.62499687
  -Hartree energ DENC   =    -25883.15238306
  -exchange      EXHF   =         0.00000000
  -V(xc)+E(xc)   XCENC  =      3606.54185393
  PAW double counting   =     55594.23204139   -59034.67079123
  entropy T*S    EENTRO =        -0.04146255
  eigenvalues    EBANDS =     -9801.38588468
  atomic energy  EATOM  =     73862.19814772
  Solvation  Ediel_sol  =         0.00000000
  ---------------------------------------------------
  free energy    TOTEN  =      -727.09109682 eV

  energy without entropy =     -727.04963427  energy(sigma->0) =     -727.07036555


--------------------------------------------------------------------------------------------------------




--------------------------------------- Iteration      1(   3)  ---------------------------------------


    EDDIAG:  cpu time    4.4737: real time    4.8400
  RMM-DIIS:  cpu time    9.1000: real time    9.1054
    ORTHCH:  cpu time    1.1778: real time    1.2535
       DOS:  cpu time    0.0018: real time    0.0018
    --------------------------------------------
      LOOP:  cpu time   14.7533: real time   15.2006

 eigenvalue-minimisations  :  7680
 total energy-change (2. order) : 0.8287062E+02  (-0.1419760E+04)
 number of electron     672.0000000 magnetization      48.0000000
 augmentation part      672.0000000 magnetization      48.0000000

 Free energy of the ion-electron system (eV)
  ---------------------------------------------------
  alpha Z        PSCENC =      2652.81237852
  Ewald energy   TEWEN  =    -41723.62499687
  -Hartree energ DENC   =    -25883.15238306
  -exchange      EXHF   =         0.00000000
  -V(xc)+E(xc)   XCENC  =      3606.54185393
  PAW double counting   =     55594.23204139   -59034.67079123
  entropy T*S    EENTRO =        -0.04624748
  eigenvalues    EBANDS =     -9718.51047724
  atomic energy  EATOM  =     73862.19814772
  Solvation  Ediel_sol  =         0.00000000
  ---------------------------------------------------
  free energy    TOTEN  =      -644.22047432 eV

  energy without entropy =     -644.17422683  energy(sigma->0) =     -644.19735058


--------------------------------------------------------------------------------------------------------




--------------------------------------- Iteration      1(   4)  ---------------------------------------


    EDDIAG:  cpu time    4.4600: real time    4.8491
  RMM-DIIS:  cpu time    9.0928: real time    9.1167
    ORTHCH:  cpu time    1.1752: real time    1.2529
       DOS:  cpu time    0.0016: real time    0.0016
    --------------------------------------------
      LOOP:  cpu time   14.7296: real time   15.2203

 eigenvalue-minimisations  :  7680
 total energy-change (2. order) :-0.4671553E+03  (-0.4289518E+03)
 number of electron     672.0000000 magnetization      48.0000000
 augmentation part      672.0000000 magnetization      48.0000000

 Free energy of the ion-electron system (eV)
  ---------------------------------------------------
  alpha Z        PSCENC =      2652.81237852
  Ewald energy   TEWEN  =    -41723.62499687
  -Hartree energ DENC   =    -25883.15238306
  -exchange      EXHF   =         0.00000000
  -V(xc)+E(xc)   XCENC  =      3606.54185393
  PAW double counting   =     55594.23204139   -59034.67079123
  entropy T*S    EENTRO =        -0.00000000
  eigenvalues    EBANDS =    -10185.71203037
  atomic energy  EATOM  =     73862.19814772
  Solvation  Ediel_sol  =         0.00000000
  ---------------------------------------------------
  free energy    TOTEN  =     -1111.37577997 eV

  energy without entropy =    -1111.37577997  energy(sigma->0) =    -1111.37577997


--------------------------------------------------------------------------------------------------------




--------------------------------------- Iteration      1(   5)  ---------------------------------------


    EDDIAG:  cpu time    4.4448: real time    4.8214
  RMM-DIIS:  cpu time    9.1020: real time    9.1048
    ORTHCH:  cpu time    1.1698: real time    1.2494
       DOS:  cpu time    0.0011: real time    0.0011
    --------------------------------------------
      LOOP:  cpu time   14.7177: real time   15.1768

 eigenvalue-minimisations  :  7680
 total energy-change (2. order) :-0.1042868E+03  (-0.1596852E+03)
 number of electron     672.0000000 magnetization      48.0000000
 augmentation part      672.0000000 magnetization      48.0000000

 Free energy of the ion-electron system (eV)
  ---------------------------------------------------
  alpha Z        PSCENC =      2652.81237852
  Ewald energy   TEWEN  =    -41723.62499687
  -Hartree energ DENC   =    -25883.15238306
  -exchange      EXHF   =         0.00000000
  -V(xc)+E(xc)   XCENC  =      3606.54185393
  PAW double counting   =     55594.23204139   -59034.67079123
  entropy T*S    EENTRO =        -0.00000000
  eigenvalues    EBANDS =    -10289.99882581
  atomic energy  EATOM  =     73862.19814772
  Solvation  Ediel_sol  =         0.00000000
  ---------------------------------------------------
  free energy    TOTEN  =     -1215.66257540 eV

  energy without entropy =    -1215.66257540  energy(sigma->0) =    -1215.66257540


--------------------------------------------------------------------------------------------------------




--------------------------------------- Iteration      1(   6)  ---------------------------------------


    EDDIAG:  cpu time    4.4914: real time    4.8643
  RMM-DIIS:  cpu time    9.0997: real time    9.1033
    ORTHCH:  cpu time    1.1768: real time    1.2526
       DOS:  cpu time    0.0015: real time    0.0015
    --------------------------------------------
      LOOP:  cpu time   14.7694: real time   15.2216

 eigenvalue-minimisations  :  7680
 total energy-change (2. order) :-0.8884096E+01  (-0.7919196E+02)
 number of electron     672.0000000 magnetization      48.0000000
 augmentation part      672.0000000 magnetization      48.0000000

 Free energy of the ion-electron system (eV)
  ---------------------------------------------------
  alpha Z        PSCENC =      2652.81237852
  Ewald energy   TEWEN  =    -41723.62499687
  -Hartree energ DENC   =    -25883.15238306
  -exchange      EXHF   =         0.00000000
  -V(xc)+E(xc)   XCENC  =      3606.54185393
  PAW double counting   =     55594.23204139   -59034.67079123
  entropy T*S    EENTRO =        -0.00000000
  eigenvalues    EBANDS =    -10298.88292200
  atomic energy  EATOM  =     73862.19814772
  Solvation  Ediel_sol  =         0.00000000
  ---------------------------------------------------
  free energy    TOTEN  =     -1224.54667160 eV

  energy without entropy =    -1224.54667160  energy(sigma->0) =    -1224.54667160


--------------------------------------------------------------------------------------------------------




--------------------------------------- Iteration      1(   7)  ---------------------------------------


    EDDIAG:  cpu time    4.4891: real time    4.8533
  RMM-DIIS:  cpu time    9.1119: real time    9.1174
    ORTHCH:  cpu time    1.1720: real time    1.2540
       DOS:  cpu time    0.0011: real time    0.0011
    --------------------------------------------
      LOOP:  cpu time   14.7742: real time   15.2259

 eigenvalue-minimisations  :  7680
 total energy-change (2. order) :-0.1842093E+01  (-0.4831623E+02)
 number of electron     672.0000000 magnetization      48.0000000
 augmentation part      672.0000000 magnetization      48.0000000

 Free energy of the ion-electron system (eV)
  ---------------------------------------------------
  alpha Z        PSCENC =      2652.81237852
  Ewald energy   TEWEN  =    -41723.62499687
  -Hartree energ DENC   =    -25883.15238306
  -exchange      EXHF   =         0.00000000
  -V(xc)+E(xc)   XCENC  =      3606.54185393
  PAW double counting   =     55594.23204139   -59034.67079123
  entropy T*S    EENTRO =        -0.00000000
  eigenvalues    EBANDS =    -10300.72501540
  atomic energy  EATOM  =     73862.19814772
  Solvation  Ediel_sol  =         0.00000000
  ---------------------------------------------------
  free energy    TOTEN  =     -1226.38876499 eV

  energy without entropy =    -1226.38876499  energy(sigma->0) =    -1226.38876499


--------------------------------------------------------------------------------------------------------




--------------------------------------- Iteration      1(   8)  ---------------------------------------


    EDDIAG:  cpu time    4.4724: real time    4.8819
  RMM-DIIS:  cpu time    9.0872: real time    9.1041
    ORTHCH:  cpu time    1.1730: real time    1.2516
       DOS:  cpu time    0.0016: real time    0.0016
    --------------------------------------------
      LOOP:  cpu time   14.7343: real time   15.2392

 eigenvalue-minimisations  :  7680
 total energy-change (2. order) : 0.4999784E+01  (-0.3002671E+02)
 number of electron     672.0000000 magnetization      48.0000000
 augmentation part      672.0000000 magnetization      48.0000000

 Free energy of the ion-electron system (eV)
  ---------------------------------------------------
  alpha Z        PSCENC =      2652.81237852
  Ewald energy   TEWEN  =    -41723.62499687
  -Hartree energ DENC   =    -25883.15238306
  -exchange      EXHF   =         0.00000000
  -V(xc)+E(xc)   XCENC  =      3606.54185393
  PAW double counting   =     55594.23204139   -59034.67079123
  entropy T*S    EENTRO =        -0.00000000
  eigenvalues    EBANDS =    -10295.72523107
  atomic energy  EATOM  =     73862.19814772
  Solvation  Ediel_sol  =         0.00000000
  ---------------------------------------------------
  free energy    TOTEN  =     -1221.38898067 eV

  energy without entropy =    -1221.38898067  energy(sigma->0) =    -1221.38898067


--------------------------------------------------------------------------------------------------------




--------------------------------------- Iteration      1(   9)  ---------------------------------------


    EDDIAG:  cpu time    4.4624: real time    4.8373
  RMM-DIIS:  cpu time   19.0032: real time   19.1451
    ORTHCH:  cpu time    1.1712: real time    1.2509
       DOS:  cpu time    0.0014: real time    0.0014
    --------------------------------------------
      LOOP:  cpu time   24.6381: real time   25.2346

 eigenvalue-minimisations  : 21806
 total energy-change (2. order) : 0.9321267E+01  (-0.1322650E+02)
 number of electron     672.0000000 magnetization      48.0000000
 augmentation part      672.0000000 magnetization      48.0000000

 Free energy of the ion-electron system (eV)
  ---------------------------------------------------
  alpha Z        PSCENC =      2652.81237852
  Ewald energy   TEWEN  =    -41723.62499687
  -Hartree energ DENC   =    -25883.15238306
  -exchange      EXHF   =         0.00000000
  -V(xc)+E(xc)   XCENC  =      3606.54185393
  PAW double counting   =     55594.23204139   -59034.67079123
  entropy T*S    EENTRO =        -0.00000000
  eigenvalues    EBANDS =    -10286.40396401
  atomic energy  EATOM  =     73862.19814772
  Solvation  Ediel_sol  =         0.00000000
  ---------------------------------------------------
  free energy    TOTEN  =     -1212.06771360 eV

  energy without entropy =    -1212.06771360  energy(sigma->0) =    -1212.06771360


--------------------------------------------------------------------------------------------------------




--------------------------------------- Iteration      1(  10)  ---------------------------------------


    EDDIAG:  cpu time    4.4199: real time    4.8035
  RMM-DIIS:  cpu time   17.9670: real time   18.0265
    ORTHCH:  cpu time    1.2052: real time    1.2852
       DOS:  cpu time    0.0012: real time    0.0012
    --------------------------------------------
      LOOP:  cpu time   23.5933: real time   24.1164

 eigenvalue-minimisations  : 19682
 total energy-change (2. order) :-0.1907193E+01  (-0.5316470E+00)
 number of electron     672.0000000 magnetization      48.0000000
 augmentation part      672.0000000 magnetization      48.0000000

 Free energy of the ion-electron system (eV)
  ---------------------------------------------------
  alpha Z        PSCENC =      2652.81237852
  Ewald energy   TEWEN  =    -41723.62499687
  -Hartree energ DENC   =    -25883.15238306
  -exchange      EXHF   =         0.00000000
  -V(xc)+E(xc)   XCENC  =      3606.54185393
  PAW double counting   =     55594.23204139   -59034.67079123
  entropy T*S    EENTRO =        -0.00000000
  eigenvalues    EBANDS =    -10288.31115662
  atomic energy  EATOM  =     73862.19814772
  Solvation  Ediel_sol  =         0.00000000
  ---------------------------------------------------
  free energy    TOTEN  =     -1213.97490622 eV

  energy without entropy =    -1213.97490622  energy(sigma->0) =    -1213.97490622


--------------------------------------------------------------------------------------------------------




--------------------------------------- Iteration      1(  11)  ---------------------------------------


    EDDIAG:  cpu time    4.4222: real time    4.8099
  RMM-DIIS:  cpu time   19.7196: real time   19.7344
    ORTHCH:  cpu time    1.1910: real time    1.2803
       DOS:  cpu time    0.0021: real time    0.0021
    --------------------------------------------
      LOOP:  cpu time   25.3349: real time   25.8267

 eigenvalue-minimisations  : 22645
 total energy-change (2. order) : 0.7014442E-01  (-0.4364992E-01)
 number of electron     672.0000000 magnetization      48.0000000
 augmentation part      672.0000000 magnetization      48.0000000

 Free energy of the ion-electron system (eV)
  ---------------------------------------------------
  alpha Z        PSCENC =      2652.81237852
  Ewald energy   TEWEN  =    -41723.62499687
  -Hartree energ DENC   =    -25883.15238306
  -exchange      EXHF   =         0.00000000
  -V(xc)+E(xc)   XCENC  =      3606.54185393
  PAW double counting   =     55594.23204139   -59034.67079123
  entropy T*S    EENTRO =        -0.00000000
  eigenvalues    EBANDS =    -10288.24101220
  atomic energy  EATOM  =     73862.19814772
  Solvation  Ediel_sol  =         0.00000000
  ---------------------------------------------------
  free energy    TOTEN  =     -1213.90476179 eV

  energy without entropy =    -1213.90476179  energy(sigma->0) =    -1213.90476179


--------------------------------------------------------------------------------------------------------




--------------------------------------- Iteration      1(  12)  ---------------------------------------


    EDDIAG:  cpu time    4.4658: real time    4.8424
  RMM-DIIS:  cpu time   21.6266: real time   21.6451
    ORTHCH:  cpu time    1.1802: real time    1.2580
       DOS:  cpu time    0.0012: real time    0.0012
    CHARGE:  cpu time    1.7845: real time    1.7857
    MIXING:  cpu time    0.0010: real time    0.0011
    --------------------------------------------
      LOOP:  cpu time   29.0593: real time   29.5336

 eigenvalue-minimisations  : 24378
 total energy-change (2. order) :-0.5896296E-03  (-0.4180819E-02)
 number of electron     671.9999789 magnetization      48.0000031
 augmentation part      239.1565614 magnetization      29.0571054

 Broyden mixing:
  rms(total) = 0.12668E+02    rms(broyden)= 0.12659E+02
  rms(prec ) = 0.14494E+02
  weight for this iteration     100.00

 Free energy of the ion-electron system (eV)
  ---------------------------------------------------
  alpha Z        PSCENC =      2652.81237852
  Ewald energy   TEWEN  =    -41723.62499687
  -Hartree energ DENC   =    -25883.15238306
  -exchange      EXHF   =         0.00000000
  -V(xc)+E(xc)   XCENC  =      3606.54185393
  PAW double counting   =     55594.23204139   -59034.67079123
  entropy T*S    EENTRO =        -0.00000000
  eigenvalues    EBANDS =    -10288.24160183
  atomic energy  EATOM  =     73862.19814772
  Solvation  Ediel_sol  =         0.00000000
  ---------------------------------------------------
  free energy    TOTEN  =     -1213.90535142 eV

  energy without entropy =    -1213.90535142  energy(sigma->0) =    -1213.90535142


--------------------------------------------------------------------------------------------------------




--------------------------------------- Iteration      1(  13)  ---------------------------------------


    POTLOK:  cpu time    0.1756: real time    0.1757
    SETDIJ:  cpu time    4.9484: real time    4.9616
    EDDIAG:  cpu time    4.4204: real time    4.7986
  RMM-DIIS:  cpu time   17.3646: real time   17.3892
    ORTHCH:  cpu time    1.1732: real time    1.2505
       DOS:  cpu time    0.0015: real time    0.0015
    CHARGE:  cpu time    1.7774: real time    1.7780
    MIXING:  cpu time    0.0009: real time    0.0010
    --------------------------------------------
      LOOP:  cpu time   29.8620: real time   30.3562

 eigenvalue-minimisations  : 18764
 total energy-change (2. order) : 0.2294859E+03  (-0.1211094E+03)
 number of electron     671.9999884 magnetization      48.0000032
 augmentation part      268.6443067 magnetization      26.6535887

 Broyden mixing:
  rms(total) = 0.13822E+02    rms(broyden)= 0.13820E+02
  rms(prec ) = 0.15514E+02
  weight for this iteration     100.00

 eigenvalues of (default mixing * dielectric matrix)
  average eigenvalue GAMMA=   0.3214
  0.3214

 Free energy of the ion-electron system (eV)
  ---------------------------------------------------
  alpha Z        PSCENC =      2652.81237852
  Ewald energy   TEWEN  =    -41723.62499687
  -Hartree energ DENC   =    -25220.31017085
  -exchange      EXHF   =         0.00000000
  -V(xc)+E(xc)   XCENC  =      3697.04539917
  PAW double counting   =     59987.95489633   -63413.47285849
  entropy T*S    EENTRO =        -0.08824532
  eigenvalues    EBANDS =    -10826.93396493
  atomic energy  EATOM  =     73862.19814772
  Solvation  Ediel_sol  =         0.00000000
  ---------------------------------------------------
  free energy    TOTEN  =      -984.41941472 eV

  energy without entropy =     -984.33116941  energy(sigma->0) =     -984.37529206


--------------------------------------------------------------------------------------------------------




--------------------------------------- Iteration      1(  14)  ---------------------------------------


    POTLOK:  cpu time    0.2252: real time    0.2376
    SETDIJ:  cpu time    4.9497: real time    4.9516
    EDDIAG:  cpu time    4.3868: real time    4.7948
  RMM-DIIS:  cpu time   17.9582: real time   18.0007
    ORTHCH:  cpu time    1.1701: real time    1.2520
       DOS:  cpu time    0.0013: real time    0.0013
    CHARGE:  cpu time    1.7550: real time    1.7900
    MIXING:  cpu time    0.0009: real time    0.0009
    --------------------------------------------
      LOOP:  cpu time   30.4472: real time   31.0287

 eigenvalue-minimisations  : 19363
 total energy-change (2. order) : 0.6854364E+02  (-0.1752471E+02)
 number of electron     671.9999824 magnetization      48.0000053
 augmentation part      246.6427641 magnetization      32.1885105

 Broyden mixing:
  rms(total) = 0.53369E+01    rms(broyden)= 0.53329E+01
  rms(prec ) = 0.57513E+01
  weight for this iteration     100.00

 eigenvalues of (default mixing * dielectric matrix)
  average eigenvalue GAMMA=   0.7360
  1.1127  0.3594

 Free energy of the ion-electron system (eV)
  ---------------------------------------------------
  alpha Z        PSCENC =      2652.81237852
  Ewald energy   TEWEN  =    -41723.62499687
  -Hartree energ DENC   =    -25831.51092833
  -exchange      EXHF   =         0.00000000
  -V(xc)+E(xc)   XCENC  =      3674.80620703
  PAW double counting   =     63412.93654955   -66895.91184153
  entropy T*S    EENTRO =        -0.00000000
  eigenvalues    EBANDS =    -10067.58129421
  atomic energy  EATOM  =     73862.19814772
  Solvation  Ediel_sol  =         0.00000000
  ---------------------------------------------------
  free energy    TOTEN  =      -915.87577811 eV

  energy without entropy =     -915.87577811  energy(sigma->0) =     -915.87577811


--------------------------------------------------------------------------------------------------------




--------------------------------------- Iteration      1(  15)  ---------------------------------------


    POTLOK:  cpu time    0.1744: real time    0.1746
    SETDIJ:  cpu time    4.9617: real time    4.9644
    EDDIAG:  cpu time    4.4110: real time    4.7903
  RMM-DIIS:  cpu time   18.2474: real time   18.2551
    ORTHCH:  cpu time    1.1869: real time    1.2842
       DOS:  cpu time    0.0011: real time    0.0011
    CHARGE:  cpu time    1.7764: real time    1.7785
    MIXING:  cpu time    0.0014: real time    0.0014
    --------------------------------------------
      LOOP:  cpu time   30.7604: real time   31.2497

 eigenvalue-minimisations  : 20257
 total energy-change (2. order) : 0.1406460E+02  (-0.1879810E+01)
 number of electron     671.9999834 magnetization      48.0000069
 augmentation part      249.6402431 magnetization      33.7957880

 Broyden mixing:
  rms(total) = 0.21522E+01    rms(broyden)= 0.21519E+01
  rms(prec ) = 0.22354E+01
  weight for this iteration     100.00

 eigenvalues of (default mixing * dielectric matrix)
  average eigenvalue GAMMA=   0.9661
  0.3864  0.7582  1.7539

 Free energy of the ion-electron system (eV)
  ---------------------------------------------------
  alpha Z        PSCENC =      2652.81237852
  Ewald energy   TEWEN  =    -41723.62499687
  -Hartree energ DENC   =    -25757.28357191
  -exchange      EXHF   =         0.00000000
  -V(xc)+E(xc)   XCENC  =      3707.73399518
  PAW double counting   =     67570.12639644   -71093.58263911
  entropy T*S    EENTRO =        -0.00000000
  eigenvalues    EBANDS =    -10120.19089126
  atomic energy  EATOM  =     73862.19814772
  Solvation  Ediel_sol  =         0.00000000
  ---------------------------------------------------
  free energy    TOTEN  =      -901.81118130 eV

  energy without entropy =     -901.81118130  energy(sigma->0) =     -901.81118130


--------------------------------------------------------------------------------------------------------




--------------------------------------- Iteration      1(  16)  ---------------------------------------


    POTLOK:  cpu time    0.1759: real time    0.1779
    SETDIJ:  cpu time    5.0224: real time    5.0226
    EDDIAG:  cpu time    4.4055: real time    4.8015
  RMM-DIIS:  cpu time   17.5224: real time   17.5492
    ORTHCH:  cpu time    1.1763: real time    1.2775
       DOS:  cpu time    0.0013: real time    0.0013
    CHARGE:  cpu time    1.7786: real time    1.7791
    MIXING:  cpu time    0.0010: real time    0.0010
    --------------------------------------------
      LOOP:  cpu time   30.0833: real time   30.6100

 eigenvalue-minimisations  : 19050
 total energy-change (2. order) :-0.1580578E+01  (-0.6641598E+00)
 number of electron     671.9999837 magnetization      48.0000074
 augmentation part      251.2201771 magnetization      33.8658390

 Broyden mixing:
  rms(total) = 0.13856E+01    rms(broyden)= 0.13851E+01
  rms(prec ) = 0.14771E+01
  weight for this iteration     100.00

 eigenvalues of (default mixing * dielectric matrix)
  average eigenvalue GAMMA=   0.9836
  2.0988  0.9061  0.3938  0.5355

 Free energy of the ion-electron system (eV)
  ---------------------------------------------------
  alpha Z        PSCENC =      2652.81237852
  Ewald energy   TEWEN  =    -41723.62499687
  -Hartree energ DENC   =    -25704.22584127
  -exchange      EXHF   =         0.00000000
  -V(xc)+E(xc)   XCENC  =      3709.02685225
  PAW double counting   =     70622.03755497   -74175.95539854
  entropy T*S    EENTRO =        -0.00000000
  eigenvalues    EBANDS =    -10145.66045651
  atomic energy  EATOM  =     73862.19814772
  Solvation  Ediel_sol  =         0.00000000
  ---------------------------------------------------
  free energy    TOTEN  =      -903.39175973 eV

  energy without entropy =     -903.39175973  energy(sigma->0) =     -903.39175973


--------------------------------------------------------------------------------------------------------




--------------------------------------- Iteration      1(  17)  ---------------------------------------


    POTLOK:  cpu time    0.1718: real time    0.1724
    SETDIJ:  cpu time    5.0269: real time    5.0272
    EDDIAG:  cpu time    4.4238: real time    4.7892
  RMM-DIIS:  cpu time   18.7207: real time   18.7899
    ORTHCH:  cpu time    1.1783: real time    1.2539
       DOS:  cpu time    0.0011: real time    0.0011
    CHARGE:  cpu time    1.7976: real time    1.7981
    MIXING:  cpu time    0.0018: real time    0.0019
    --------------------------------------------
      LOOP:  cpu time   31.3220: real time   31.8337

 eigenvalue-minimisations  : 20619
 total energy-change (2. order) : 0.1808826E+00  (-0.5459657E-01)
 number of electron     671.9999838 magnetization      48.0000078
 augmentation part      251.1009887 magnetization      33.8565465

 Broyden mixing:
  rms(total) = 0.74774E+00    rms(broyden)= 0.74765E+00
  rms(prec ) = 0.84146E+00
  weight for this iteration     100.00

 eigenvalues of (default mixing * dielectric matrix)
  average eigenvalue GAMMA=   1.0132
  2.2534  1.1502  0.3844  0.7017  0.5761

 Free energy of the ion-electron system (eV)
  ---------------------------------------------------
  alpha Z        PSCENC =      2652.81237852
  Ewald energy   TEWEN  =    -41723.62499687
  -Hartree energ DENC   =    -25696.50045198
  -exchange      EXHF   =         0.00000000
  -V(xc)+E(xc)   XCENC  =      3705.77990159
  PAW double counting   =     71430.74068297   -74992.49239041
  entropy T*S    EENTRO =        -0.00000000
  eigenvalues    EBANDS =    -10142.12414864
  atomic energy  EATOM  =     73862.19814772
  Solvation  Ediel_sol  =         0.00000000
  ---------------------------------------------------
  free energy    TOTEN  =      -903.21087709 eV

  energy without entropy =     -903.21087709  energy(sigma->0) =     -903.21087709


--------------------------------------------------------------------------------------------------------




--------------------------------------- Iteration      1(  18)  ---------------------------------------


    POTLOK:  cpu time    0.1751: real time    0.1758
    SETDIJ:  cpu time    4.9874: real time    4.9876
    EDDIAG:  cpu time    4.4238: real time    4.7988
  RMM-DIIS:  cpu time   17.5550: real time   17.6277
    ORTHCH:  cpu time    1.1682: real time    1.2488
       DOS:  cpu time    0.0013: real time    0.0013
    CHARGE:  cpu time    1.7805: real time    1.7843
    MIXING:  cpu time    0.0011: real time    0.0011
    --------------------------------------------
      LOOP:  cpu time   30.0925: real time   30.6253

 eigenvalue-minimisations  : 19028
 total energy-change (2. order) : 0.3856262E+00  (-0.6993994E-01)
 number of electron     671.9999835 magnetization      48.0000080
 augmentation part      250.6019733 magnetization      33.8182167

 Broyden mixing:
  rms(total) = 0.26527E+00    rms(broyden)= 0.26498E+00
  rms(prec ) = 0.27830E+00
  weight for this iteration     100.00

 eigenvalues of (default mixing * dielectric matrix)
  average eigenvalue GAMMA=   1.0219
  2.4653  1.3714  0.8435  0.5929  0.3856  0.4728

 Free energy of the ion-electron system (eV)
  ---------------------------------------------------
[...]
   4      -1.031    -0.858     1.889     0.095    -0.033    -0.032
   5      -0.716    -0.807     1.523    -0.151     0.005    -0.002
   6      -0.894    -0.914     1.808    -0.004     0.104     0.053
   7      -1.104    -0.605     1.709    -0.182    -0.076    -0.039
   8      -1.130    -0.654     1.784     0.129    -0.075    -0.034
   9      -0.956    -0.902     1.858     0.178     0.065     0.020
  10      -0.613    -0.768     1.381     0.143     0.046    -0.003
  11      -1.094    -0.528     1.622    -0.101    -0.073     0.037
  12      -0.464    -0.695     1.160     0.104    -0.033    -0.070
  13      -0.711    -0.846     1.557    -0.199    -0.027     0.024
  14      -0.686    -0.856     1.542     0.180     0.092     0.049
  15      -0.579    -0.800     1.379     0.148    -0.021     0.002
  16      -0.633    -0.840     1.474    -0.148     0.004    -0.046
  17       1.367     1.452    -2.820     0.064     0.105    -0.041
  18       1.536     1.405    -2.941     0.150     0.047     0.032
  19       1.469     1.529    -2.998     0.195    -0.066    -0.006
  20       1.533     1.459    -2.992     0.065     0.009     0.204
  21       1.649     1.359    -3.008    -0.053     0.051     0.040
  22       1.445     1.459    -2.904    -0.052     0.085    -0.140
  23       1.683     1.342    -3.025    -0.181    -0.093     0.073
  24       1.334     1.578    -2.912    -0.245    -0.124    -0.141
  25      -1.582     0.393     1.189     1.437    -0.751    -0.771
  26       0.506     0.199    -0.705    -0.458    -0.192     0.522
  27       0.952    -0.613    -0.339     0.112     0.606    -0.072
  28       0.111    -1.521     1.410     0.442     0.024    -0.161
  29      -0.512     0.014     0.498     0.983    -0.085    -0.134
  30       0.364    -0.173    -0.191    -0.012     0.792     0.319
  31      -1.027     1.213    -0.186     2.000     0.733    -0.139
  32      -0.179    -0.890     1.069    -0.201     0.195     0.386
  33       0.606    -0.440    -0.166    -1.036     0.741     1.069
  34      -3.588    -0.095     3.683     1.272    -0.744    -0.279
  35      -0.457    -0.135     0.592     0.044     0.570     0.198
  36       0.553     1.332    -1.886     0.221     0.532    -0.404
  37      -0.199    -0.713     0.912    -0.089     0.670     1.091
  38       1.256    -0.973    -0.283     0.633     1.190    -0.665
  39      -1.795     0.035     1.760    -1.233    -0.277    -0.411
  40       0.765    -0.526    -0.239    -1.005    -1.122    -1.080
  41      -2.657     2.935    -0.278    -5.911     2.500    -3.440
  42      -2.636     3.317    -0.681     6.393     1.711     3.643
  43       7.509    -6.917    -0.592    -0.208    -4.041     2.525
  44      -3.439     3.446    -0.007    -4.167    -3.950     3.797
  45       4.977    -6.454     1.476    -0.141     3.909    -0.879
  46      -4.312     5.145    -0.833     6.374    -2.611    -3.524
  47      -2.636     1.963     0.673    -5.124     1.252    -5.152
  48       5.859    -5.337    -0.522    -1.201    -4.693    -0.371
  49      -3.288     2.661     0.628     4.945     2.295     4.564
  50      -2.842     0.505     2.338    -5.553    -1.221     4.146
  51      -1.934     1.301     0.633     5.170    -1.904    -5.193
  52       4.674    -5.864     1.190    -0.745     5.368     1.020
  53      -2.001     2.366    -0.365    -5.063     2.224    -4.502
  54      -3.197     2.460     0.737     5.904     3.611     3.557
  55       6.599    -6.410    -0.189    -0.050    -3.026     0.712
  56      -6.081     3.942     2.139    -2.939    -1.666     3.730
  57       2.381    -5.740     3.359    -0.916     4.831     1.702
  58      -4.029     2.742     1.287     3.518    -2.059    -2.911
  59      -3.987     3.311     0.675    -5.895     2.667    -3.075
  60       5.760    -4.897    -0.863    -0.518    -4.236    -0.285
  61      -2.999     1.459     1.539     3.999     3.444     4.360
  62      -2.596     2.542     0.055    -3.385    -1.149     4.324
  63      -1.261     1.580    -0.319     5.263    -0.666    -5.811
  64       5.113    -6.564     1.451     0.312     4.569    -0.633
  65      -1.328    -0.395     1.723    -4.660     2.902    -2.868
  66      -3.729     2.822     0.907     3.119     1.348     5.614
  67       2.151    -4.826     2.674     1.137    -5.934    -1.230
  68      -3.928     3.744     0.185    -4.746    -0.690     5.088
  69       6.111    -5.688    -0.423    -0.234     3.661     0.876
  70      -2.560     3.492    -0.932     5.339    -2.556    -4.016
  71      -1.188     0.420     0.769    -4.740     2.541    -3.953
  72       3.424    -6.240     2.816     2.743    -4.490    -0.584
  73      -5.286     3.475     1.811     4.752     2.009     3.801
  74      -4.937     5.232    -0.295    -3.423    -0.221     3.704
  75      -3.048     3.666    -0.618     5.526    -1.014    -3.427
  76       6.056    -6.138     0.082     0.426     4.544    -0.632
  77      -3.094     0.932     2.162    -5.236     2.903    -3.970
  78      -3.965     2.473     1.493     4.355     2.532     4.279
  79       4.663    -5.471     0.809     1.311    -4.589    -0.327
  80      -3.421     1.483     1.938    -4.984    -3.422     3.564
  81       5.404    -5.999     0.594     0.261     4.722    -1.676
  82      -1.544     0.597     0.947     5.620    -0.462    -4.733
  83      -2.072     2.162    -0.090    -5.592     4.034    -3.686
  84       5.222    -5.898     0.676     0.524    -4.162    -0.312
  85      -3.548     3.854    -0.306     4.607     2.897     2.358
  86      -2.273     4.462    -2.188    -7.005    -2.992     3.540
  87      -3.642     2.745     0.897     3.715    -3.491    -3.660
  88       7.529    -6.292    -1.237    -0.943     3.721     0.978
 ---------------------------------------------------------------------


 Total hyperfine coupling parameters after diagonalization (MHz)
 (convention: |A_zz| > |A_xx| > |A_yy|)
 ----------------------------------------------------------------------
  ion      A_xx      A_yy      A_zz     asymmetry (A_yy - A_xx)/ A_zz 
 ----------------------------------------------------------------------
   1      -0.121    -0.054     2.821       0.023
   2       1.788     1.141     3.943      -0.164
   3       2.232     1.903     4.308      -0.076
   4       0.288     0.032     2.995      -0.085
   5       2.107     1.791     4.234      -0.075
   6       0.540     0.519     3.249      -0.006
   7       1.092     0.472     3.349      -0.185
   8       1.413     0.872     3.822      -0.142
   9       0.855     0.496     3.465      -0.104
  10       1.955     1.630     3.866      -0.084
  11       1.495     0.893     3.631      -0.166
  12       2.270     1.959     3.859      -0.081
  13       2.243     1.823     4.370      -0.096
  14       2.153     1.760     4.278      -0.092
  15       2.332     1.963     4.216      -0.088
  16       2.658     2.296     4.689      -0.077
  17      12.896     8.737    13.046      -0.319
  18      13.828     9.579    14.156      -0.300
  19      14.873    10.571    15.268      -0.282
  20      15.723    11.295    15.870      -0.279
  21      14.826    10.467    15.134      -0.288
  22      14.543    10.233    14.653      -0.294
  23      14.088     9.796    14.587      -0.294
  24      14.159    10.048    14.699      -0.280
  25      97.604    95.082    99.661      -0.025
  26      97.171    96.253    98.166      -0.009
  27      95.336    95.117    97.019      -0.002
  28      96.881    95.016    98.076      -0.019
  29      97.988    96.296    98.405      -0.017
  30      96.736    95.970    97.784      -0.008
  31      95.516    93.083    97.915      -0.025
  32      93.296    92.400    94.590      -0.009
  33      95.777    93.031    96.280      -0.029
  34      98.596    94.293   102.149      -0.042
  35      93.131    92.592    94.183      -0.006
  36      96.327    93.633    97.100      -0.028
  37      98.184    97.031   100.060      -0.012
  38      95.173    93.405    97.177      -0.018
  39     102.371    99.304   103.617      -0.030
  40      98.080    95.179    98.948      -0.029
  41       4.623     0.481    15.584      -0.266
  42       5.557     1.063    16.863      -0.267
  43       7.628     1.098    18.261      -0.358
  44       3.192    -0.913    13.988      -0.293
  45       6.286     0.704    14.798      -0.377
  46       7.697     2.529    20.219      -0.256
  47       4.192    -0.363    14.737      -0.309
  48       4.561     1.585    15.675      -0.190
  49       3.907     0.399    15.186      -0.231
  50       7.382     0.656    15.652      -0.430
  51       5.981     2.120    17.070      -0.226
  52       3.157    -0.882    14.001      -0.289
  53       2.990     0.567    14.536      -0.167
  54       6.303     1.142    17.393      -0.297
  55       7.984     2.748    17.003      -0.308
  56       9.108     2.936    17.557      -0.352
  57       5.082    -0.166    14.095      -0.372
  58       5.392     0.702    12.890      -0.364
  59       6.593     0.458    16.437      -0.373
  60       2.492     0.290    13.142      -0.168
  61       4.652     1.961    15.772      -0.171
  62       2.760     0.574    12.186      -0.179
  63       6.564     0.904    16.695      -0.339
  64       4.660    -0.459    14.407      -0.355
  65       6.355     2.227    14.762      -0.280
  66       2.558     0.514    14.188      -0.144
  67       2.983     1.475    15.073      -0.100
  68       5.833     1.285    16.802      -0.271
  69       6.241     2.196    15.848      -0.255
  70       5.952     3.490    18.077      -0.136
  71       5.375     2.407    15.308      -0.194
  72       8.803     2.821    17.859      -0.335
  73       6.220    -0.176    15.570      -0.411
  74       5.969     1.570    15.588      -0.282
  75       7.379     2.961    17.416      -0.254
  76       5.675     1.611    16.405      -0.248
  77       6.508     1.523    16.618      -0.300
  78       3.867    -0.205    14.269      -0.285
  79       5.516     2.046    15.533      -0.223
  80       5.028    -0.039    14.945      -0.339
  81       5.231     0.364    15.290      -0.318
  82       7.982     1.271    16.214      -0.414
  83       5.516     2.017    17.466      -0.200
  84       5.186     1.055    14.698      -0.281
  85       7.079     2.108    15.920      -0.312
  86       5.828     2.741    20.074      -0.154
  87       3.846    -0.177    13.599      -0.296
  88       6.212     1.749    17.354      -0.257
 ---------------------------------------------------------------------



--------------------------------------------------------------------------------------------------------


 stress matrix after NEB project (eV)
    -40.18834     -1.51505     -2.30416
     -1.50620    -45.37727     -0.69888
     -2.30462     -0.71792    -54.91167
  FORCES: max atom, RMS     2.220170    1.069723
  FORCE total and by dimension   10.034891    1.612423
  Stress total and by dimension   81.888212   54.911669
     LOOP+:  cpu time  764.4622: real time  779.0983
    4ORBIT:  cpu time    0.0000: real time    0.0000
 


 total charge     
 
# of ion       s       p       d       tot
------------------------------------------
    1        0.050   5.993   0.000   6.044
    2        0.051   5.993   0.000   6.044
    3        0.050   5.991   0.000   6.041
    4        0.050   5.994   0.000   6.043
    5        0.051   5.993   0.000   6.045
    6        0.050   5.993   0.000   6.044
    7        0.053   5.997   0.000   6.050
    8        0.052   5.996   0.000   6.048
    9        0.055   6.001   0.000   6.056
   10        0.050   5.993   0.000   6.043
   11        0.054   5.997   0.000   6.051
   12        0.047   5.988   0.000   6.035
   13        0.048   5.989   0.000   6.038
   14        0.049   5.991   0.000   6.041
   15        0.050   5.992   0.000   6.042
   16        0.048   5.990   0.000   6.038
   17        0.144   6.119   0.076   6.339
   18        0.152   6.133   0.087   6.372
   19        0.147   6.125   0.082   6.354
   20        0.145   6.122   0.080   6.346
   21        0.153   6.135   0.090   6.378
   22        0.145   6.123   0.080   6.348
   23        0.152   6.134   0.088   6.374
   24        0.145   6.122   0.079   6.346
   25        0.380   6.465   4.836  11.682
   26        0.369   6.442   4.814  11.625
   27        0.381   6.467   4.848  11.696
   28        0.379   6.462   4.835  11.676
   29        0.371   6.446   4.819  11.637
   30        0.378   6.461   4.830  11.669
   31        0.383   6.476   4.853  11.713
   32        0.391   6.485   4.866  11.742
   33        0.380   6.459   4.846  11.684
   34        0.379   6.461   4.837  11.677
   35        0.386   6.476   4.848  11.709
   36        0.383   6.468   4.854  11.705
   37        0.372   6.449   4.821  11.642
   38        0.385   6.476   4.851  11.711
   39        0.369   6.443   4.819  11.632
   40        0.379   6.456   4.840  11.674
   41        1.599   3.488   0.000   5.088
   42        1.599   3.497   0.000   5.096
   43        1.601   3.507   0.000   5.108
   44        1.601   3.497   0.000   5.097
   45        1.597   3.521   0.000   5.118
   46        1.603   3.511   0.000   5.113
   47        1.598   3.473   0.000   5.071
   48        1.598   3.493   0.000   5.091
   49        1.600   3.516   0.000   5.116
   50        1.598   3.499   0.000   5.096
   51        1.599   3.513   0.000   5.111
   52        1.598   3.515   0.000   5.112
   53        1.596   3.466   0.000   5.062
   54        1.600   3.488   0.000   5.088
   55        1.598   3.520   0.000   5.118
   56        1.602   3.551   0.000   5.153
   57        1.597   3.518   0.000   5.115
   58        1.597   3.527   0.000   5.124
   59        1.601   3.507   0.000   5.108
   60        1.598   3.498   0.000   5.096
   61        1.598   3.519   0.000   5.117
   62        1.596   3.474   0.000   5.070
   63        1.602   3.484   0.000   5.086
   64        1.600   3.527   0.000   5.127
   65        1.599   3.532   0.000   5.131
   66        1.595   3.498   0.000   5.094
   67        1.601   3.516   0.000   5.117
   68        1.600   3.494   0.000   5.094
   69        1.599   3.530   0.000   5.129
   70        1.601   3.497   0.000   5.098
   71        1.596   3.501   0.000   5.097
   72        1.599   3.527   0.000   5.126
   73        1.599   3.536   0.000   5.135
   74        1.598   3.510   0.000   5.108
   75        1.601   3.541   0.000   5.141
   76        1.598   3.510   0.000   5.108
   77        1.602   3.506   0.000   5.108
   78        1.601   3.523   0.000   5.124
   79        1.600   3.527   0.000   5.127
   80        1.597   3.502   0.000   5.099
   81        1.598   3.497   0.000   5.095
   82        1.596   3.508   0.000   5.104
   83        1.601   3.503   0.000   5.104
   84        1.600   3.539   0.000   5.139
   85        1.597   3.486   0.000   5.083
   86        1.606   3.522   0.000   5.127
   87        1.599   3.489   0.000   5.088
   88        1.599   3.485   0.000   5.084
--------------------------------------------------
tot         84.812 416.683  78.078 579.573
 


 magnetization (x)
 
# of ion       s       p       d       tot
------------------------------------------
    1        0.001   0.000   0.000   0.001
    2        0.002   0.000   0.000   0.002
    3        0.002   0.000   0.000   0.002
    4        0.001   0.000   0.000   0.001
    5        0.002   0.000   0.000   0.002
    6        0.001   0.001   0.000   0.002
    7        0.001   0.000   0.000   0.002
    8        0.001   0.001   0.000   0.002
    9        0.001   0.001   0.000   0.002
   10        0.002   0.000   0.000   0.002
   11        0.001   0.000   0.000   0.002
   12        0.002   0.000   0.000   0.002
   13        0.002   0.000   0.000   0.003
   14        0.002   0.000   0.000   0.002
   15        0.002   0.000   0.000   0.003
   16        0.002   0.000   0.000   0.003
   17        0.007   0.002   0.001   0.009
   18        0.007   0.002   0.001   0.010
   19        0.008   0.002   0.001   0.012
   20        0.008   0.003   0.001   0.012
   21        0.007   0.003   0.001   0.011
   22        0.008   0.002   0.001   0.011
   23        0.007   0.002   0.001   0.011
   24        0.007   0.002   0.001   0.011
   25        0.016   0.030   2.749   2.794
   26        0.015   0.031   2.763   2.809
   27        0.015   0.030   2.741   2.786
   28        0.015   0.030   2.752   2.797
   29        0.015   0.030   2.764   2.809
   30        0.015   0.031   2.748   2.794
   31        0.015   0.031   2.722   2.768
   32        0.014   0.030   2.724   2.769
   33        0.015   0.029   2.740   2.784
   34        0.016   0.030   2.755   2.801
   35        0.014   0.031   2.735   2.781
   36        0.015   0.030   2.730   2.775
   37        0.016   0.031   2.764   2.811
   38        0.015   0.030   2.734   2.779
   39        0.017   0.031   2.772   2.820
   40        0.015   0.031   2.748   2.794
   41        0.002   0.029   0.000   0.031
   42        0.002   0.031   0.000   0.033
   43        0.002   0.050   0.000   0.052
   44        0.002   0.005   0.000   0.007
   45        0.002   0.043   0.000   0.044
   46        0.003   0.057   0.000   0.059
   47        0.002   0.017   0.000   0.019
   48        0.002   0.028   0.000   0.030
   49        0.002   0.029   0.000   0.031
   50        0.002   0.041   0.000   0.043
   51        0.002   0.045   0.000   0.047
   52        0.001   0.024   0.000   0.026
   53        0.002   0.014   0.000   0.015
   54        0.002   0.040   0.000   0.042
   55        0.002   0.047   0.000   0.049
   56        0.002   0.066   0.000   0.068
   57        0.002   0.028   0.000   0.030
   58        0.002   0.037   0.000   0.038
   59        0.002   0.039   0.000   0.041
   60        0.002   0.014   0.000   0.016
   61        0.002   0.040   0.000   0.042
   62        0.002   0.010   0.000   0.012
   63        0.002   0.032   0.000   0.035
   64        0.002   0.027   0.000   0.028
   65        0.002   0.038   0.000   0.040
   66        0.002   0.019   0.000   0.020
   67        0.002   0.026   0.000   0.028
   68        0.002   0.034   0.000   0.036
   69        0.002   0.047   0.000   0.048
   70        0.002   0.038   0.000   0.041
   71        0.002   0.027   0.000   0.029
   72        0.002   0.061   0.000   0.063
   73        0.002   0.046   0.000   0.047
   74        0.002   0.040   0.000   0.041
   75        0.002   0.054   0.000   0.056
   76        0.002   0.034   0.000   0.036
   77        0.002   0.038   0.000   0.040
   78        0.002   0.025   0.000   0.027
   79        0.002   0.035   0.000   0.037
   80        0.002   0.032   0.000   0.034
   81        0.002   0.029   0.000   0.031
   82        0.002   0.041   0.000   0.044
   83        0.002   0.037   0.000   0.039
   84        0.002   0.036   0.000   0.038
   85        0.002   0.039   0.000   0.042
   86        0.003   0.044   0.000   0.047
   87        0.002   0.019   0.000   0.021
   88        0.002   0.042   0.000   0.044
--------------------------------------------------
tot          0.425   2.184  43.950  46.559
 

 total amount of memory used by VASP MPI-rank0    94439. kBytes
=======================================================================

   base      :      30000. kBytes
   nonlr-proj:      13680. kBytes
   fftplans  :       1275. kBytes
   grid      :      22786. kBytes
   one-center:       2737. kBytes
   wavefun   :      23961. kBytes
 
  
  
 General timing and accounting informations for this job:
 ========================================================
  
                  Total CPU time used (sec):      785.405
                            User time (sec):      777.375
                          System time (sec):        8.030
                         Elapsed time (sec):      802.556
  
                   Maximum memory used (kb):      192692.
                   Average memory used (kb):           0.
  
                          Minor page faults:       319586
                          Major page faults:            0
                 Voluntary context switches:       254788
