 vasp.5.4.4.18Apr17-6-g9f103f2a35 (build Dec 02 2020 12:53:39) complex          
  
 executed on             LinuxIFC date 2021.08.03  23:47:21
 running on   96 total cores
 distrk:  each k-point on   96 cores,    1 groups
 distr:  one band on NCORES_PER_BAND=   1 cores,   96 groups


--------------------------------------------------------------------------------------------------------


 INCAR:
 POTCAR:    PAW_PBE Na_pv 19Sep2006               
 POTCAR:    PAW_PBE Mg_pv 13Apr2007               
 POTCAR:    PAW_PBE Mn_pv 02Aug2007               
 POTCAR:    PAW_PBE O 08Apr2002                   

 ----------------------------------------------------------------------------- 
|                                                                             |
|           W    W    AA    RRRRR   N    N  II  N    N   GGGG   !!!           |
|           W    W   A  A   R    R  NN   N  II  NN   N  G    G  !!!           |
|           W    W  A    A  R    R  N N  N  II  N N  N  G       !!!           |
|           W WW W  AAAAAA  RRRRR   N  N N  II  N  N N  G  GGG   !            |
|           WW  WW  A    A  R   R   N   NN  II  N   NN  G    G                |
|           W    W  A    A  R    R  N    N  II  N    N   GGGG   !!!           |
|                                                                             |
|      For optimal performance we recommend to set                            |
|        NCORE= 4 - approx SQRT( number of cores)                             |
|      NCORE specifies how many cores store one orbital (NPAR=cpu/NCORE).     |
|      This setting can  greatly improve the performance of VASP for DFT.     |
|      The default,   NCORE=1            might be grossly inefficient         |
|      on modern multi-core architectures or massively parallel machines.     |
|      Do your own testing !!!!                                               |
|      Unfortunately you need to use the default for GW and RPA calculations. |
|      (for HF NCORE is supported but not extensively tested yet)             |
|                                                                             |
 ----------------------------------------------------------------------------- 

 POTCAR:    PAW_PBE Na_pv 19Sep2006               
   VRHFIN =Na: p6s1                                                             
   LEXCH  = PE                                                                  
   EATOM  =   766.0439 eV,   56.3026 Ry                                         
                                                                                
   TITEL  = PAW_PBE Na_pv 19Sep2006                                             
   LULTRA =        F    use ultrasoft PP ?                                      
   IUNSCR =        1    unscreen: 0-lin 1-nonlin 2-no                           
   RPACOR =    1.800    partial core radius                                     
   POMASS =   22.990; ZVAL   =    7.000    mass and valenz                      
   RCORE  =    2.200    outmost cutoff radius                                   
   RWIGS  =    2.200; RWIGS  =    1.164    wigner-seitz radius (au A)           
   ENMAX  =  259.561; ENMIN  =  194.671 eV                                      
   ICORE  =        2    local potential                                         
   LCOR   =        T    correct aug charges                                     
   LPAW   =        T    paw PP                                                  
   EAUG   =  368.056                                                            
   DEXC   =    0.000                                                            
   RMAX   =    2.245    core radius for proj-oper                               
   RAUG   =    1.300    factor for augmentation sphere                          
   RDEP   =    2.259    radius for radial grids                                 
   RDEPT  =    1.738    core radius for aug-charge                              
                                                                                
   Atomic configuration                                                         
    5 entries                                                                   
     n  l   j            E        occ.                                          
     1  0  0.50     -1033.6933   2.0000                                         
     2  0  0.50       -56.7526   2.0000                                         
     2  1  1.50       -28.6721   6.0000                                         
     3  0  0.50        -2.7440   1.0000                                         
     3  2  1.50        -1.3606   0.0000                                         
   Description                                                                  
     l       E           TYP  RCUT    TYP  RCUT                                 
     1    -28.6720912     23  2.000                                             
     1      6.8029130     23  2.000                                             
     0     -2.7439560     23  2.200                                             
     0     34.0145650     23  2.200                                             
     2     -1.3605826     23  2.200                                             
  local pseudopotential read in
  partial core-charges read in
  partial kinetic energy density read in
  atomic valenz-charges read in
  non local Contribution for L=           1  read in
    real space projection operators read in
  non local Contribution for L=           1  read in
    real space projection operators read in
  non local Contribution for L=           0  read in
    real space projection operators read in
  non local Contribution for L=           0  read in
    real space projection operators read in
    PAW grid and wavefunctions read in
 
   number of l-projection  operators is LMAX  =           4
   number of lm-projection operators is LMMAX =           8
 
 POTCAR:    PAW_PBE Mg_pv 13Apr2007               
   VRHFIN =Mg: p6s2                                                             
   LEXCH  = PE                                                                  
   EATOM  =  1056.7344 eV,   77.6678 Ry                                         
                                                                                
   TITEL  = PAW_PBE Mg_pv 13Apr2007                                             
   LULTRA =        F    use ultrasoft PP ?                                      
   IUNSCR =        1    unscreen: 0-lin 1-nonlin 2-no                           
   RPACOR =    1.500    partial core radius                                     
   POMASS =   24.305; ZVAL   =    8.000    mass and valenz                      
   RCORE  =    2.000    outmost cutoff radius                                   
   RWIGS  =    2.000; RWIGS  =    1.058    wigner-seitz radius (au A)           
   ENMAX  =  403.929; ENMIN  =  302.947 eV                                      
   RCLOC  =    1.506    cutoff for local pot                                    
   LCOR   =        T    correct aug charges                                     
   LPAW   =        T    paw PP                                                  
   EAUG   =  758.780                                                            
   DEXC   =    0.000                                                            
   RMAX   =    2.045    core radius for proj-oper                               
   RAUG   =    1.300    factor for augmentation sphere                          
   RDEP   =    2.025    radius for radial grids                                 
   RDEPT  =    1.557    core radius for aug-charge                              
                                                                                
   Atomic configuration                                                         
    5 entries                                                                   
     n  l   j            E        occ.                                          
     1  0  0.50     -1259.6230   2.0000                                         
     2  0  0.50       -79.8442   2.0000                                         
     2  1  1.50       -46.6121   6.0000                                         
     3  0  0.50        -4.7055   2.0000                                         
     3  2  1.50        -1.3606   0.0000                                         
   Description                                                                  
     l       E           TYP  RCUT    TYP  RCUT                                 
     1    -46.6121073     23  1.600                                             
     1      2.7211652     23  1.600                                             
     0     -4.7054661     23  2.000                                             
     0     61.2262170     23  2.000                                             
     2     -1.3605826     23  2.000                                             
  local pseudopotential read in
  partial core-charges read in
  partial kinetic energy density read in
  atomic valenz-charges read in
  non local Contribution for L=           1  read in
    real space projection operators read in
  non local Contribution for L=           1  read in
    real space projection operators read in
  non local Contribution for L=           0  read in
    real space projection operators read in
  non local Contribution for L=           0  read in
    real space projection operators read in
  non local Contribution for L=           2  read in
    real space projection operators read in
    PAW grid and wavefunctions read in
 
   number of l-projection  operators is LMAX  =           5
   number of lm-projection operators is LMMAX =          13
 
 POTCAR:    PAW_PBE Mn_pv 02Aug2007               
   VRHFIN =Mn: 3p4s3d                                                           
   LEXCH  = PE                                                                  
   EATOM  =  2025.2664 eV,  148.8529 Ry                                         
                                                                                
   TITEL  = PAW_PBE Mn_pv 02Aug2007                                             
   LULTRA =        F    use ultrasoft PP ?                                      
   IUNSCR =        1    unscreen: 0-lin 1-nonlin 2-no                           
   RPACOR =    2.080    partial core radius                                     
   POMASS =   54.938; ZVAL   =   13.000    mass and valenz                      
   RCORE  =    2.300    outmost cutoff radius                                   
   RWIGS  =    2.500; RWIGS  =    1.323    wigner-seitz radius (au A)           
   ENMAX  =  269.864; ENMIN  =  202.398 eV                                      
   ICORE  =        3    local potential                                         
   LCOR   =        T    correct aug charges                                     
   LPAW   =        T    paw PP                                                  
   EAUG   =  569.085                                                            
   DEXC   =    0.000                                                            
   RMAX   =    2.343    core radius for proj-oper                               
   RAUG   =    1.300    factor for augmentation sphere                          
   RDEP   =    2.338    radius for radial grids                                 
   RDEPT  =    1.798    core radius for aug-charge                              
                                                                                
   Atomic configuration                                                         
    8 entries                                                                   
     n  l   j            E        occ.                                          
     1  0  0.50     -6424.8287   2.0000                                         
     2  0  0.50      -739.1154   2.0000                                         
     2  1  1.50      -625.3949   6.0000                                         
     3  0  0.50       -81.6100   2.0000                                         
     3  1  1.50       -50.4667   6.0000                                         
     3  2  2.50        -3.3745   6.0000                                         
     4  0  0.50        -4.1331   1.0000                                         
     4  3  2.50        -1.3606   0.0000                                         
   Description                                                                  
     l       E           TYP  RCUT    TYP  RCUT                                 
     1    -50.4666628     23  2.000                                             
     1     -1.3605826     23  2.000                                             
     2     -3.3744729     23  2.300                                             
     2     -4.7350555     23  2.300                                             
     0     -4.1331431     23  2.300                                             
     0      7.6656591     23  2.300                                             
     3      9.5240782     23  2.300                                             
  local pseudopotential read in
  partial core-charges read in
  partial kinetic energy density read in
  atomic valenz-charges read in
  non local Contribution for L=           1  read in
    real space projection operators read in
  non local Contribution for L=           1  read in
    real space projection operators read in
  non local Contribution for L=           2  read in
    real space projection operators read in
  non local Contribution for L=           2  read in
    real space projection operators read in
  non local Contribution for L=           0  read in
    real space projection operators read in
  non local Contribution for L=           0  read in
    real space projection operators read in
    PAW grid and wavefunctions read in
 
   number of l-projection  operators is LMAX  =           6
   number of lm-projection operators is LMMAX =          18
 
 POTCAR:    PAW_PBE O 08Apr2002                   
   VRHFIN =O: s2p4                                                              
   LEXCH  = PE                                                                  
   EATOM  =   432.3788 eV,   31.7789 Ry                                         
                                                                                
   TITEL  = PAW_PBE O 08Apr2002                                                 
   LULTRA =        F    use ultrasoft PP ?                                      
   IUNSCR =        1    unscreen: 0-lin 1-nonlin 2-no                           
   RPACOR =    1.200    partial core radius                                     
   POMASS =   16.000; ZVAL   =    6.000    mass and valenz                      
   RCORE  =    1.520    outmost cutoff radius                                   
   RWIGS  =    1.550; RWIGS  =    0.820    wigner-seitz radius (au A)           
   ENMAX  =  400.000; ENMIN  =  300.000 eV                                      
   ICORE  =        2    local potential                                         
   LCOR   =        T    correct aug charges                                     
   LPAW   =        T    paw PP                                                  
   EAUG   =  605.392                                                            
   DEXC   =    0.000                                                            
   RMAX   =    1.553    core radius for proj-oper                               
   RAUG   =    1.300    factor for augmentation sphere                          
   RDEP   =    1.550    radius for radial grids                                 
   RDEPT  =    1.329    core radius for aug-charge                              
                                                                                
   Atomic configuration                                                         
    4 entries                                                                   
     n  l   j            E        occ.                                          
     1  0  0.50      -514.6923   2.0000                                         
     2  0  0.50       -23.9615   2.0000                                         
     2  1  0.50        -9.0305   4.0000                                         
     3  2  1.50        -9.5241   0.0000                                         
   Description                                                                  
     l       E           TYP  RCUT    TYP  RCUT                                 
     0    -23.9615318     23  1.200                                             
     0     -9.5240782     23  1.200                                             
     1     -9.0304911     23  1.520                                             
     1      8.1634956     23  1.520                                             
     2     -9.5240782      7  1.500                                             
  local pseudopotential read in
  partial core-charges read in
  partial kinetic energy density read in
  kinetic energy density of atom read in
  atomic valenz-charges read in
  non local Contribution for L=           0  read in
    real space projection operators read in
  non local Contribution for L=           0  read in
    real space projection operators read in
  non local Contribution for L=           1  read in
    real space projection operators read in
  non local Contribution for L=           1  read in
    real space projection operators read in
    PAW grid and wavefunctions read in
 
   number of l-projection  operators is LMAX  =           4
   number of lm-projection operators is LMMAX =           8
 
 Optimization of the real space projectors (new method)

 maximal supplied QI-value         = 17.01
 optimisation between [QCUT,QGAM] = [ 10.20, 20.41] = [ 29.16,116.64] Ry 
 Optimized for a Real-space Cutoff    1.30 Angstroem

   l    n(q)    QCUT    max X(q) W(low)/X(q) W(high)/X(q)  e(spline) 
   1      7    10.205     4.940    0.23E-03    0.84E-03    0.11E-06
   1      7    10.205     6.253    0.40E-03    0.13E-02    0.18E-06
   0      8    10.205    37.438    0.23E-03    0.37E-03    0.42E-07
   0      8    10.205     9.606    0.16E-03    0.26E-03    0.31E-07
 Optimization of the real space projectors (new method)

 maximal supplied QI-value         = 18.90
 optimisation between [QCUT,QGAM] = [ 10.20, 20.41] = [ 29.16,116.64] Ry 
 Optimized for a Real-space Cutoff    1.26 Angstroem

   l    n(q)    QCUT    max X(q) W(low)/X(q) W(high)/X(q)  e(spline) 
   1      7    10.205     2.974    0.63E-04    0.14E-03    0.13E-06
   1      7    10.205     4.279    0.11E-03    0.45E-03    0.24E-06
   0      8    10.205    16.381    0.44E-03    0.15E-03    0.55E-07
   0      8    10.205     5.611    0.31E-03    0.11E-03    0.40E-07
   2      7    10.205     4.652    0.50E-03    0.47E-03    0.57E-07
 Optimization of the real space projectors (new method)

 maximal supplied QI-value         = 16.25
 optimisation between [QCUT,QGAM] = [ 10.24, 20.48] = [ 29.35,117.42] Ry 
 Optimized for a Real-space Cutoff    1.34 Angstroem

   l    n(q)    QCUT    max X(q) W(low)/X(q) W(high)/X(q)  e(spline) 
   1      8    10.239     3.658    0.23E-03    0.30E-03    0.98E-07
   1      8    10.239     5.612    0.32E-03    0.65E-03    0.21E-06
   2      7    10.239    55.373    0.42E-03    0.45E-03    0.65E-07
   2      7    10.239    50.863    0.43E-03    0.48E-03    0.67E-07
   0      8    10.239    79.536    0.11E-03    0.21E-03    0.56E-07
   0      8    10.239    38.668    0.96E-04    0.19E-03    0.52E-07
 Optimization of the real space projectors (new method)

 maximal supplied QI-value         = 24.76
 optimisation between [QCUT,QGAM] = [ 10.15, 20.30] = [ 28.85,115.39] Ry 
 Optimized for a Real-space Cutoff    1.38 Angstroem

   l    n(q)    QCUT    max X(q) W(low)/X(q) W(high)/X(q)  e(spline) 
   0      8    10.150    20.381    0.22E-03    0.32E-03    0.29E-06
   0      8    10.150    15.268    0.23E-03    0.35E-03    0.30E-06
   1      8    10.150     5.964    0.46E-03    0.53E-03    0.21E-06
   1      8    10.150     5.382    0.38E-03    0.45E-03    0.19E-06
  PAW_PBE Na_pv 19Sep2006               :
 energy of atom  1       EATOM= -766.0439
 kinetic energy error for atom=    0.0103 (will be added to EATOM!!)
  PAW_PBE Mg_pv 13Apr2007               :
 energy of atom  2       EATOM=-1056.7344
 kinetic energy error for atom=    0.0820 (will be added to EATOM!!)
  PAW_PBE Mn_pv 02Aug2007               :
 energy of atom  3       EATOM=-2025.2664
 kinetic energy error for atom=    0.0284 (will be added to EATOM!!)
  PAW_PBE O 08Apr2002                   :
 energy of atom  4       EATOM= -432.3788
 kinetic energy error for atom=    0.1156 (will be added to EATOM!!)
 
 
 POSCAR: Na Mg Mn  O                             
  positions in cartesian coordinates
  No initial velocities read in

 METAGGA = SCAN     LMAXTAU =  6    LMIXTAU =  F

 exchange correlation table for  LEXCH =        8
   RHO(1)=    0.500       N(1)  =     2000
   RHO(2)=  100.500       N(2)  =     4000

 VTST: version 3.2, (02/03/18)

 CHAIN: initializing optimizer
 
 OPT: Using VASP Dynamics algorithm
 CHAIN: Read ICHAIN            0
 
 POSCAR: Na Mg Mn  O                             
  positions in cartesian coordinates
  No initial velocities read in
 


--------------------------------------------------------------------------------------------------------


 ion  position               nearest neighbor table
   1  0.602  0.206  0.261-  62 2.20  43 2.22  52 2.24
   2  0.834  0.937  0.741-  69 2.28  56 2.35  59 2.37
   3  0.083  0.824  0.761-  47 2.20  44 2.37
   4  0.684  0.128  0.735-  56 2.19  46 2.36
   5  0.128  0.445  0.247-  55 2.17  64 2.24  37 2.96
   6  0.355  0.281  0.247-  41 2.27
   7  0.876  0.474  0.742-  70 2.18  57 2.29
   8  0.075  0.304  0.758-  61 2.21  83 2.35
   9  0.765  0.024  0.256-  63 2.20  53 2.22  62 2.29
  10  0.860  0.602  0.253-  75 2.19  66 2.21  36 2.91  34 2.95
  11  0.053  0.980  0.258-  50 2.35  27 2.73
  12  0.358  0.120  0.747-  47 2.21  44 2.27  28 2.81  26 2.84
  13  0.387  0.681  0.753-  84 2.14  81 2.26  38 2.80  40 2.88
  14  0.543  0.491  0.753-  85 2.20  82 2.34  35 2.85  33 2.88
  15  0.553  0.649  0.256-  87 2.28
  16  0.359  0.825  0.248-  42 2.28  51 2.35
  17  0.722  0.313  0.005-  66 2.02  43 2.03  60 2.04  71 2.05  49 2.08  53 2.14  37 2.81
  18  0.713  0.316  0.503-  75 1.94  62 2.05  57 2.06  68 2.06  46 2.12  52 2.14  39 2.80  36 2.84

  19  0.210  0.299  0.997-  61 1.99  83 2.01  41 2.01  78 2.11  55 2.12  48 2.13  30 2.80  25 2.85

  20  0.209  0.317  0.503-  64 1.98  45 2.05  50 2.09  58 2.11  80 2.11  87 2.12  40 2.82  35 2.84

  21  0.219  0.824  0.999-  47 1.93  67 2.00  84 2.08  42 2.08  73 2.17  77 2.18  26 2.75  25 2.85
                            29 2.85
  22  0.210  0.807  0.500-  86 1.98  44 2.02  81 2.03  76 2.05  51 2.06  70 2.16  40 2.78  39 2.82

  23  0.709  0.809  0.995-  59 1.96  79 2.00  85 2.06  72 2.10  54 2.12  65 2.14  29 2.78  25 2.85

  24  0.697  0.805  0.494-  74 1.94  88 2.03  82 2.08  56 2.13  63 2.15  69 2.23  35 2.85  31 2.85

  25  0.038  0.971  0.990-  54 1.86  72 1.90  67 1.90  61 1.92  47 2.03  41 2.06  30 2.83  21 2.85
                            34 2.85  19 2.85  23 2.85  26 3.02
  26  0.386  0.141  0.999-  48 1.88  41 1.89  42 1.91  49 1.93  47 1.93  43 1.95  21 2.75  12 2.84
                            33 2.90  29 2.91  25 3.02
  27  0.045  0.976  0.501-  50 1.89  44 1.92  69 1.92  58 1.93  76 1.96  63 1.99  11 2.73  28 2.88
                            36 2.90  32 2.95
  28  0.376  0.145  0.497-  46 1.82  50 1.86  45 1.87  51 1.88  44 1.98  52 1.99  12 2.81  31 2.88
                            27 2.88  35 2.88
  29  0.546  0.966  0.998-  84 1.90  59 1.92  49 1.93  42 1.93  79 1.98  53 1.99  23 2.78  21 2.85
                            38 2.86  26 2.91  30 2.96
  30  0.887  0.146  0.993-  55 1.85  60 1.88  53 1.93  61 1.93  59 1.94  54 1.99  19 2.80  25 2.83
                            37 2.83  29 2.96
  31  0.540  0.977  0.492-  62 1.90  88 1.90  81 1.91  46 1.92  51 1.93  56 1.93  24 2.85  28 2.88
                            40 2.91  32 2.94
  32  0.879  0.150  0.505-  64 1.89  63 1.90  56 1.93  57 1.93  58 2.00  62 2.02  39 2.88  31 2.94
                            27 2.95
  33  0.547  0.475  0.009-  65 1.83  78 1.85  85 1.90  71 1.95  48 1.96  43 2.05  38 2.87  14 2.88
                            34 2.90  26 2.90
  34  0.880  0.642  0.992-  73 1.85  72 1.90  71 1.90  66 1.96  65 1.98  67 1.99  25 2.85  33 2.90
                            37 2.91  10 2.95
  35  0.537  0.477  0.499-  74 1.89  82 1.90  45 1.91  52 1.91  87 1.93  68 1.93  20 2.84  14 2.85
                            24 2.85  36 2.88  28 2.88  40 2.91
  36  0.868  0.642  0.510-  70 1.87  68 1.87  69 1.87  75 1.92  74 1.94  76 1.96  18 2.84  39 2.85
                            35 2.88  27 2.90  10 2.91
  37  0.046  0.472  0.998-  55 1.90  83 1.91  73 1.95  66 1.96  77 1.97  60 2.00  17 2.81  30 2.83
                            38 2.87  34 2.91   5 2.96
  38  0.377  0.636  1.000-  77 1.84  84 1.85  83 1.89  79 1.91  85 1.96  78 2.00  13 2.80  29 2.86
                            33 2.87  37 2.87
  39  0.036  0.482  0.503-  86 1.85  80 1.91  64 1.91  75 1.93  70 1.95  57 2.01  18 2.80  22 2.82
                            36 2.85  40 2.86  32 2.88
  40  0.365  0.641  0.497-  86 1.86  81 1.87  82 1.95  87 1.97  80 1.98  88 2.04  22 2.78  20 2.82
                            39 2.86  13 2.88  35 2.91  31 2.91
  41  0.222  0.133  0.088-  26 1.89  19 2.01  25 2.06   6 2.27
  42  0.403  0.993  0.096-  26 1.91  29 1.93  21 2.08  16 2.28
  43  0.544  0.297  0.102-  26 1.95  17 2.03  33 2.05   1 2.22
  44  0.208  0.979  0.592-  27 1.92  28 1.98  22 2.02  12 2.27   3 2.37
  45  0.384  0.306  0.588-  28 1.87  35 1.91  20 2.05
  46  0.520  0.127  0.585-  28 1.82  31 1.92  18 2.12   4 2.36
  47  0.223  0.986  0.902-  26 1.93  21 1.93  25 2.03   3 2.20  12 2.21
  48  0.400  0.305  0.908-  26 1.88  33 1.96  19 2.13
  49  0.546  0.132  0.911-  29 1.93  26 1.93  17 2.08
  50  0.210  0.134  0.415-  28 1.86  27 1.89  20 2.09  11 2.35
  51  0.380  0.989  0.406-  28 1.88  31 1.93  22 2.06  16 2.35
  52  0.534  0.319  0.402-  35 1.91  28 1.99  18 2.14   1 2.24
  53  0.722  0.125  0.093-  30 1.93  29 1.99  17 2.14   9 2.22
  54  0.898  0.985  0.090-  25 1.86  30 1.99  23 2.12
  55  0.028  0.304  0.089-  30 1.85  37 1.90  19 2.12   5 2.17
  56  0.705  0.992  0.591-  32 1.93  31 1.93  24 2.13   4 2.19   2 2.35
  57  0.880  0.308  0.604-  32 1.93  39 2.01  18 2.06   7 2.29
  58  0.036  0.130  0.600-  27 1.93  32 2.00  20 2.11
  59  0.716  0.981  0.908-  29 1.92  30 1.94  23 1.96   2 2.37
  60  0.883  0.300  0.901-  30 1.88  37 2.00  17 2.04
  61  0.043  0.135  0.899-  25 1.92  30 1.93  19 1.99   8 2.21
  62  0.704  0.138  0.406-  31 1.90  32 2.02  18 2.05   1 2.20   9 2.29
  63  0.888  0.998  0.409-  32 1.90  27 1.99  24 2.15   9 2.20
  64  0.035  0.316  0.418-  32 1.89  39 1.91  20 1.98   5 2.24
  65  0.709  0.625  0.093-  33 1.83  34 1.98  23 2.14
  66  0.893  0.491  0.095-  34 1.96  37 1.96  17 2.02  10 2.21
  67  0.042  0.817  0.087-  25 1.90  34 1.99  21 2.00
  68  0.702  0.487  0.595-  36 1.87  35 1.93  18 2.06
  69  0.891  0.813  0.597-  36 1.87  27 1.92  24 2.23   2 2.28
  70  0.019  0.633  0.602-  36 1.87  39 1.95  22 2.16   7 2.18
  71  0.710  0.482  0.910-  34 1.90  33 1.95  17 2.05
  72  0.886  0.804  0.900-  34 1.90  25 1.90  23 2.10
  73  0.032  0.631  0.907-  34 1.85  37 1.95  21 2.17
  74  0.704  0.636  0.416-  35 1.89  36 1.94  24 1.94
  75  0.874  0.487  0.415-  36 1.92  39 1.93  18 1.94  10 2.19
  76  0.029  0.802  0.410-  27 1.96  36 1.96  22 2.05
  77  0.220  0.632  0.089-  38 1.84  37 1.97  21 2.18
  78  0.390  0.476  0.097-  33 1.85  38 2.00  19 2.11
  79  0.536  0.795  0.094-  38 1.91  29 1.98  23 2.00
  80  0.197  0.491  0.601-  39 1.91  40 1.98  20 2.11
  81  0.390  0.810  0.586-  40 1.87  31 1.91  22 2.03  13 2.26
  82  0.522  0.628  0.592-  35 1.90  40 1.95  24 2.08  14 2.34
  83  0.214  0.477  0.913-  38 1.89  37 1.91  19 2.01   8 2.35
  84  0.387  0.798  0.912-  38 1.85  29 1.90  21 2.08  13 2.14
  85  0.536  0.622  0.908-  33 1.90  38 1.96  23 2.06  14 2.20
  86  0.199  0.629  0.414-  39 1.85  40 1.86  22 1.98
  87  0.388  0.491  0.399-  35 1.93  40 1.97  20 2.12  15 2.28
  88  0.531  0.816  0.397-  31 1.90  24 2.03  40 2.04
 
  LATTYP: Found a hexagonal cell.
 ALAT       =    10.0190000534
 C/A-ratio  =     1.1196726572
  
  Lattice vectors:
  
 A1 = (  10.0190000534,   0.0000000000,   0.0000000000)
 A2 = (  -5.0095000267,   8.6767085668,   0.0000000000)
 A3 = (   0.0000000000,   0.0000000000,  11.2180004120)


Analysis of symmetry for initial positions (statically):
=====================================================================
 Subroutine PRICEL returns:
 Original cell was already a primitive cell.
 

 Routine SETGRP: Setting up the symmetry group for a 
 hexagonal supercell.


 Subroutine GETGRP returns: Found  1 space group operations
 (whereof  1 operations were pure point group operations)
 out of a pool of 24 trial point group operations.


The static configuration has the point symmetry C_1 .


Analysis of symmetry for dynamics (positions and initial velocities):
=====================================================================
 Subroutine PRICEL returns:
 Original cell was already a primitive cell.
 

 Routine SETGRP: Setting up the symmetry group for a 
 hexagonal supercell.


 Subroutine GETGRP returns: Found  1 space group operations
 (whereof  1 operations were pure point group operations)
 out of a pool of 24 trial point group operations.


The dynamic configuration has the point symmetry C_1 .


Analysis of structural, dynamic, and magnetic symmetry:
=====================================================================
 Subroutine PRICEL returns:
 Original cell was already a primitive cell.
 

 Routine SETGRP: Setting up the symmetry group for a 
 hexagonal supercell.


 Subroutine GETGRP returns: Found  1 space group operations
 (whereof  1 operations were pure point group operations)
 out of a pool of 24 trial point group operations.


The magnetic configuration has the point symmetry C_1 .


 Subroutine INISYM returns: Found  1 space group operations
 (whereof  1 operations are pure point group operations),
 and found     1 'primitive' translations

 
 

Automatic generation of k-mesh.
 generate k-points for:    2    2    2
Space group operators:
 irot       det(A)        alpha          n_x          n_y          n_z        tau_x        tau_y        tau_z
    1     1.000000     0.000000     1.000000     0.000000     0.000000     0.000000     0.000000     0.000000
 
 Subroutine IBZKPT returns following result:
 ===========================================
 
 Found      8 irreducible k-points:
 
 Following reciprocal coordinates:
            Coordinates               Weight
  0.000000  0.000000  0.000000      1.000000
  0.500000 -0.000000 -0.000000      1.000000
  0.000000  0.500000  0.000000      1.000000
  0.500000  0.500000 -0.000000      1.000000
  0.000000  0.000000  0.500000      1.000000
  0.500000 -0.000000  0.500000      1.000000
  0.000000  0.500000  0.500000      1.000000
  0.500000  0.500000  0.500000      1.000000
 
 Following cartesian coordinates:
            Coordinates               Weight
  0.000000  0.000000  0.000000      1.000000
  0.049905  0.028813 -0.000000      1.000000
  0.000000  0.057626  0.000000      1.000000
  0.049905  0.086438 -0.000000      1.000000
  0.000000  0.000000  0.044571      1.000000
  0.049905  0.028813  0.044571      1.000000
  0.000000  0.057626  0.044571      1.000000
  0.049905  0.086438  0.044571      1.000000
 


--------------------------------------------------------------------------------------------------------




 Dimension of arrays:
   k-points           NKPTS =      8   k-points in BZ     NKDIM =      8   number of bands    NBANDS=    480
   number of dos      NEDOS =    301   number of ions     NIONS =     88
   non local maximal  LDIM  =      6   non local SUM 2l+1 LMDIM =     18
   total plane-waves  NPLWV = 140000
   max r-space proj   IRMAX =   1632   max aug-charges    IRDMAX=   4555
   dimension x,y,z NGX =    50 NGY =   50 NGZ =   56
   dimension x,y,z NGXF=   100 NGYF=  100 NGZF=  112
   support grid    NGXF=   100 NGYF=  100 NGZF=  112
   ions per type =              16   8  16  48
   NGX,Y,Z   is equivalent  to a cutoff of   8.30,  8.30,  8.30 a.u.
   NGXF,Y,Z  is equivalent  to a cutoff of  16.59, 16.59, 16.60 a.u.

 SYSTEM =  unknown system                          
 POSCAR =  Na Mg Mn  O                             

 Startparameter for this run:
   NWRITE =      2    write-flag & timer
   PREC   = normal    normal or accurate (medium, high low for compatibility)
   ISTART =      0    job   : 0-new  1-cont  2-samecut
   ICHARG =      1    charge: 1-file 2-atom 10-const
   ISPIN  =      2    spin polarized calculation?
   LNONCOLLINEAR =      F non collinear calculations
   LSORBIT =      F    spin-orbit coupling
   INIWAV =      1    electr: 0-lowe 1-rand  2-diag
   LASPH  =      T    aspherical Exc in radial PAW
   METAGGA=      F    non-selfconsistent MetaGGA calc.

 Electronic Relaxation 1
   ENCUT  =  400.0 eV  29.40 Ry    5.42 a.u.  16.34 16.34 18.29*2*pi/ulx,y,z
   ENINI  =  400.0     initial cutoff
   ENAUG  =  758.8 eV  augmentation charge cutoff
   NELM   =    200;   NELMIN=  6; NELMDL=-12     # of ELM steps 
   EDIFF  = 0.1E-04   stopping-criterion for ELM
   LREAL  =      T    real-space projection
   NLSPLINE    = F    spline interpolate recip. space projectors
   LCOMPAT=      F    compatible to vasp.4.4
   GGA_COMPAT  = T    GGA compatible to vasp.4.4-vasp.4.6
   LMAXPAW     = -100 max onsite density
   LMAXMIX     =    4 max onsite mixed and CHGCAR
   VOSKOWN=      0    Vosko Wilk Nusair interpolation
   ROPT   =   -0.00050  -0.00050  -0.00050  -0.00050
 Ionic relaxation
   EDIFFG = 0.1E-03   stopping-criterion for IOM
   NSW    =      1    number of steps for IOM
   NBLOCK =      1;   KBLOCK =      1    inner block; outer block 
   IBRION =     -1    ionic relax: 0-MD 1-quasi-New 2-CG
   NFREE  =      0    steps in history (QN), initial steepest desc. (CG)
   ISIF   =      2    stress and relaxation
   IWAVPR =     10    prediction:  0-non 1-charg 2-wave 3-comb
   ISYM   =      2    0-nonsym 1-usesym 2-fastsym
   LCORR  =      T    Harris-Foulkes like correction to forces

   POTIM  = 0.5000    time-step for ionic-motion
   TEIN   =    0.0    initial temperature
   TEBEG  =    0.0;   TEEND  =   0.0 temperature during run
   SMASS  =  -3.00    Nose mass-parameter (am)
   estimated Nose-frequenzy (Omega)   =  0.10E-29 period in steps =****** mass=  -0.229E-26a.u.
   SCALEE = 1.0000    scale energy and forces
   NPACO  =    256;   APACO  = 16.0  distance and # of slots for P.C.
   PSTRESS=    0.0 pullay stress

  Mass of Ions in am
   POMASS =  22.99 24.30 54.94 16.00
  Ionic Valenz
   ZVAL   =   7.00  8.00 13.00  6.00
  Atomic Wigner-Seitz radii
   RWIGS  =  -1.00 -1.00 -1.00 -1.00
  virtual crystal weights 
   VCA    =   1.00  1.00  1.00  1.00
   NELECT =     672.0000    total number of electrons
   NUPDOWN=      48.0000    fix difference up-down

 DOS related values:
   EMIN   =  10.00;   EMAX   =-10.00  energy-range for DOS
   EFERMI =   0.00
   ISMEAR =     0;   SIGMA  =   0.05  broadening in eV -4-tet -1-fermi 0-gaus

 Electronic relaxation 2 (details)
   IALGO  =     48    algorithm
   LDIAG  =      T    sub-space diagonalisation (order eigenvalues)
   LSUBROT=      F    optimize rotation matrix (better conditioning)
   TURBO    =      0    0=normal 1=particle mesh
   IRESTART =      0    0=no restart 2=restart with 2 vectors
   NREBOOT  =      0    no. of reboots
   NMIN     =      0    reboot dimension
   EREF     =   0.00    reference energy to select bands
   IMIX   =      4    mixing-type and parameters
     AMIX     =   0.40;   BMIX     =  1.00
     AMIX_MAG =   1.60;   BMIX_MAG =  1.00
     AMIN     =   0.10
     WC   =   100.;   INIMIX=   1;  MIXPRE=   1;  MAXMIX= -45

 Intra band minimization:
   WEIMIN = 0.0000     energy-eigenvalue tresh-hold
   EBREAK =  0.52E-08  absolut break condition
   DEPER  =   0.30     relativ break condition  

   TIME   =   0.40     timestep for ELM

  volume/ion in A,a.u.               =      11.08        74.78
  Fermi-wavevector in a.u.,A,eV,Ry     =   1.445993  2.732531 28.448379  2.090897
  Thomas-Fermi vector in A             =   2.564112
 
 Write flags
   LWAVE        =      F    write WAVECAR
   LDOWNSAMPLE  =      F    k-point downsampling of WAVECAR
   LCHARG       =      F    write CHGCAR
   LVTOT        =      F    write LOCPOT, total local potential
   LVHAR        =      F    write LOCPOT, Hartree potential only
   LELF         =      F    write electronic localiz. function (ELF)
   LORBIT       =     11    0 simple, 1 ext, 2 COOP (PROOUT), +10 PAW based schemes


 Dipole corrections
   LMONO  =      F    monopole corrections only (constant potential shift)
   LDIPOL =      F    correct potential (dipole corrections)
   IDIPOL =      0    1-x, 2-y, 3-z, 4-all directions 
   EPSILON=  1.0000000 bulk dielectric constant

 Exchange correlation treatment:
   GGA     =    --    GGA type
   LEXCH   =     8    internal setting for exchange type
   VOSKOWN=      0    Vosko Wilk Nusair interpolation
   LHFCALC =     F    Hartree Fock is set to
   LHFONE  =     F    Hartree Fock one center treatment
   AEXX    =    0.0000 exact exchange contribution

 Linear response parameters
   LEPSILON=     F    determine dielectric tensor
   LRPA    =     F    only Hartree local field effects (RPA)
   LNABLA  =     F    use nabla operator in PAW spheres
   LVEL    =     F    velocity operator in full k-point grid
   LINTERFAST=   F  fast interpolation
   KINTER  =     0    interpolate to denser k-point grid
   CSHIFT  =0.1000    complex shift for real part using Kramers Kronig
   OMEGAMAX=  -1.0    maximum frequency
   DEG_THRESHOLD= 0.2000000E-02 threshold for treating states as degnerate
   RTIME   =   -0.100 relaxation time in fs
  (WPLASMAI=    0.000 imaginary part of plasma frequency in eV, 0.658/RTIME)
   DFIELD  = 0.0000000 0.0000000 0.0000000 field for delta impulse in time
 
 Orbital magnetization related:
   ORBITALMAG=     F  switch on orbital magnetization
   LCHIMAG   =     F  perturbation theory with respect to B field
   DQ        =  0.001000  dq finite difference perturbation B field
   LLRAUG    =     F  two centre corrections for induced B field



--------------------------------------------------------------------------------------------------------


 Static calculation
 charge density and potential will be updated during run
 spin polarized calculation
 RMM-DIIS sequential band-by-band
 perform sub-space diagonalisation
    before iterative eigenvector-optimisation
 modified Broyden-mixing scheme, WC =      100.0
 initial mixing is a Kerker type mixing with AMIX =  0.4000 and BMIX =      1.0000
 Hartree-type preconditioning will be used
 using additional bands          144
 real space projection scheme for non local part
 use partial core corrections
 calculate Harris-corrections to forces 
   (improved forces if not selfconsistent)
 use gradient corrections 
 use of overlap-Matrix (Vanderbilt PP)
 Gauss-broadening in eV      SIGMA  =   0.05


--------------------------------------------------------------------------------------------------------


  energy-cutoff  :      400.00
  volume of cell :      975.20
      direct lattice vectors                 reciprocal lattice vectors
    10.019000053  0.000000000  0.000000000     0.099810360  0.057625538 -0.000000000
    -5.009500027  8.676708567  0.000000000     0.000000000  0.115251076  0.000000000
     0.000000000  0.000000000 11.218000412     0.000000000  0.000000000  0.089142446

  length of vectors
    10.019000053 10.019000053 11.218000412     0.115251076  0.115251076  0.089142446


 
 k-points in units of 2pi/SCALE and weight: read from INCAR                         
   0.00000000  0.00000000  0.00000000       0.125
   0.04990518  0.02881277 -0.00000000       0.125
   0.00000000  0.05762554  0.00000000       0.125
   0.04990518  0.08643831 -0.00000000       0.125
   0.00000000  0.00000000  0.04457122       0.125
   0.04990518  0.02881277  0.04457122       0.125
   0.00000000  0.05762554  0.04457122       0.125
   0.04990518  0.08643831  0.04457122       0.125
 
 k-points in reciprocal lattice and weights: read from INCAR                         
   0.00000000  0.00000000  0.00000000       0.125
   0.50000000 -0.00000000 -0.00000000       0.125
   0.00000000  0.50000000  0.00000000       0.125
   0.50000000  0.50000000 -0.00000000       0.125
   0.00000000  0.00000000  0.50000000       0.125
   0.50000000 -0.00000000  0.50000000       0.125
   0.00000000  0.50000000  0.50000000       0.125
   0.50000000  0.50000000  0.50000000       0.125
 
 position of ions in fractional coordinates (direct lattice) 
   0.60218702  0.20561368  0.26121054
   0.83417151  0.93731198  0.74135672
   0.08275004  0.82420852  0.76063110
   0.68406886  0.12769457  0.73535833
   0.12802819  0.44520898  0.24693082
   0.35512336  0.28054318  0.24660099
   0.87610156  0.47449082  0.74180065
   0.07499853  0.30369103  0.75848277
   0.76508612  0.02407381  0.25558031
   0.86038352  0.60217239  0.25349170
   0.05330561  0.97957257  0.25838651
   0.35805578  0.12042338  0.74669724
   0.38652248  0.68058066  0.75259491
   0.54316127  0.49125310  0.75281331
   0.55300032  0.64912271  0.25625244
   0.35861392  0.82542228  0.24849170
   0.72192904  0.31331812  0.00496900
   0.71329459  0.31557012  0.50319039
   0.21003192  0.29910766  0.99738348
   0.20895759  0.31688514  0.50286502
   0.21874407  0.82428722  0.99896591
   0.21008659  0.80653510  0.49977178
   0.70909261  0.80875714  0.99529138
   0.69667099  0.80546096  0.49440184
   0.03802028  0.97066877  0.99021020
   0.38588557  0.14108345  0.99900100
   0.04474087  0.97599337  0.50129700
   0.37642025  0.14502734  0.49739881
   0.54605410  0.96601378  0.99824386
   0.88748721  0.14594359  0.99292205
   0.53980878  0.97696839  0.49215188
   0.87862063  0.14966966  0.50479139
   0.54650222  0.47544181  0.00891281
   0.88021843  0.64231730  0.99249109
   0.53657738  0.47719708  0.49919503
   0.86814121  0.64247865  0.51044748
   0.04592473  0.47232657  0.99788441
   0.37695670  0.63634499  0.99988887
   0.03611114  0.48165038  0.50343018
   0.36543578  0.64146444  0.49726242
   0.22206781  0.13285107  0.08821777
   0.40289708  0.99336977  0.09584328
   0.54350303  0.29749415  0.10174986
   0.20808112  0.97902281  0.59233462
   0.38420166  0.30588212  0.58766712
   0.51995864  0.12739508  0.58492688
   0.22260555  0.98593971  0.90208590
   0.39970504  0.30490364  0.90761273
   0.54627940  0.13154873  0.91054552
   0.21039941  0.13379613  0.41474325
   0.37969986  0.98944863  0.40590300
   0.53403968  0.31942182  0.40161436
   0.72198818  0.12460716  0.09336067
   0.89770975  0.98527080  0.09039579
   0.02759920  0.30379607  0.08923872
   0.70453142  0.99190546  0.59125778
   0.88022990  0.30765814  0.60441609
   0.03592661  0.12956756  0.60001335
   0.71586802  0.98141565  0.90751468
   0.88281149  0.30046878  0.90115882
   0.04300560  0.13513189  0.89915311
   0.70409174  0.13825634  0.40607683
   0.88771542  0.99811775  0.40862273
   0.03482925  0.31557128  0.41814226
   0.70910180  0.62501465  0.09286860
   0.89334320  0.49136951  0.09503120
   0.04164862  0.81659998  0.08719914
   0.70151016  0.48726426  0.59493936
   0.89062384  0.81264802  0.59680868
   0.01892745  0.63283444  0.60207165
   0.70955118  0.48173336  0.90973432
   0.88634497  0.80352935  0.89970580
   0.03209600  0.63127855  0.90675696
   0.70350300  0.63649597  0.41557852
   0.87413472  0.48675831  0.41481189
   0.02918460  0.80203224  0.41009804
   0.22042138  0.63219480  0.08925209
   0.39004779  0.47597542  0.09689071
   0.53628554  0.79499847  0.09398823
   0.19714429  0.49083474  0.60097430
   0.39024516  0.81015975  0.58638169
   0.52184249  0.62797084  0.59220804
   0.21365399  0.47717403  0.91252448
   0.38745763  0.79766883  0.91236402
   0.53573846  0.62170349  0.90792473
   0.19925642  0.62872343  0.41400516
   0.38755738  0.49104450  0.39867087
   0.53114060  0.81568373  0.39716526
 
 position of ions in cartesian coordinates  (Angst):
   5.00329005  1.78405000  2.93026000
   3.66210005  8.13278287  8.31654000
  -3.29979995  7.15141713  8.53276000
   6.21399997  1.10796857  8.24925000
  -0.94755997  3.86294857  2.77007000
   2.15259992  2.43419143  2.76637000
   6.40069976  4.11701857  8.32152000
  -0.76992997  2.63503857  8.50866000
   7.54480013  0.20888143  2.86710000
   5.60359992  5.22487430  2.84367000
  -4.37309995  8.49946573  2.89858000
   2.98409997  1.04487857  8.37645000
   0.46319995  5.90520000  8.44261000
   2.98100037  4.26246000  8.44506000
   2.28873003  5.63224857  2.87464000
  -0.54200008  7.16194857  2.78758000
   5.66344000  2.71857000  0.05574230
   5.56565000  2.73811000  5.64479000
   0.60593000  2.59527000 11.18864831
   0.50611000  2.74952000  5.64114000
  -1.93767000  7.15210000 11.20640000
  -1.93548000  6.99807000  5.60644000
   3.05293000  7.01735000 11.16517911
   2.94499000  6.98875000  5.54620000
  -4.48164005  8.42221000 11.10817841
   3.15943000  1.22414000 11.20679361
  -4.44098005  8.46841000  5.62355000
   3.04484000  1.25836000  5.57982000
   0.63167000  8.38182000 11.19830000
   8.16063000  1.26631000 11.13860000
   0.51422100  8.47687000  5.52096000
   8.05313000  1.29864000  5.66275000
   3.09368000  4.12527000  0.09998390
   5.60122000  5.57320000 11.13376551
   2.98545000  4.14050000  5.59997000
   5.47941000  5.57460000  5.72620000
  -1.90600005  4.09824000 11.19426771
   0.58895900  5.52138000 11.21675374
  -2.05103005  4.17914000  5.64748000
   0.44788500  5.56580000  5.57829000
   1.55938000  1.15271000  0.98962700
  -0.93966003  8.61917997  1.07517000
   3.95506000  2.58127000  1.14143000
  -2.81965003  8.49469557  6.64481000
   2.31700000  2.65405000  6.59245000
   4.57128000  1.10537000  6.56171000
  -2.70878003  8.55471157 10.11960000
   2.47723000  2.64556000 10.18160000
   4.81418000  1.14141000 10.21450000
   1.43774000  1.16091000  4.65259000
  -1.15243003  8.58515737  4.55342000
   3.75040000  2.77153000  4.50531000
   6.60938000  1.08118000  1.04732000
   4.05843997  8.54890757  1.01406000
  -1.24535005  2.63595000  1.00108000
   2.08974997  8.60647457  6.63273000
   7.27781000  2.66946000  6.78034000
  -0.28912005  1.12422000  6.73095000
   2.25587997  8.51545757 10.18050000
   7.33969000  2.60708000 10.10920000
  -0.24607005  1.17250000 10.08670000
   6.36170000  1.19961000  4.55537000
   3.89394997  8.66037687  4.58393000
  -1.23190005  2.73812000  4.69072000
   3.97348000  5.42307000  1.04180000
   6.48889000  4.26347000  1.06606000
  -3.67348005  7.08540000  0.97820000
   4.58748000  4.22785000  6.67403000
   4.85220000  7.05111000  6.69500000
  -2.98055005  5.49092000  6.75404000
   4.69575000  4.17986000 10.20540000
   4.85501000  6.97199000 10.09290000
  -2.84082005  5.47742000 10.17200000
   3.85987000  5.52269000  4.66196000
   6.31954000  4.22346000  4.65336000
  -3.72538005  6.95900000  4.60048000
  -0.95857800  5.48537000  1.00123000
   1.52349000  4.12990000  1.08692000
   1.39050000  6.89797000  1.05436000
  -0.48364800  4.25883000  6.74173000
  -0.14862900  7.02952000  6.57803000
   2.08252000  5.44872000  6.64339000
  -0.24980400  4.14030000 10.23670000
  -0.11398400  6.92114000 10.23490000
   2.25314000  5.39434000 10.18510000
  -1.15324000  5.45525000  4.64431000
   1.42305000  4.26065000  4.47229000
   1.23533000  7.07745000  4.45540000
 


--------------------------------------------------------------------------------------------------------


 k-point  1 :   0.0000 0.0000 0.0000  plane waves:   17725
 k-point  2 :   0.5000-0.0000-0.0000  plane waves:   17736
 k-point  3 :   0.0000 0.5000 0.0000  plane waves:   17736
 k-point  4 :   0.5000 0.5000-0.0000  plane waves:   17736
 k-point  5 :   0.0000 0.0000 0.5000  plane waves:   17676
 k-point  6 :   0.5000-0.0000 0.5000  plane waves:   17700
 k-point  7 :   0.0000 0.5000 0.5000  plane waves:   17700
 k-point  8 :   0.5000 0.5000 0.5000  plane waves:   17700

 maximum and minimum number of plane-waves per node :     17736    17676

 maximum number of plane-waves:     17736
 maximum index in each direction: 
   IXMAX=   16   IYMAX=   16   IZMAX=   18
   IXMIN=  -16   IYMIN=  -16   IZMIN=  -18


 serial   3D FFT for wavefunctions
 parallel 3D FFT for charge:
    minimum data exchange during FFTs selected (reduces bandwidth)


 total amount of memory used by VASP MPI-rank0    94426. kBytes
=======================================================================

   base      :      30000. kBytes
   nonlr-proj:      13667. kBytes
   fftplans  :       1275. kBytes
   grid      :      22786. kBytes
   one-center:       2737. kBytes
   wavefun   :      23961. kBytes
 
     INWAV:  cpu time    0.0000: real time    0.0001
 Broyden mixing: mesh for mixing (old mesh)
   NGX = 33   NGY = 33   NGZ = 37
  (NGX  =100   NGY  =100   NGZ  =112)
  gives a total of  40293 points

 initial charge density was supplied:
 charge density of overlapping atoms calculated
 number of electron     672.0000000 magnetization      48.0000000
 keeping initial charge density in first step


--------------------------------------------------------------------------------------------------------


 Maximum index for non-local projection operator         1545
 Maximum index for augmentation-charges          411 (set IRDMAX)


--------------------------------------------------------------------------------------------------------


 First call to EWALD:  gamma=   0.179
 Maximum number of real-space cells 3x 3x 2
 Maximum number of reciprocal cells 3x 3x 3

    FEWALD:  cpu time    0.0027: real time    0.0027


--------------------------------------- Iteration      1(   1)  ---------------------------------------


    POTLOK:  cpu time    0.1877: real time    0.1891
    SETDIJ:  cpu time    4.6134: real time    4.6148
    EDDIAG:  cpu time    4.4890: real time    4.8801
  RMM-DIIS:  cpu time    9.1309: real time    9.1396
    ORTHCH:  cpu time    1.1666: real time    1.2501
       DOS:  cpu time    0.0036: real time    0.0037
    --------------------------------------------
      LOOP:  cpu time   19.5912: real time   20.0775

 eigenvalue-minimisations  :  7680
 total energy-change (2. order) : 0.1493441E+04  (-0.3499070E+05)
 number of electron     672.0000000 magnetization      48.0000000
 augmentation part      672.0000000 magnetization      48.0000000

 Free energy of the ion-electron system (eV)
  ---------------------------------------------------
  alpha Z        PSCENC =      2652.81237852
  Ewald energy   TEWEN  =    -41812.31302985
  -Hartree energ DENC   =    -25798.72484800
  -exchange      EXHF   =         0.00000000
  -V(xc)+E(xc)   XCENC  =      3606.11807295
  PAW double counting   =     55594.23204139   -59034.67079123
  entropy T*S    EENTRO =        -0.05291098
  eigenvalues    EBANDS =     -7576.15855247
  atomic energy  EATOM  =     73862.19814772
  Solvation  Ediel_sol  =         0.00000000
  ---------------------------------------------------
  free energy    TOTEN  =      1493.44050806 eV

  energy without entropy =     1493.49341904  energy(sigma->0) =     1493.46696355


--------------------------------------------------------------------------------------------------------




--------------------------------------- Iteration      1(   2)  ---------------------------------------


    EDDIAG:  cpu time    4.3841: real time    4.7916
  RMM-DIIS:  cpu time    9.1156: real time    9.1259
    ORTHCH:  cpu time    1.1454: real time    1.2303
       DOS:  cpu time    0.0023: real time    0.0023
    --------------------------------------------
      LOOP:  cpu time   14.6474: real time   15.1501

 eigenvalue-minimisations  :  7680
 total energy-change (2. order) :-0.2218286E+04  (-0.8011669E+04)
 number of electron     672.0000000 magnetization      48.0000000
 augmentation part      672.0000000 magnetization      48.0000000

 Free energy of the ion-electron system (eV)
  ---------------------------------------------------
  alpha Z        PSCENC =      2652.81237852
  Ewald energy   TEWEN  =    -41812.31302985
  -Hartree energ DENC   =    -25798.72484800
  -exchange      EXHF   =         0.00000000
  -V(xc)+E(xc)   XCENC  =      3606.11807295
  PAW double counting   =     55594.23204139   -59034.67079123
  entropy T*S    EENTRO =        -0.03258067
  eigenvalues    EBANDS =     -9794.46483294
  atomic energy  EATOM  =     73862.19814772
  Solvation  Ediel_sol  =         0.00000000
  ---------------------------------------------------
  free energy    TOTEN  =      -724.84544209 eV

  energy without entropy =     -724.81286143  energy(sigma->0) =     -724.82915176


--------------------------------------------------------------------------------------------------------




--------------------------------------- Iteration      1(   3)  ---------------------------------------


    EDDIAG:  cpu time    4.4312: real time    4.8340
  RMM-DIIS:  cpu time    9.1153: real time    9.1241
    ORTHCH:  cpu time    1.1632: real time    1.2618
       DOS:  cpu time    0.0027: real time    0.0027
    --------------------------------------------
      LOOP:  cpu time   14.7124: real time   15.2227

 eigenvalue-minimisations  :  7680
 total energy-change (2. order) : 0.7814374E+02  (-0.1418237E+04)
 number of electron     672.0000000 magnetization      48.0000000
 augmentation part      672.0000000 magnetization      48.0000000

 Free energy of the ion-electron system (eV)
  ---------------------------------------------------
  alpha Z        PSCENC =      2652.81237852
  Ewald energy   TEWEN  =    -41812.31302985
  -Hartree energ DENC   =    -25798.72484800
  -exchange      EXHF   =         0.00000000
  -V(xc)+E(xc)   XCENC  =      3606.11807295
  PAW double counting   =     55594.23204139   -59034.67079123
  entropy T*S    EENTRO =        -0.02518810
  eigenvalues    EBANDS =     -9716.32848202
  atomic energy  EATOM  =     73862.19814772
  Solvation  Ediel_sol  =         0.00000000
  ---------------------------------------------------
  free energy    TOTEN  =      -646.70169862 eV

  energy without entropy =     -646.67651051  energy(sigma->0) =     -646.68910456


--------------------------------------------------------------------------------------------------------




--------------------------------------- Iteration      1(   4)  ---------------------------------------


    EDDIAG:  cpu time    4.3938: real time    4.8038
  RMM-DIIS:  cpu time    9.1240: real time    9.1314
    ORTHCH:  cpu time    1.1498: real time    1.2321
       DOS:  cpu time    0.0017: real time    0.0017
    --------------------------------------------
      LOOP:  cpu time   14.6692: real time   15.1690

 eigenvalue-minimisations  :  7680
 total energy-change (2. order) :-0.4653840E+03  (-0.4286388E+03)
 number of electron     672.0000000 magnetization      48.0000000
 augmentation part      672.0000000 magnetization      48.0000000

 Free energy of the ion-electron system (eV)
  ---------------------------------------------------
  alpha Z        PSCENC =      2652.81237852
  Ewald energy   TEWEN  =    -41812.31302985
  -Hartree energ DENC   =    -25798.72484800
  -exchange      EXHF   =         0.00000000
  -V(xc)+E(xc)   XCENC  =      3606.11807295
  PAW double counting   =     55594.23204139   -59034.67079123
  entropy T*S    EENTRO =        -0.00000000
  eigenvalues    EBANDS =    -10181.73770496
  atomic energy  EATOM  =     73862.19814772
  Solvation  Ediel_sol  =         0.00000000
  ---------------------------------------------------
  free energy    TOTEN  =     -1112.08573345 eV

  energy without entropy =    -1112.08573345  energy(sigma->0) =    -1112.08573345


--------------------------------------------------------------------------------------------------------




--------------------------------------- Iteration      1(   5)  ---------------------------------------


    EDDIAG:  cpu time    4.4291: real time    4.8301
  RMM-DIIS:  cpu time    9.1015: real time    9.1274
    ORTHCH:  cpu time    1.1573: real time    1.2474
       DOS:  cpu time    0.0014: real time    0.0014
    --------------------------------------------
      LOOP:  cpu time   14.6892: real time   15.2063

 eigenvalue-minimisations  :  7680
 total energy-change (2. order) :-0.1039196E+03  (-0.1589689E+03)
 number of electron     672.0000000 magnetization      48.0000000
 augmentation part      672.0000000 magnetization      48.0000000

 Free energy of the ion-electron system (eV)
  ---------------------------------------------------
  alpha Z        PSCENC =      2652.81237852
  Ewald energy   TEWEN  =    -41812.31302985
  -Hartree energ DENC   =    -25798.72484800
  -exchange      EXHF   =         0.00000000
  -V(xc)+E(xc)   XCENC  =      3606.11807295
  PAW double counting   =     55594.23204139   -59034.67079123
  entropy T*S    EENTRO =        -0.00000000
  eigenvalues    EBANDS =    -10285.65728094
  atomic energy  EATOM  =     73862.19814772
  Solvation  Ediel_sol  =         0.00000000
  ---------------------------------------------------
  free energy    TOTEN  =     -1216.00530944 eV

  energy without entropy =    -1216.00530944  energy(sigma->0) =    -1216.00530944


--------------------------------------------------------------------------------------------------------




--------------------------------------- Iteration      1(   6)  ---------------------------------------


    EDDIAG:  cpu time    4.4397: real time    4.8477
  RMM-DIIS:  cpu time    9.1233: real time    9.1331
    ORTHCH:  cpu time    1.1533: real time    1.2388
       DOS:  cpu time    0.0014: real time    0.0014
    --------------------------------------------
      LOOP:  cpu time   14.7176: real time   15.2210

 eigenvalue-minimisations  :  7680
 total energy-change (2. order) :-0.8910742E+01  (-0.7873081E+02)
 number of electron     672.0000000 magnetization      48.0000000
 augmentation part      672.0000000 magnetization      48.0000000

 Free energy of the ion-electron system (eV)
  ---------------------------------------------------
  alpha Z        PSCENC =      2652.81237852
  Ewald energy   TEWEN  =    -41812.31302985
  -Hartree energ DENC   =    -25798.72484800
  -exchange      EXHF   =         0.00000000
  -V(xc)+E(xc)   XCENC  =      3606.11807295
  PAW double counting   =     55594.23204139   -59034.67079123
  entropy T*S    EENTRO =        -0.00000000
  eigenvalues    EBANDS =    -10294.56802292
  atomic energy  EATOM  =     73862.19814772
  Solvation  Ediel_sol  =         0.00000000
  ---------------------------------------------------
  free energy    TOTEN  =     -1224.91605142 eV

  energy without entropy =    -1224.91605142  energy(sigma->0) =    -1224.91605142


--------------------------------------------------------------------------------------------------------




--------------------------------------- Iteration      1(   7)  ---------------------------------------


    EDDIAG:  cpu time    4.4511: real time    4.8612
  RMM-DIIS:  cpu time    9.1218: real time    9.1282
    ORTHCH:  cpu time    1.1552: real time    1.3109
       DOS:  cpu time    0.0011: real time    0.0011
    --------------------------------------------
      LOOP:  cpu time   14.7291: real time   15.3014

 eigenvalue-minimisations  :  7680
 total energy-change (2. order) :-0.1835481E+01  (-0.4798623E+02)
 number of electron     672.0000000 magnetization      48.0000000
 augmentation part      672.0000000 magnetization      48.0000000

 Free energy of the ion-electron system (eV)
  ---------------------------------------------------
  alpha Z        PSCENC =      2652.81237852
  Ewald energy   TEWEN  =    -41812.31302985
  -Hartree energ DENC   =    -25798.72484800
  -exchange      EXHF   =         0.00000000
  -V(xc)+E(xc)   XCENC  =      3606.11807295
  PAW double counting   =     55594.23204139   -59034.67079123
  entropy T*S    EENTRO =        -0.00000000
  eigenvalues    EBANDS =    -10296.40350404
  atomic energy  EATOM  =     73862.19814772
  Solvation  Ediel_sol  =         0.00000000
  ---------------------------------------------------
  free energy    TOTEN  =     -1226.75153254 eV

  energy without entropy =    -1226.75153254  energy(sigma->0) =    -1226.75153254


--------------------------------------------------------------------------------------------------------




--------------------------------------- Iteration      1(   8)  ---------------------------------------


    EDDIAG:  cpu time    4.4084: real time    4.7952
  RMM-DIIS:  cpu time    9.1053: real time    9.1256
    ORTHCH:  cpu time    1.1500: real time    1.2311
       DOS:  cpu time    0.0015: real time    0.0015
    --------------------------------------------
      LOOP:  cpu time   14.6651: real time   15.1534

 eigenvalue-minimisations  :  7680
 total energy-change (2. order) : 0.4947325E+01  (-0.2981590E+02)
 number of electron     672.0000000 magnetization      48.0000000
 augmentation part      672.0000000 magnetization      48.0000000

 Free energy of the ion-electron system (eV)
  ---------------------------------------------------
  alpha Z        PSCENC =      2652.81237852
  Ewald energy   TEWEN  =    -41812.31302985
  -Hartree energ DENC   =    -25798.72484800
  -exchange      EXHF   =         0.00000000
  -V(xc)+E(xc)   XCENC  =      3606.11807295
  PAW double counting   =     55594.23204139   -59034.67079123
  entropy T*S    EENTRO =        -0.00000000
  eigenvalues    EBANDS =    -10291.45617930
  atomic energy  EATOM  =     73862.19814772
  Solvation  Ediel_sol  =         0.00000000
  ---------------------------------------------------
  free energy    TOTEN  =     -1221.80420780 eV

  energy without entropy =    -1221.80420780  energy(sigma->0) =    -1221.80420780


--------------------------------------------------------------------------------------------------------




--------------------------------------- Iteration      1(   9)  ---------------------------------------


    EDDIAG:  cpu time    4.4645: real time    4.8659
  RMM-DIIS:  cpu time   19.1063: real time   19.1874
    ORTHCH:  cpu time    1.1648: real time    1.2481
       DOS:  cpu time    0.0016: real time    0.0016
    --------------------------------------------
      LOOP:  cpu time   24.7372: real time   25.3030

 eigenvalue-minimisations  : 21770
 total energy-change (2. order) : 0.9218598E+01  (-0.1314349E+02)
 number of electron     672.0000000 magnetization      48.0000000
 augmentation part      672.0000000 magnetization      48.0000000

 Free energy of the ion-electron system (eV)
  ---------------------------------------------------
  alpha Z        PSCENC =      2652.81237852
  Ewald energy   TEWEN  =    -41812.31302985
  -Hartree energ DENC   =    -25798.72484800
  -exchange      EXHF   =         0.00000000
  -V(xc)+E(xc)   XCENC  =      3606.11807295
  PAW double counting   =     55594.23204139   -59034.67079123
  entropy T*S    EENTRO =        -0.00000000
  eigenvalues    EBANDS =    -10282.23758082
  atomic energy  EATOM  =     73862.19814772
  Solvation  Ediel_sol  =         0.00000000
  ---------------------------------------------------
  free energy    TOTEN  =     -1212.58560932 eV

  energy without entropy =    -1212.58560931  energy(sigma->0) =    -1212.58560932


--------------------------------------------------------------------------------------------------------




--------------------------------------- Iteration      1(  10)  ---------------------------------------


    EDDIAG:  cpu time    4.3641: real time    4.7836
  RMM-DIIS:  cpu time   17.5479: real time   17.6526
    ORTHCH:  cpu time    1.1477: real time    1.2313
       DOS:  cpu time    0.0012: real time    0.0012
    --------------------------------------------
      LOOP:  cpu time   23.0608: real time   23.6687

 eigenvalue-minimisations  : 19530
 total energy-change (2. order) :-0.1908758E+01  (-0.5314257E+00)
 number of electron     672.0000000 magnetization      48.0000000
 augmentation part      672.0000000 magnetization      48.0000000

 Free energy of the ion-electron system (eV)
  ---------------------------------------------------
  alpha Z        PSCENC =      2652.81237852
  Ewald energy   TEWEN  =    -41812.31302985
  -Hartree energ DENC   =    -25798.72484800
  -exchange      EXHF   =         0.00000000
  -V(xc)+E(xc)   XCENC  =      3606.11807295
  PAW double counting   =     55594.23204139   -59034.67079123
  entropy T*S    EENTRO =        -0.00000001
  eigenvalues    EBANDS =    -10284.14633926
  atomic energy  EATOM  =     73862.19814772
  Solvation  Ediel_sol  =         0.00000000
  ---------------------------------------------------
  free energy    TOTEN  =     -1214.49436776 eV

  energy without entropy =    -1214.49436776  energy(sigma->0) =    -1214.49436776


--------------------------------------------------------------------------------------------------------




--------------------------------------- Iteration      1(  11)  ---------------------------------------


    EDDIAG:  cpu time    4.3769: real time    4.7868
  RMM-DIIS:  cpu time   19.6444: real time   19.6647
    ORTHCH:  cpu time    1.1429: real time    1.2515
       DOS:  cpu time    0.0012: real time    0.0012
    --------------------------------------------
      LOOP:  cpu time   25.1654: real time   25.7042

 eigenvalue-minimisations  : 22574
 total energy-change (2. order) : 0.7043698E-01  (-0.4353689E-01)
 number of electron     672.0000000 magnetization      48.0000000
 augmentation part      672.0000000 magnetization      48.0000000

 Free energy of the ion-electron system (eV)
  ---------------------------------------------------
  alpha Z        PSCENC =      2652.81237852
  Ewald energy   TEWEN  =    -41812.31302985
  -Hartree energ DENC   =    -25798.72484800
  -exchange      EXHF   =         0.00000000
  -V(xc)+E(xc)   XCENC  =      3606.11807295
  PAW double counting   =     55594.23204139   -59034.67079123
  entropy T*S    EENTRO =        -0.00000001
  eigenvalues    EBANDS =    -10284.07590229
  atomic energy  EATOM  =     73862.19814772
  Solvation  Ediel_sol  =         0.00000000
  ---------------------------------------------------
  free energy    TOTEN  =     -1214.42393079 eV

  energy without entropy =    -1214.42393078  energy(sigma->0) =    -1214.42393078


--------------------------------------------------------------------------------------------------------




--------------------------------------- Iteration      1(  12)  ---------------------------------------


    EDDIAG:  cpu time    4.4392: real time    4.8146
  RMM-DIIS:  cpu time   21.6241: real time   21.6446
    ORTHCH:  cpu time    1.1462: real time    1.2318
       DOS:  cpu time    0.0015: real time    0.0015
    CHARGE:  cpu time    1.7973: real time    1.8188
    MIXING:  cpu time    0.0032: real time    0.0034
    --------------------------------------------
      LOOP:  cpu time   29.0114: real time   29.5147

 eigenvalue-minimisations  : 24384
 total energy-change (2. order) :-0.8531395E-03  (-0.4306207E-02)
 number of electron     671.9999477 magnetization      47.9999955
 augmentation part      239.0925848 magnetization      29.0483207

 Broyden mixing:
  rms(total) = 0.12572E+02    rms(broyden)= 0.12563E+02
  rms(prec ) = 0.14420E+02
  weight for this iteration     100.00

 Free energy of the ion-electron system (eV)
  ---------------------------------------------------
  alpha Z        PSCENC =      2652.81237852
  Ewald energy   TEWEN  =    -41812.31302985
  -Hartree energ DENC   =    -25798.72484800
  -exchange      EXHF   =         0.00000000
  -V(xc)+E(xc)   XCENC  =      3606.11807295
  PAW double counting   =     55594.23204139   -59034.67079123
  entropy T*S    EENTRO =        -0.00000001
  eigenvalues    EBANDS =    -10284.07675543
  atomic energy  EATOM  =     73862.19814772
  Solvation  Ediel_sol  =         0.00000000
  ---------------------------------------------------
  free energy    TOTEN  =     -1214.42478393 eV

  energy without entropy =    -1214.42478392  energy(sigma->0) =    -1214.42478392


--------------------------------------------------------------------------------------------------------




--------------------------------------- Iteration      1(  13)  ---------------------------------------


    POTLOK:  cpu time    0.1736: real time    0.1743
    SETDIJ:  cpu time    4.9597: real time    4.9611
    EDDIAG:  cpu time    4.3688: real time    4.7867
  RMM-DIIS:  cpu time   17.3084: real time   17.3235
    ORTHCH:  cpu time    1.1510: real time    1.2301
       DOS:  cpu time    0.0018: real time    0.0018
    CHARGE:  cpu time    1.7664: real time    1.7880
    MIXING:  cpu time    0.0009: real time    0.0010
    --------------------------------------------
      LOOP:  cpu time   29.7306: real time   30.2665

 eigenvalue-minimisations  : 18780
 total energy-change (2. order) : 0.2289036E+03  (-0.1215769E+03)
 number of electron     671.9999578 magnetization      47.9999942
 augmentation part      268.9911446 magnetization      26.4126050

 Broyden mixing:
  rms(total) = 0.13956E+02    rms(broyden)= 0.13953E+02
  rms(prec ) = 0.15712E+02
  weight for this iteration     100.00

 eigenvalues of (default mixing * dielectric matrix)
  average eigenvalue GAMMA=   0.3184
  0.3184

 Free energy of the ion-electron system (eV)
  ---------------------------------------------------
  alpha Z        PSCENC =      2652.81237852
  Ewald energy   TEWEN  =    -41812.31302985
  -Hartree energ DENC   =    -25129.87442258
  -exchange      EXHF   =         0.00000000
  -V(xc)+E(xc)   XCENC  =      3696.41496807
  PAW double counting   =     59909.57062637   -63334.95880820
  entropy T*S    EENTRO =        -0.08442446
  eigenvalues    EBANDS =    -10829.28657757
  atomic energy  EATOM  =     73862.19814772
  Solvation  Ediel_sol  =         0.00000000
  ---------------------------------------------------
  free energy    TOTEN  =      -985.52114198 eV

  energy without entropy =     -985.43671752  energy(sigma->0) =     -985.47892975


--------------------------------------------------------------------------------------------------------




--------------------------------------- Iteration      1(  14)  ---------------------------------------


    POTLOK:  cpu time    0.1764: real time    0.1768
    SETDIJ:  cpu time    4.9461: real time    4.9466
    EDDIAG:  cpu time    4.3906: real time    4.7900
  RMM-DIIS:  cpu time   17.7165: real time   17.7227
    ORTHCH:  cpu time    1.1489: real time    1.2300
       DOS:  cpu time    0.0012: real time    0.0012
    CHARGE:  cpu time    1.7690: real time    1.7840
    MIXING:  cpu time    0.0009: real time    0.0009
    --------------------------------------------
      LOOP:  cpu time   30.1496: real time   30.6523

 eigenvalue-minimisations  : 19332
 total energy-change (2. order) : 0.6929650E+02  (-0.1784255E+02)
 number of electron     671.9999517 magnetization      47.9999908
 augmentation part      246.5887008 magnetization      32.1642154

 Broyden mixing:
  rms(total) = 0.52938E+01    rms(broyden)= 0.52896E+01
  rms(prec ) = 0.57314E+01
  weight for this iteration     100.00

 eigenvalues of (default mixing * dielectric matrix)
  average eigenvalue GAMMA=   0.7299
  1.1022  0.3576

 Free energy of the ion-electron system (eV)
  ---------------------------------------------------
  alpha Z        PSCENC =      2652.81237852
  Ewald energy   TEWEN  =    -41812.31302985
  -Hartree energ DENC   =    -25741.61796226
  -exchange      EXHF   =         0.00000000
  -V(xc)+E(xc)   XCENC  =      3673.75841060
  PAW double counting   =     63299.17134742   -66781.69670854
  entropy T*S    EENTRO =        -0.00000000
  eigenvalues    EBANDS =    -10068.53723036
  atomic energy  EATOM  =     73862.19814772
  Solvation  Ediel_sol  =         0.00000000
  ---------------------------------------------------
  free energy    TOTEN  =      -916.22464676 eV

  energy without entropy =     -916.22464676  energy(sigma->0) =     -916.22464676


--------------------------------------------------------------------------------------------------------




--------------------------------------- Iteration      1(  15)  ---------------------------------------


    POTLOK:  cpu time    0.1703: real time    0.1707
    SETDIJ:  cpu time    4.9607: real time    4.9613
    EDDIAG:  cpu time    4.3921: real time    4.7918
  RMM-DIIS:  cpu time   18.0493: real time   18.0568
    ORTHCH:  cpu time    1.1639: real time    1.2546
       DOS:  cpu time    0.0015: real time    0.0015
    CHARGE:  cpu time    1.7789: real time    1.7798
    MIXING:  cpu time    0.0010: real time    0.0010
    --------------------------------------------
      LOOP:  cpu time   30.5177: real time   31.0176

 eigenvalue-minimisations  : 20262
 total energy-change (2. order) : 0.1445149E+02  (-0.2096580E+01)
 number of electron     671.9999530 magnetization      47.9999887
 augmentation part      249.6460649 magnetization      33.8070279

 Broyden mixing:
  rms(total) = 0.22265E+01    rms(broyden)= 0.22261E+01
  rms(prec ) = 0.23148E+01
  weight for this iteration     100.00

 eigenvalues of (default mixing * dielectric matrix)
  average eigenvalue GAMMA=   0.9267
  1.6610  0.3839  0.7353

 Free energy of the ion-electron system (eV)
  ---------------------------------------------------
  alpha Z        PSCENC =      2652.81237852
  Ewald energy   TEWEN  =    -41812.31302985
  -Hartree energ DENC   =    -25664.56705182
  -exchange      EXHF   =         0.00000000
  -V(xc)+E(xc)   XCENC  =      3706.83830259
  PAW double counting   =     67375.19235660   -70898.00646230
  entropy T*S    EENTRO =        -0.00000000
  eigenvalues    EBANDS =    -10123.92780246
  atomic energy  EATOM  =     73862.19814772
  Solvation  Ediel_sol  =         0.00000000
  ---------------------------------------------------
  free energy    TOTEN  =      -901.77316100 eV

  energy without entropy =     -901.77316100  energy(sigma->0) =     -901.77316100


--------------------------------------------------------------------------------------------------------




--------------------------------------- Iteration      1(  16)  ---------------------------------------


    POTLOK:  cpu time    0.1716: real time    0.1725
    SETDIJ:  cpu time    5.5717: real time    5.5739
    EDDIAG:  cpu time    4.4126: real time    4.7795
  RMM-DIIS:  cpu time   17.4371: real time   17.4717
    ORTHCH:  cpu time    1.1468: real time    1.2308
       DOS:  cpu time    0.0015: real time    0.0015
    CHARGE:  cpu time    1.7739: real time    1.7786
    MIXING:  cpu time    0.0009: real time    0.0009
    --------------------------------------------
      LOOP:  cpu time   30.5160: real time   31.0094

 eigenvalue-minimisations  : 19095
 total energy-change (2. order) :-0.1410326E+01  (-0.6652001E+00)
 number of electron     671.9999539 magnetization      47.9999881
 augmentation part      251.1047093 magnetization      33.9072027

 Broyden mixing:
  rms(total) = 0.14979E+01    rms(broyden)= 0.14974E+01
  rms(prec ) = 0.15793E+01
  weight for this iteration     100.00

 eigenvalues of (default mixing * dielectric matrix)
  average eigenvalue GAMMA=   0.9681
  2.0805  0.8934  0.3904  0.5082

 Free energy of the ion-electron system (eV)
  ---------------------------------------------------
  alpha Z        PSCENC =      2652.81237852
  Ewald energy   TEWEN  =    -41812.31302985
  -Hartree energ DENC   =    -25615.12385815
  -exchange      EXHF   =         0.00000000
  -V(xc)+E(xc)   XCENC  =      3707.89646535
  PAW double counting   =     70248.78432928   -73800.70448281
  entropy T*S    EENTRO =        -0.00000000
  eigenvalues    EBANDS =    -10146.73343666
  atomic energy  EATOM  =     73862.19814772
  Solvation  Ediel_sol  =         0.00000000
  ---------------------------------------------------
  free energy    TOTEN  =      -903.18348659 eV

  energy without entropy =     -903.18348659  energy(sigma->0) =     -903.18348659


--------------------------------------------------------------------------------------------------------




--------------------------------------- Iteration      1(  17)  ---------------------------------------


    POTLOK:  cpu time    0.1731: real time    0.1740
    SETDIJ:  cpu time    5.0190: real time    5.0247
    EDDIAG:  cpu time    4.4017: real time    4.7844
  RMM-DIIS:  cpu time   18.5576: real time   18.5923
    ORTHCH:  cpu time    1.1469: real time    1.2317
       DOS:  cpu time    0.0011: real time    0.0011
    CHARGE:  cpu time    1.7691: real time    1.7706
    MIXING:  cpu time    0.0019: real time    0.0019
    --------------------------------------------
      LOOP:  cpu time   31.0704: real time   31.5805

 eigenvalue-minimisations  : 20490
 total energy-change (2. order) : 0.8856483E-01  (-0.7270871E-01)
 number of electron     671.9999537 magnetization      47.9999878
 augmentation part      251.1281476 magnetization      33.9077004

 Broyden mixing:
  rms(total) = 0.79116E+00    rms(broyden)= 0.79100E+00
  rms(prec ) = 0.89366E+00
  weight for this iteration     100.00

 eigenvalues of (default mixing * dielectric matrix)
  average eigenvalue GAMMA=   0.9911
  2.2292  1.1122  0.3794  0.6803  0.5547

 Free energy of the ion-electron system (eV)
  ---------------------------------------------------
  alpha Z        PSCENC =      2652.81237852
  Ewald energy   TEWEN  =    -41812.31302985
  -Hartree energ DENC   =    -25604.29286767
  -exchange      EXHF   =         0.00000000
  -V(xc)+E(xc)   XCENC  =      3705.32835424
  PAW double counting   =     71194.37251334   -74755.52612491
  entropy T*S    EENTRO =        -0.00000000
  eigenvalues    EBANDS =    -10145.67429316
  atomic energy  EATOM  =     73862.19814772
  Solvation  Ediel_sol  =         0.00000000
  ---------------------------------------------------
  free energy    TOTEN  =      -903.09492176 eV

  energy without entropy =     -903.09492176  energy(sigma->0) =     -903.09492176


--------------------------------------------------------------------------------------------------------




--------------------------------------- Iteration      1(  18)  ---------------------------------------


    POTLOK:  cpu time    0.1723: real time    0.1733
    SETDIJ:  cpu time    4.9952: real time    4.9980
    EDDIAG:  cpu time    4.3885: real time    4.7845
  RMM-DIIS:  cpu time   17.5396: real time   17.5673
    ORTHCH:  cpu time    1.1478: real time    1.2303
       DOS:  cpu time    0.0013: real time    0.0013
    CHARGE:  cpu time    1.7687: real time    1.7773
    MIXING:  cpu time    0.0011: real time    0.0011
    --------------------------------------------
      LOOP:  cpu time   30.0145: real time   30.5330

 eigenvalue-minimisations  : 19132
 total energy-change (2. order) : 0.4213997E+00  (-0.7107422E-01)
 number of electron     671.9999535 magnetization      47.9999877
 augmentation part      250.6198087 magnetization      33.8740941

 Broyden mixing:
  rms(total) = 0.28901E+00    rms(broyden)= 0.28876E+00
  rms(prec ) = 0.30525E+00
  weight for this iteration     100.00

 eigenvalues of (default mixing * dielectric matrix)
  average eigenvalue GAMMA=   1.0168
  2.4526  1.3629  0.8442  0.3812  0.5889  0.4710

 Free energy of the ion-electron system (eV)
  ---------------------------------------------------
  alpha Z        PSCENC =      2652.81237852
[...]
   4      -0.619    -0.970     1.589     0.176    -0.047     0.044
   5      -0.849    -0.804     1.653     0.274    -0.005    -0.007
   6      -0.988    -0.534     1.522     0.023    -0.041    -0.066
   7      -0.746    -0.952     1.697    -0.216    -0.014    -0.116
   8      -0.816    -0.462     1.278    -0.005    -0.068    -0.028
   9      -0.668    -1.016     1.684     0.245    -0.053     0.078
  10      -0.698    -1.138     1.836    -0.003     0.089    -0.058
  11      -0.964    -0.994     1.958     0.070     0.064     0.068
  12      -0.807    -1.069     1.877     0.053     0.014    -0.056
  13      -1.147    -0.782     1.929     0.048     0.013     0.048
  14      -0.779    -1.063     1.842     0.016    -0.044     0.042
  15      -0.685    -0.904     1.588    -0.181    -0.040    -0.032
  16      -0.895    -0.521     1.416    -0.040     0.016     0.025
  17       1.396     1.484    -2.881     0.040    -0.114     0.041
  18       1.306     1.650    -2.956     0.136     0.031     0.005
  19       1.513     1.467    -2.981    -0.040     0.135     0.150
  20       1.665     1.299    -2.964    -0.163    -0.011    -0.030
  21       1.672     1.305    -2.976    -0.102     0.046     0.028
  22       1.504     1.504    -3.008    -0.123    -0.140    -0.038
  23       1.469     1.485    -2.953     0.013    -0.129    -0.152
  24       1.289     1.574    -2.863    -0.173     0.086     0.016
  25       0.867    -0.472    -0.394     0.856     0.822    -0.102
  26      -0.876     0.978    -0.102     0.182    -0.503     0.516
  27      -0.117    -0.836     0.952     0.331    -0.058     0.090
  28      -0.968    -0.458     1.425     1.372    -0.761     0.122
  29      -0.284    -1.222     1.506     0.280     0.195    -0.090
  30       0.944    -0.042    -0.902    -0.145     0.241     0.554
  31      -0.131    -0.522     0.652     0.089     0.019    -0.335
  32      -0.042    -0.645     0.687    -0.210     1.401    -0.063
  33      -1.082     1.173    -0.092    -0.986    -0.357    -0.281
  34      -1.105     0.371     0.733    -0.682    -0.535     0.503
  35       0.885    -0.672    -0.213     0.339    -0.098     0.035
  36       0.060    -1.205     1.144    -0.356    -0.489    -0.342
  37      -0.845    -0.466     1.311     0.843    -0.013    -0.531
  38      -0.607    -0.720     1.328    -0.230     0.307     0.076
  39      -1.478     1.103     0.375     0.015     0.641     0.469
  40      -0.284     0.893    -0.609     0.076     0.169    -0.631
  41      -3.584     3.362     0.221    -3.966     2.402    -2.969
  42      -2.817     3.660    -0.842     5.993     3.250     2.055
  43       3.477    -4.974     1.497     0.138    -4.794    -2.042
  44      -3.532     2.375     1.157    -4.027    -3.637     3.998
  45       5.039    -5.902     0.863     1.214     4.348     0.347
  46      -2.245     2.554    -0.310     6.192    -2.488    -3.677
  47      -2.519     0.669     1.850    -3.495     1.049    -3.505
  48       6.346    -5.691    -0.654     2.070    -2.490     0.883
  49      -1.825     0.058     1.768     5.755     2.564     5.559
  50      -3.257     1.005     2.252    -4.890    -1.765     3.755
  51      -4.616     2.590     2.026     4.492    -3.047    -4.840
  52       5.369    -5.586     0.216    -0.083     4.730     0.139
  53      -1.691     3.494    -1.803    -6.125     2.498    -3.401
  54      -1.308     2.497    -1.189     6.060     5.117     2.621
  55       7.473    -6.721    -0.752     0.655    -4.366    -0.118
  56      -1.805     2.418    -0.613    -5.410    -1.866     3.055
  57       4.286    -4.523     0.237     1.288     4.228     0.003
  58      -4.127     3.980     0.147     4.992    -3.379    -3.566
  59      -2.974     0.889     2.085    -4.975     2.464    -2.644
  60       4.577    -5.278     0.701     0.996    -5.291    -0.000
  61      -2.122    -0.529     2.651     4.744     3.143     3.427
  62      -2.233     1.051     1.183    -4.940    -2.005     3.549
  63      -1.477     0.928     0.549     4.986    -1.380    -4.610
  64       4.759    -7.336     2.577     1.224     5.301     0.966
  65      -2.470     2.450     0.020    -6.655     1.855    -3.670
  66      -2.660     4.087    -1.427     5.160     2.970     4.518
  67       3.712    -3.985     0.273     2.519    -5.463     0.680
  68      -2.671     0.342     2.329    -5.179    -3.164     4.057
  69       6.068    -7.056     0.989    -0.145     4.777     0.397
  70      -4.227     4.699    -0.472     4.594    -2.115    -4.759
  71      -2.060     0.640     1.421    -5.620     2.204    -5.296
  72       5.811    -7.221     1.411     0.530    -4.685    -2.122
  73      -5.327     3.758     1.570     5.040     2.615     3.949
  74      -2.399     0.982     1.416    -4.340    -1.824     3.711
  75      -5.547     3.706     1.841     3.388    -1.563    -4.210
  76       5.291    -5.153    -0.138     0.646     4.751    -0.606
  77      -3.325     2.204     1.121    -5.530     3.078    -4.787
  78      -5.339     3.768     1.571     2.645     2.610     3.505
  79       3.377    -4.032     0.655    -0.603    -5.299    -0.308
  80      -2.401     3.112    -0.712    -5.274    -2.320     5.426
  81       7.465    -7.636     0.171    -0.017     4.125    -1.137
  82      -2.177     2.268    -0.091     5.697    -2.438    -3.687
  83      -3.910     0.624     3.287    -3.967     3.362    -4.449
  84       5.491    -7.385     1.893     0.021    -4.681     1.243
  85      -1.986     2.678    -0.691     4.063     0.460     4.121
  86      -4.523     2.772     1.750    -5.739    -1.853     3.988
  87      -4.257     5.351    -1.094     4.819    -1.623    -3.066
  88       4.750    -5.478     0.728    -0.551     4.644    -0.666
 ---------------------------------------------------------------------


 Total hyperfine coupling parameters after diagonalization (MHz)
 (convention: |A_zz| > |A_xx| > |A_yy|)
 ----------------------------------------------------------------------
  ion      A_xx      A_yy      A_zz     asymmetry (A_yy - A_xx)/ A_zz 
 ----------------------------------------------------------------------
   1       1.629     1.493     3.224      -0.042
   2       2.134     1.813     3.845      -0.084
   3       2.082     1.786     3.924      -0.076
   4       2.352     1.854     4.489      -0.111
   5       1.360     0.811     3.565      -0.154
   6       2.501     2.047     4.561      -0.100
   7       2.364     1.882     4.676      -0.103
   8       1.702     1.346     3.444      -0.103
   9       1.974     1.370     4.202      -0.144
  10       0.744     0.307     3.286      -0.133
  11      -0.302    -0.163     2.709       0.051
  12      -0.237     0.047     2.722       0.104
  13       0.337    -0.039     3.044      -0.123
  14       0.603     0.316     3.225      -0.089
  15       2.431     2.007     4.603      -0.092
  16       1.959     1.577     3.893      -0.098
  17      13.150     8.881    13.265      -0.322
  18      13.903     9.687    14.342      -0.294
  19      14.542    10.100    14.626      -0.304
  20      14.402    10.201    14.891      -0.282
  21      14.192     9.936    14.611      -0.291
  22      15.377    10.979    15.621      -0.282
  23      14.055     9.632    14.095      -0.314
  24      14.074    10.001    14.521      -0.281
  25      94.778    93.892    96.650      -0.009
  26      90.850    89.640    92.023      -0.013
  27      98.362    97.379    99.308      -0.010
  28      97.417    94.649    98.574      -0.028
  29      99.522    98.438   101.273      -0.011
  30      94.808    93.370    95.561      -0.015
  31      96.562    96.050    97.418      -0.005
  32      96.576    96.045    98.984      -0.005
  33      92.685    91.084    94.218      -0.017
  34      98.729    97.254   100.047      -0.015
  35      95.393    94.859    96.569      -0.006
  36      95.626    94.208    96.939      -0.015
  37     104.091   102.462   105.504      -0.015
  38      97.235    96.752    99.058      -0.005
  39      97.746    95.744    98.795      -0.020
  40     100.012    99.345   101.363      -0.007
  41       2.567    -1.452    11.287      -0.356
  42       6.157     0.750    16.230      -0.333
  43       2.283    -1.746    11.580      -0.348
  44       2.652    -1.098    13.224      -0.284
  45       7.033     2.837    16.757      -0.250
  46       5.355     1.313    16.727      -0.242
  47       3.543    -0.402    10.541      -0.374
  48       6.758     1.429    15.144      -0.352
  49       3.596    -1.202    15.487      -0.310
  50       7.337     1.785    15.755      -0.352
  51       5.152     0.707    16.786      -0.265
  52       3.929     0.919    14.692      -0.205
  53       1.651    -0.708    14.229      -0.166
  54       4.968    -0.132    16.696      -0.305
  55       7.393     3.271    19.409      -0.212
  56       5.065     1.705    14.875      -0.226
  57       4.148     1.562    13.434      -0.193
  58       3.865    -1.095    14.730      -0.337
  59       5.663    -0.238    13.119      -0.450
  60       6.052     3.459    17.239      -0.150
  61       8.847     4.300    18.175      -0.250
  62       4.568     0.202    13.339      -0.327
  63       3.650    -0.731    13.065      -0.335
  64       6.690     0.952    17.662      -0.325
  65       7.842     2.468    18.574      -0.289
  66       3.299     1.690    16.789      -0.096
  67       5.667     1.603    15.559      -0.261
  68       5.041     0.432    15.503      -0.297
  69       6.531     1.290    17.319      -0.303
  70       5.502     2.549    18.112      -0.163
  71       4.433    -0.261    15.759      -0.298
  72       8.597     2.059    18.744      -0.349
  73       7.389     1.055    17.670      -0.358
  74       5.031     1.140    13.551      -0.287
  75       7.496     2.231    16.946      -0.311
  76       4.193     1.366    14.860      -0.190
  77       3.693    -0.305    15.930      -0.251
  78       7.815     2.323    16.177      -0.339
  79       4.068     2.710    14.630      -0.093
  80       2.925     0.783    16.290      -0.131
  81       8.092     1.786    18.945      -0.333
  82       4.915     1.222    15.741      -0.235
  83       5.362     1.452    16.398      -0.238
  84       8.270     1.836    18.157      -0.354
  85       4.714     1.233    13.434      -0.259
  86       8.364     1.690    18.073      -0.369
  87       7.260     3.283    18.149      -0.219
  88       4.305     1.057    14.458      -0.225
 ---------------------------------------------------------------------



--------------------------------------------------------------------------------------------------------


 stress matrix after NEB project (eV)
    -46.17226     -2.95473     -1.65823
     -2.93401    -43.22566      2.16542
     -1.66454      2.15478    -58.32487
  FORCES: max atom, RMS     2.233445    1.100967
  FORCE total and by dimension   10.327989    1.922630
  Stress total and by dimension   86.222490   58.324874
     LOOP+:  cpu time  867.1691: real time  883.2407
    4ORBIT:  cpu time    0.0000: real time    0.0000
 


 total charge     
 
# of ion       s       p       d       tot
------------------------------------------
    1        0.055   5.998   0.000   6.053
    2        0.049   5.990   0.000   6.039
    3        0.052   5.995   0.000   6.046
    4        0.052   5.995   0.000   6.047
    5        0.048   5.992   0.000   6.040
    6        0.051   5.992   0.000   6.043
    7        0.053   5.997   0.000   6.050
    8        0.050   5.993   0.000   6.043
    9        0.055   5.998   0.000   6.053
   10        0.050   5.995   0.000   6.045
   11        0.048   5.990   0.000   6.038
   12        0.053   5.998   0.000   6.051
   13        0.052   5.996   0.000   6.048
   14        0.052   5.997   0.000   6.049
   15        0.051   5.993   0.000   6.044
   16        0.046   5.988   0.000   6.033
   17        0.148   6.127   0.083   6.359
   18        0.152   6.132   0.087   6.371
   19        0.150   6.130   0.085   6.365
   20        0.146   6.123   0.080   6.348
   21        0.149   6.127   0.083   6.359
   22        0.150   6.131   0.086   6.366
   23        0.149   6.129   0.085   6.362
   24        0.146   6.121   0.079   6.346
   25        0.370   6.438   4.826  11.635
   26        0.382   6.469   4.834  11.685
   27        0.370   6.442   4.812  11.624
   28        0.393   6.496   4.870  11.758
   29        0.365   6.432   4.803  11.599
   30        0.381   6.467   4.845  11.693
   31        0.380   6.466   4.835  11.681
   32        0.365   6.435   4.804  11.604
   33        0.381   6.463   4.846  11.690
   34        0.375   6.451   4.831  11.657
   35        0.383   6.473   4.844  11.701
   36        0.388   6.482   4.855  11.725
   37        0.359   6.423   4.799  11.581
   38        0.388   6.480   4.860  11.728
   39        0.375   6.454   4.833  11.662
   40        0.369   6.440   4.831  11.640
   41        1.597   3.504   0.000   5.101
   42        1.600   3.497   0.000   5.097
   43        1.597   3.489   0.000   5.086
   44        1.599   3.506   0.000   5.105
   45        1.600   3.519   0.000   5.118
   46        1.600   3.532   0.000   5.132
   47        1.595   3.539   0.000   5.134
   48        1.598   3.497   0.000   5.096
   49        1.599   3.492   0.000   5.090
   50        1.598   3.539   0.000   5.137
   51        1.600   3.509   0.000   5.108
   52        1.599   3.493   0.000   5.091
   53        1.599   3.482   0.000   5.081
   54        1.601   3.487   0.000   5.088
   55        1.604   3.511   0.000   5.115
   56        1.598   3.513   0.000   5.111
   57        1.594   3.508   0.000   5.102
   58        1.599   3.467   0.000   5.066
   59        1.596   3.527   0.000   5.123
   60        1.598   3.499   0.000   5.097
   61        1.599   3.520   0.000   5.119
   62        1.598   3.515   0.000   5.112
   63        1.596   3.500   0.000   5.096
   64        1.601   3.522   0.000   5.123
   65        1.599   3.503   0.000   5.102
   66        1.601   3.484   0.000   5.085
   67        1.601   3.487   0.000   5.087
   68        1.599   3.517   0.000   5.116
   69        1.600   3.496   0.000   5.096
   70        1.601   3.507   0.000   5.108
   71        1.600   3.496   0.000   5.095
   72        1.600   3.503   0.000   5.104
   73        1.599   3.504   0.000   5.102
   74        1.598   3.536   0.000   5.134
   75        1.602   3.525   0.000   5.126
   76        1.598   3.485   0.000   5.082
   77        1.600   3.493   0.000   5.093
   78        1.597   3.503   0.000   5.101
   79        1.597   3.506   0.000   5.103
   80        1.601   3.471   0.000   5.072
   81        1.604   3.509   0.000   5.113
   82        1.598   3.504   0.000   5.102
   83        1.599   3.523   0.000   5.122
   84        1.603   3.524   0.000   5.127
   85        1.599   3.513   0.000   5.111
   86        1.602   3.539   0.000   5.141
   87        1.597   3.490   0.000   5.087
   88        1.596   3.500   0.000   5.096
--------------------------------------------------
tot         84.786 416.517  77.994 579.298
 


 magnetization (x)
 
# of ion       s       p       d       tot
------------------------------------------
    1        0.001   0.000   0.000   0.002
    2        0.002   0.000   0.000   0.002
    3        0.002   0.000   0.000   0.002
    4        0.002   0.000   0.000   0.002
    5        0.001   0.000   0.000   0.002
    6        0.002   0.000   0.000   0.003
    7        0.002   0.000   0.000   0.002
    8        0.002   0.000   0.000   0.002
    9        0.002   0.000   0.000   0.002
   10        0.001   0.001   0.000   0.002
   11        0.001   0.000   0.000   0.001
   12        0.001   0.000   0.000   0.001
   13        0.001   0.000   0.000   0.001
   14        0.001   0.001   0.000   0.001
   15        0.002   0.000   0.000   0.002
   16        0.002   0.000   0.000   0.002
   17        0.007   0.002   0.001   0.010
   18        0.007   0.002   0.001   0.011
   19        0.007   0.002   0.001   0.011
   20        0.007   0.002   0.001   0.011
   21        0.007   0.003   0.001   0.011
   22        0.008   0.002   0.001   0.011
   23        0.007   0.002   0.001   0.011
   24        0.007   0.002   0.001   0.011
   25        0.014   0.029   2.760   2.803
   26        0.014   0.030   2.739   2.782
   27        0.016   0.030   2.772   2.818
   28        0.016   0.031   2.718   2.765
   29        0.016   0.030   2.785   2.831
   30        0.015   0.030   2.736   2.781
   31        0.015   0.031   2.753   2.800
   32        0.015   0.029   2.784   2.829
   33        0.014   0.029   2.729   2.773
   34        0.016   0.030   2.758   2.804
   35        0.015   0.031   2.738   2.784
   36        0.015   0.030   2.729   2.774
   37        0.017   0.030   2.795   2.843
   38        0.016   0.030   2.734   2.780
   39        0.016   0.030   2.752   2.798
   40        0.016   0.031   2.762   2.809
   41        0.001   0.008   0.000   0.010
   42        0.002   0.033   0.000   0.035
   43        0.001   0.004   0.000   0.006
   44        0.001   0.008   0.000   0.010
   45        0.002   0.050   0.000   0.053
   46        0.002   0.047   0.000   0.049
   47        0.001   0.017   0.000   0.019
   48        0.002   0.039   0.000   0.041
   49        0.002   0.024   0.000   0.025
   50        0.002   0.054   0.000   0.056
   51        0.002   0.039   0.000   0.041
   52        0.002   0.023   0.000   0.025
   53        0.002   0.005   0.000   0.007
   54        0.002   0.033   0.000   0.035
   55        0.003   0.051   0.000   0.054
   56        0.002   0.029   0.000   0.030
   57        0.002   0.026   0.000   0.028
   58        0.002   0.006   0.000   0.008
   59        0.002   0.034   0.000   0.036
   60        0.002   0.035   0.000   0.038
   61        0.003   0.056   0.000   0.059
   62        0.002   0.021   0.000   0.023
   63        0.001   0.024   0.000   0.026
   64        0.002   0.044   0.000   0.047
   65        0.002   0.053   0.000   0.055
   66        0.002   0.020   0.000   0.022
   67        0.002   0.025   0.000   0.027
   68        0.002   0.038   0.000   0.039
   69        0.002   0.047   0.000   0.049
   70        0.002   0.041   0.000   0.044
   71        0.002   0.028   0.000   0.030
   72        0.003   0.049   0.000   0.051
   73        0.002   0.048   0.000   0.050
   74        0.002   0.034   0.000   0.036
   75        0.002   0.045   0.000   0.048
   76        0.002   0.020   0.000   0.022
   77        0.002   0.026   0.000   0.028
   78        0.002   0.047   0.000   0.049
   79        0.002   0.028   0.000   0.030
   80        0.002   0.016   0.000   0.018
   81        0.003   0.044   0.000   0.047
   82        0.002   0.035   0.000   0.037
   83        0.002   0.043   0.000   0.045
   84        0.002   0.050   0.000   0.052
   85        0.002   0.026   0.000   0.027
   86        0.002   0.056   0.000   0.059
   87        0.003   0.041   0.000   0.043
   88        0.002   0.022   0.000   0.024
--------------------------------------------------
tot          0.423   2.100  44.055  46.578
 

 total amount of memory used by VASP MPI-rank0    94426. kBytes
=======================================================================

   base      :      30000. kBytes
   nonlr-proj:      13667. kBytes
   fftplans  :       1275. kBytes
   grid      :      22786. kBytes
   one-center:       2737. kBytes
   wavefun   :      23961. kBytes
 
  
  
 General timing and accounting informations for this job:
 ========================================================
  
                  Total CPU time used (sec):      888.214
                            User time (sec):      879.451
                          System time (sec):        8.763
                         Elapsed time (sec):      906.931
  
                   Maximum memory used (kb):      193980.
                   Average memory used (kb):           0.
  
                          Minor page faults:       307199
                          Major page faults:            0
                 Voluntary context switches:       282288
