 vasp.5.4.4.18Apr17-6-g9f103f2a35 (build Dec 02 2020 12:53:39) complex          
  
 executed on             LinuxIFC date 2021.08.03  08:32:08
 running on   96 total cores
 distrk:  each k-point on   96 cores,    1 groups
 distr:  one band on NCORES_PER_BAND=   1 cores,   96 groups


--------------------------------------------------------------------------------------------------------


 INCAR:
 POTCAR:    PAW_PBE Na_pv 19Sep2006               
 POTCAR:    PAW_PBE Mg_pv 13Apr2007               
 POTCAR:    PAW_PBE Mn_pv 02Aug2007               
 POTCAR:    PAW_PBE O 08Apr2002                   

 ----------------------------------------------------------------------------- 
|                                                                             |
|           W    W    AA    RRRRR   N    N  II  N    N   GGGG   !!!           |
|           W    W   A  A   R    R  NN   N  II  NN   N  G    G  !!!           |
|           W    W  A    A  R    R  N N  N  II  N N  N  G       !!!           |
|           W WW W  AAAAAA  RRRRR   N  N N  II  N  N N  G  GGG   !            |
|           WW  WW  A    A  R   R   N   NN  II  N   NN  G    G                |
|           W    W  A    A  R    R  N    N  II  N    N   GGGG   !!!           |
|                                                                             |
|      For optimal performance we recommend to set                            |
|        NCORE= 4 - approx SQRT( number of cores)                             |
|      NCORE specifies how many cores store one orbital (NPAR=cpu/NCORE).     |
|      This setting can  greatly improve the performance of VASP for DFT.     |
|      The default,   NCORE=1            might be grossly inefficient         |
|      on modern multi-core architectures or massively parallel machines.     |
|      Do your own testing !!!!                                               |
|      Unfortunately you need to use the default for GW and RPA calculations. |
|      (for HF NCORE is supported but not extensively tested yet)             |
|                                                                             |
 ----------------------------------------------------------------------------- 

 POTCAR:    PAW_PBE Na_pv 19Sep2006               
   VRHFIN =Na: p6s1                                                             
   LEXCH  = PE                                                                  
   EATOM  =   766.0439 eV,   56.3026 Ry                                         
                                                                                
   TITEL  = PAW_PBE Na_pv 19Sep2006                                             
   LULTRA =        F    use ultrasoft PP ?                                      
   IUNSCR =        1    unscreen: 0-lin 1-nonlin 2-no                           
   RPACOR =    1.800    partial core radius                                     
   POMASS =   22.990; ZVAL   =    7.000    mass and valenz                      
   RCORE  =    2.200    outmost cutoff radius                                   
   RWIGS  =    2.200; RWIGS  =    1.164    wigner-seitz radius (au A)           
   ENMAX  =  259.561; ENMIN  =  194.671 eV                                      
   ICORE  =        2    local potential                                         
   LCOR   =        T    correct aug charges                                     
   LPAW   =        T    paw PP                                                  
   EAUG   =  368.056                                                            
   DEXC   =    0.000                                                            
   RMAX   =    2.245    core radius for proj-oper                               
   RAUG   =    1.300    factor for augmentation sphere                          
   RDEP   =    2.259    radius for radial grids                                 
   RDEPT  =    1.738    core radius for aug-charge                              
                                                                                
   Atomic configuration                                                         
    5 entries                                                                   
     n  l   j            E        occ.                                          
     1  0  0.50     -1033.6933   2.0000                                         
     2  0  0.50       -56.7526   2.0000                                         
     2  1  1.50       -28.6721   6.0000                                         
     3  0  0.50        -2.7440   1.0000                                         
     3  2  1.50        -1.3606   0.0000                                         
   Description                                                                  
     l       E           TYP  RCUT    TYP  RCUT                                 
     1    -28.6720912     23  2.000                                             
     1      6.8029130     23  2.000                                             
     0     -2.7439560     23  2.200                                             
     0     34.0145650     23  2.200                                             
     2     -1.3605826     23  2.200                                             
  local pseudopotential read in
  partial core-charges read in
  partial kinetic energy density read in
  atomic valenz-charges read in
  non local Contribution for L=           1  read in
    real space projection operators read in
  non local Contribution for L=           1  read in
    real space projection operators read in
  non local Contribution for L=           0  read in
    real space projection operators read in
  non local Contribution for L=           0  read in
    real space projection operators read in
    PAW grid and wavefunctions read in
 
   number of l-projection  operators is LMAX  =           4
   number of lm-projection operators is LMMAX =           8
 
 POTCAR:    PAW_PBE Mg_pv 13Apr2007               
   VRHFIN =Mg: p6s2                                                             
   LEXCH  = PE                                                                  
   EATOM  =  1056.7344 eV,   77.6678 Ry                                         
                                                                                
   TITEL  = PAW_PBE Mg_pv 13Apr2007                                             
   LULTRA =        F    use ultrasoft PP ?                                      
   IUNSCR =        1    unscreen: 0-lin 1-nonlin 2-no                           
   RPACOR =    1.500    partial core radius                                     
   POMASS =   24.305; ZVAL   =    8.000    mass and valenz                      
   RCORE  =    2.000    outmost cutoff radius                                   
   RWIGS  =    2.000; RWIGS  =    1.058    wigner-seitz radius (au A)           
   ENMAX  =  403.929; ENMIN  =  302.947 eV                                      
   RCLOC  =    1.506    cutoff for local pot                                    
   LCOR   =        T    correct aug charges                                     
   LPAW   =        T    paw PP                                                  
   EAUG   =  758.780                                                            
   DEXC   =    0.000                                                            
   RMAX   =    2.045    core radius for proj-oper                               
   RAUG   =    1.300    factor for augmentation sphere                          
   RDEP   =    2.025    radius for radial grids                                 
   RDEPT  =    1.557    core radius for aug-charge                              
                                                                                
   Atomic configuration                                                         
    5 entries                                                                   
     n  l   j            E        occ.                                          
     1  0  0.50     -1259.6230   2.0000                                         
     2  0  0.50       -79.8442   2.0000                                         
     2  1  1.50       -46.6121   6.0000                                         
     3  0  0.50        -4.7055   2.0000                                         
     3  2  1.50        -1.3606   0.0000                                         
   Description                                                                  
     l       E           TYP  RCUT    TYP  RCUT                                 
     1    -46.6121073     23  1.600                                             
     1      2.7211652     23  1.600                                             
     0     -4.7054661     23  2.000                                             
     0     61.2262170     23  2.000                                             
     2     -1.3605826     23  2.000                                             
  local pseudopotential read in
  partial core-charges read in
  partial kinetic energy density read in
  atomic valenz-charges read in
  non local Contribution for L=           1  read in
    real space projection operators read in
  non local Contribution for L=           1  read in
    real space projection operators read in
  non local Contribution for L=           0  read in
    real space projection operators read in
  non local Contribution for L=           0  read in
    real space projection operators read in
  non local Contribution for L=           2  read in
    real space projection operators read in
    PAW grid and wavefunctions read in
 
   number of l-projection  operators is LMAX  =           5
   number of lm-projection operators is LMMAX =          13
 
 POTCAR:    PAW_PBE Mn_pv 02Aug2007               
   VRHFIN =Mn: 3p4s3d                                                           
   LEXCH  = PE                                                                  
   EATOM  =  2025.2664 eV,  148.8529 Ry                                         
                                                                                
   TITEL  = PAW_PBE Mn_pv 02Aug2007                                             
   LULTRA =        F    use ultrasoft PP ?                                      
   IUNSCR =        1    unscreen: 0-lin 1-nonlin 2-no                           
   RPACOR =    2.080    partial core radius                                     
   POMASS =   54.938; ZVAL   =   13.000    mass and valenz                      
   RCORE  =    2.300    outmost cutoff radius                                   
   RWIGS  =    2.500; RWIGS  =    1.323    wigner-seitz radius (au A)           
   ENMAX  =  269.864; ENMIN  =  202.398 eV                                      
   ICORE  =        3    local potential                                         
   LCOR   =        T    correct aug charges                                     
   LPAW   =        T    paw PP                                                  
   EAUG   =  569.085                                                            
   DEXC   =    0.000                                                            
   RMAX   =    2.343    core radius for proj-oper                               
   RAUG   =    1.300    factor for augmentation sphere                          
   RDEP   =    2.338    radius for radial grids                                 
   RDEPT  =    1.798    core radius for aug-charge                              
                                                                                
   Atomic configuration                                                         
    8 entries                                                                   
     n  l   j            E        occ.                                          
     1  0  0.50     -6424.8287   2.0000                                         
     2  0  0.50      -739.1154   2.0000                                         
     2  1  1.50      -625.3949   6.0000                                         
     3  0  0.50       -81.6100   2.0000                                         
     3  1  1.50       -50.4667   6.0000                                         
     3  2  2.50        -3.3745   6.0000                                         
     4  0  0.50        -4.1331   1.0000                                         
     4  3  2.50        -1.3606   0.0000                                         
   Description                                                                  
     l       E           TYP  RCUT    TYP  RCUT                                 
     1    -50.4666628     23  2.000                                             
     1     -1.3605826     23  2.000                                             
     2     -3.3744729     23  2.300                                             
     2     -4.7350555     23  2.300                                             
     0     -4.1331431     23  2.300                                             
     0      7.6656591     23  2.300                                             
     3      9.5240782     23  2.300                                             
  local pseudopotential read in
  partial core-charges read in
  partial kinetic energy density read in
  atomic valenz-charges read in
  non local Contribution for L=           1  read in
    real space projection operators read in
  non local Contribution for L=           1  read in
    real space projection operators read in
  non local Contribution for L=           2  read in
    real space projection operators read in
  non local Contribution for L=           2  read in
    real space projection operators read in
  non local Contribution for L=           0  read in
    real space projection operators read in
  non local Contribution for L=           0  read in
    real space projection operators read in
    PAW grid and wavefunctions read in
 
   number of l-projection  operators is LMAX  =           6
   number of lm-projection operators is LMMAX =          18
 
 POTCAR:    PAW_PBE O 08Apr2002                   
   VRHFIN =O: s2p4                                                              
   LEXCH  = PE                                                                  
   EATOM  =   432.3788 eV,   31.7789 Ry                                         
                                                                                
   TITEL  = PAW_PBE O 08Apr2002                                                 
   LULTRA =        F    use ultrasoft PP ?                                      
   IUNSCR =        1    unscreen: 0-lin 1-nonlin 2-no                           
   RPACOR =    1.200    partial core radius                                     
   POMASS =   16.000; ZVAL   =    6.000    mass and valenz                      
   RCORE  =    1.520    outmost cutoff radius                                   
   RWIGS  =    1.550; RWIGS  =    0.820    wigner-seitz radius (au A)           
   ENMAX  =  400.000; ENMIN  =  300.000 eV                                      
   ICORE  =        2    local potential                                         
   LCOR   =        T    correct aug charges                                     
   LPAW   =        T    paw PP                                                  
   EAUG   =  605.392                                                            
   DEXC   =    0.000                                                            
   RMAX   =    1.553    core radius for proj-oper                               
   RAUG   =    1.300    factor for augmentation sphere                          
   RDEP   =    1.550    radius for radial grids                                 
   RDEPT  =    1.329    core radius for aug-charge                              
                                                                                
   Atomic configuration                                                         
    4 entries                                                                   
     n  l   j            E        occ.                                          
     1  0  0.50      -514.6923   2.0000                                         
     2  0  0.50       -23.9615   2.0000                                         
     2  1  0.50        -9.0305   4.0000                                         
     3  2  1.50        -9.5241   0.0000                                         
   Description                                                                  
     l       E           TYP  RCUT    TYP  RCUT                                 
     0    -23.9615318     23  1.200                                             
     0     -9.5240782     23  1.200                                             
     1     -9.0304911     23  1.520                                             
     1      8.1634956     23  1.520                                             
     2     -9.5240782      7  1.500                                             
  local pseudopotential read in
  partial core-charges read in
  partial kinetic energy density read in
  kinetic energy density of atom read in
  atomic valenz-charges read in
  non local Contribution for L=           0  read in
    real space projection operators read in
  non local Contribution for L=           0  read in
    real space projection operators read in
  non local Contribution for L=           1  read in
    real space projection operators read in
  non local Contribution for L=           1  read in
    real space projection operators read in
    PAW grid and wavefunctions read in
 
   number of l-projection  operators is LMAX  =           4
   number of lm-projection operators is LMMAX =           8
 
 Optimization of the real space projectors (new method)

 maximal supplied QI-value         = 17.01
 optimisation between [QCUT,QGAM] = [ 10.20, 20.41] = [ 29.16,116.64] Ry 
 Optimized for a Real-space Cutoff    1.30 Angstroem

   l    n(q)    QCUT    max X(q) W(low)/X(q) W(high)/X(q)  e(spline) 
   1      7    10.205     4.940    0.23E-03    0.84E-03    0.11E-06
   1      7    10.205     6.253    0.40E-03    0.13E-02    0.18E-06
   0      8    10.205    37.438    0.23E-03    0.37E-03    0.42E-07
   0      8    10.205     9.606    0.16E-03    0.26E-03    0.31E-07
 Optimization of the real space projectors (new method)

 maximal supplied QI-value         = 18.90
 optimisation between [QCUT,QGAM] = [ 10.20, 20.41] = [ 29.16,116.64] Ry 
 Optimized for a Real-space Cutoff    1.26 Angstroem

   l    n(q)    QCUT    max X(q) W(low)/X(q) W(high)/X(q)  e(spline) 
   1      7    10.205     2.974    0.63E-04    0.14E-03    0.13E-06
   1      7    10.205     4.279    0.11E-03    0.45E-03    0.24E-06
   0      8    10.205    16.381    0.44E-03    0.15E-03    0.55E-07
   0      8    10.205     5.611    0.31E-03    0.11E-03    0.40E-07
   2      7    10.205     4.652    0.50E-03    0.47E-03    0.57E-07
 Optimization of the real space projectors (new method)

 maximal supplied QI-value         = 16.25
 optimisation between [QCUT,QGAM] = [ 10.24, 20.48] = [ 29.35,117.42] Ry 
 Optimized for a Real-space Cutoff    1.34 Angstroem

   l    n(q)    QCUT    max X(q) W(low)/X(q) W(high)/X(q)  e(spline) 
   1      8    10.239     3.658    0.23E-03    0.30E-03    0.98E-07
   1      8    10.239     5.612    0.32E-03    0.65E-03    0.21E-06
   2      7    10.239    55.373    0.42E-03    0.45E-03    0.65E-07
   2      7    10.239    50.863    0.43E-03    0.48E-03    0.67E-07
   0      8    10.239    79.536    0.11E-03    0.21E-03    0.56E-07
   0      8    10.239    38.668    0.96E-04    0.19E-03    0.52E-07
 Optimization of the real space projectors (new method)

 maximal supplied QI-value         = 24.76
 optimisation between [QCUT,QGAM] = [ 10.15, 20.30] = [ 28.85,115.39] Ry 
 Optimized for a Real-space Cutoff    1.38 Angstroem

   l    n(q)    QCUT    max X(q) W(low)/X(q) W(high)/X(q)  e(spline) 
   0      8    10.150    20.381    0.22E-03    0.32E-03    0.29E-06
   0      8    10.150    15.268    0.23E-03    0.35E-03    0.30E-06
   1      8    10.150     5.964    0.46E-03    0.53E-03    0.21E-06
   1      8    10.150     5.382    0.38E-03    0.45E-03    0.19E-06
  PAW_PBE Na_pv 19Sep2006               :
 energy of atom  1       EATOM= -766.0439
 kinetic energy error for atom=    0.0103 (will be added to EATOM!!)
  PAW_PBE Mg_pv 13Apr2007               :
 energy of atom  2       EATOM=-1056.7344
 kinetic energy error for atom=    0.0820 (will be added to EATOM!!)
  PAW_PBE Mn_pv 02Aug2007               :
 energy of atom  3       EATOM=-2025.2664
 kinetic energy error for atom=    0.0284 (will be added to EATOM!!)
  PAW_PBE O 08Apr2002                   :
 energy of atom  4       EATOM= -432.3788
 kinetic energy error for atom=    0.1156 (will be added to EATOM!!)
 
 
 POSCAR: Na Mg Mn  O                             
  positions in cartesian coordinates
  No initial velocities read in

 METAGGA = SCAN     LMAXTAU =  6    LMIXTAU =  F

 exchange correlation table for  LEXCH =        8
   RHO(1)=    0.500       N(1)  =     2000
   RHO(2)=  100.500       N(2)  =     4000

 VTST: version 3.2, (02/03/18)

 CHAIN: initializing optimizer
 
 OPT: Using VASP Dynamics algorithm
 CHAIN: Read ICHAIN            0
 
 POSCAR: Na Mg Mn  O                             
  positions in cartesian coordinates
  No initial velocities read in
 


--------------------------------------------------------------------------------------------------------


 ion  position               nearest neighbor table
   1  0.400  0.583  0.242-  78 2.24  87 2.27  79 2.33  38 2.78  40 2.90
   2  0.862  0.124  0.746-  60 2.08  57 2.09  32 2.73  30 2.82
   3  0.047  0.939  0.747-  44 2.30  61 2.33  58 2.37  27 2.85  25 2.94
   4  0.343  0.383  0.733-  45 2.22
   5  0.034  0.439  0.251-  77 2.28  66 2.34  37 2.84  39 2.96
   6  0.697  0.403  0.255-  52 2.36
   7  0.351  0.904  0.749-  49 2.36  47 2.36  81 2.37  46 2.37
   8  0.561  0.241  0.756-  49 2.28  46 2.29
   9  0.522  0.923  0.248-  42 2.25  53 2.37  29 2.91  31 2.96
  10  0.863  0.767  0.242-  54 2.34  67 2.36
  11  0.882  0.103  0.247-  55 2.21  64 2.26  30 2.84  32 2.89
  12  0.552  0.744  0.749-  82 2.31  59 2.32  56 2.33
  13  0.169  0.558  0.758-  73 2.21  83 2.33  70 2.36
  14  0.854  0.573  0.760-  71 2.25  72 2.26  70 2.35  34 2.71  36 2.86
  15  0.195  0.874  0.247-  67 2.25
  16  0.319  0.231  0.254-  50 2.12  41 2.25
  17  0.702  0.240  0.993-  60 1.97  71 2.05  53 2.08  49 2.09  66 2.11  43 2.14  30 2.82  26 2.84

  18  0.688  0.253  0.502-  52 1.96  62 2.01  68 2.01  75 2.02  57 2.07  46 2.08  28 2.80  36 2.83

  19  0.203  0.238  0.003-  61 2.02  41 2.03  83 2.09  78 2.09  48 2.12  55 2.17  33 2.82  25 2.83

  20  0.192  0.257  0.485-  87 1.99  80 2.03  50 2.03  64 2.05  58 2.13  45 2.18
  21  0.193  0.734  0.006-  77 2.00  84 2.02  73 2.02  67 2.04  47 2.05  42 2.11  37 2.80  34 2.82
                            38 2.84  25 2.84
  22  0.184  0.750  0.503-  76 1.99  86 2.01  44 2.03  51 2.06  70 2.09  81 2.10
  23  0.700  0.739  0.994-  79 1.97  65 2.00  54 2.04  72 2.08  85 2.09  59 2.17  34 2.85
  24  0.689  0.751  0.509-  88 1.96  82 2.00  56 2.02  69 2.03  63 2.11  74 2.12
  25  0.044  0.912  0.007-  67 1.88  41 1.93  47 1.94  61 1.98  72 2.01  54 2.01  19 2.83  21 2.84
                            26 2.88  34 2.88   3 2.94  30 3.00
  26  0.375  0.080  0.998-  43 1.87  49 1.89  41 1.94  47 1.94  42 1.94  48 1.96  17 2.84  33 2.87
                            29 2.88  25 2.88
  27  0.030  0.926  0.493-  63 1.90  50 1.93  76 1.94  69 1.94  44 1.95  58 2.03   3 2.85  28 2.91
                            32 2.93  36 3.01
  28  0.366  0.092  0.495-  51 1.85  45 1.87  52 1.90  46 1.94  44 1.99  50 2.01  18 2.80  35 2.85
                            31 2.89  27 2.91
  29  0.534  0.907  0.990-  42 1.88  53 1.92  59 1.92  79 1.93  49 1.93  84 1.97  26 2.88  38 2.89
                             9 2.91  30 2.94
  30  0.873  0.086  0.994-  60 1.86  61 1.86  54 1.91  55 1.98  53 1.99  59 2.02   2 2.82  17 2.82
                            37 2.83  11 2.84  29 2.94  25 3.00
  31  0.530  0.924  0.513-  56 1.87  46 1.89  62 1.92  88 1.94  81 1.98  51 2.01  32 2.84  28 2.89
                            40 2.89   9 2.96
  32  0.857  0.091  0.504-  62 1.81  57 1.84  64 1.86  58 1.91  63 1.98  56 2.00   2 2.73  31 2.84
                            39 2.86  11 2.89  27 2.93
  33  0.528  0.410  0.995-  85 1.88  78 1.91  65 1.91  71 1.95  48 1.95  43 1.99  19 2.82  26 2.87
                            38 2.89  34 2.95
  34  0.869  0.580  0.001-  72 1.83  65 1.90  66 1.91  71 1.92  67 1.96  73 1.97  14 2.71  21 2.82
                            23 2.85  25 2.88  37 2.88  33 2.95
  35  0.521  0.421  0.497-  45 1.91  87 1.91  52 1.91  74 1.93  82 1.95  68 1.99  28 2.85  36 2.85
                            40 2.93
  36  0.850  0.580  0.505-  74 1.88  69 1.89  68 1.92  75 1.95  76 2.03  70 2.03  18 2.83  35 2.85
                            14 2.86  39 2.88  27 3.01
  37  0.033  0.412  0.999-  73 1.87  83 1.91  55 1.91  77 1.97  60 2.00  66 2.06  21 2.80  30 2.83
                            38 2.84   5 2.84  34 2.88
  38  0.360  0.574  0.996-  84 1.88  83 1.88  77 1.94  79 1.95  78 1.97  85 1.98   1 2.78  21 2.84
                            37 2.84  29 2.89  33 2.89
  39  0.021  0.420  0.514-  75 1.86  57 1.89  70 1.89  80 1.92  86 1.97  64 2.02  32 2.86  36 2.88
                            40 2.90   5 2.96
  40  0.354  0.591  0.497-  86 1.82  80 1.87  81 1.89  88 1.91  82 1.95  87 1.95  31 2.89  39 2.90
                             1 2.90  35 2.93
  41  0.213  0.070  0.098-  25 1.93  26 1.94  19 2.03  16 2.25
  42  0.388  0.920  0.087-  29 1.88  26 1.94  21 2.11   9 2.25
  43  0.520  0.240  0.093-  26 1.87  33 1.99  17 2.14
  44  0.194  0.933  0.592-  27 1.95  28 1.99  22 2.03   3 2.30
  45  0.373  0.250  0.588-  28 1.87  35 1.91  20 2.18   4 2.22
  46  0.512  0.076  0.599-  31 1.89  28 1.94  18 2.08   8 2.29   7 2.37
  47  0.206  0.915  0.911-  26 1.94  25 1.94  21 2.05   7 2.36
  48  0.379  0.240  0.897-  33 1.95  26 1.96  19 2.12
  49  0.519  0.063  0.900-  26 1.89  29 1.93  17 2.09   8 2.28   7 2.36
  50  0.194  0.081  0.396-  27 1.93  28 2.01  20 2.03  16 2.12
  51  0.365  0.930  0.416-  28 1.85  31 2.01  22 2.06
  52  0.525  0.259  0.409-  28 1.90  35 1.91  18 1.96   6 2.36
  53  0.694  0.059  0.090-  29 1.92  30 1.99  17 2.08   9 2.37
  54  0.868  0.922  0.085-  30 1.91  25 2.01  23 2.04  10 2.34
  55  0.023  0.253  0.099-  37 1.91  30 1.98  19 2.17  11 2.21
  56  0.689  0.925  0.601-  31 1.87  32 2.00  24 2.02  12 2.33
  57  0.863  0.247  0.594-  32 1.84  39 1.89  18 2.07   2 2.09
  58  0.015  0.085  0.595-  32 1.91  27 2.03  20 2.13   3 2.37
  59  0.700  0.924  0.893-  29 1.92  30 2.02  23 2.17  12 2.32
  60  0.870  0.239  0.902-  30 1.86  17 1.97  37 2.00   2 2.08
  61  0.025  0.068  0.913-  30 1.86  25 1.98  19 2.02   3 2.33
  62  0.697  0.079  0.421-  32 1.81  31 1.92  18 2.01
  63  0.867  0.929  0.409-  27 1.90  32 1.98  24 2.11
  64  0.002  0.248  0.408-  32 1.86  39 2.02  20 2.05  11 2.26
  65  0.697  0.565  0.084-  34 1.90  33 1.91  23 2.00
  66  0.867  0.423  0.099-  34 1.91  37 2.06  17 2.11   5 2.34
  67  0.025  0.746  0.100-  25 1.88  34 1.96  21 2.04  15 2.25  10 2.36
  68  0.685  0.421  0.598-  36 1.92  35 1.99  18 2.01
  69  0.875  0.756  0.587-  36 1.89  27 1.94  24 2.03
  70  0.014  0.573  0.607-  39 1.89  36 2.03  22 2.09  14 2.35  13 2.36
  71  0.703  0.422  0.909-  34 1.92  33 1.95  17 2.05  14 2.25
  72  0.884  0.737  0.909-  34 1.83  25 2.01  23 2.08  14 2.26
  73  0.026  0.564  0.907-  37 1.87  34 1.97  21 2.02  13 2.21
  74  0.695  0.575  0.408-  36 1.88  35 1.93  24 2.12
  75  0.873  0.424  0.417-  39 1.86  36 1.95  18 2.02
  76  0.017  0.752  0.407-  27 1.94  22 1.99  36 2.03
  77  0.201  0.567  0.098-  38 1.94  37 1.97  21 2.00   5 2.28
  78  0.382  0.423  0.095-  33 1.91  38 1.97  19 2.09   1 2.24
  79  0.531  0.742  0.081-  29 1.93  38 1.95  23 1.97   1 2.33
  80  0.200  0.429  0.585-  40 1.87  39 1.92  20 2.03
  81  0.362  0.746  0.597-  40 1.89  31 1.98  22 2.10   7 2.37
  82  0.509  0.577  0.592-  40 1.95  35 1.95  24 2.00  12 2.31
  83  0.197  0.415  0.910-  38 1.88  37 1.91  19 2.09  13 2.33
  84  0.361  0.733  0.907-  38 1.88  29 1.97  21 2.02
  85  0.518  0.559  0.901-  33 1.88  38 1.98  23 2.09
  86  0.190  0.578  0.417-  40 1.82  39 1.97  22 2.01
  87  0.368  0.434  0.404-  35 1.91  40 1.95  20 1.99   1 2.27
  88  0.526  0.759  0.419-  40 1.91  31 1.94  24 1.96
 
  LATTYP: Found a hexagonal cell.
 ALAT       =    10.0190000534
 C/A-ratio  =     1.1196726572
  
  Lattice vectors:
  
 A1 = (  10.0190000534,   0.0000000000,   0.0000000000)
 A2 = (  -5.0095000267,   8.6767085668,   0.0000000000)
 A3 = (   0.0000000000,   0.0000000000,  11.2180004120)


Analysis of symmetry for initial positions (statically):
=====================================================================
 Subroutine PRICEL returns:
 Original cell was already a primitive cell.
 

 Routine SETGRP: Setting up the symmetry group for a 
 hexagonal supercell.


 Subroutine GETGRP returns: Found  1 space group operations
 (whereof  1 operations were pure point group operations)
 out of a pool of 24 trial point group operations.


The static configuration has the point symmetry C_1 .


Analysis of symmetry for dynamics (positions and initial velocities):
=====================================================================
 Subroutine PRICEL returns:
 Original cell was already a primitive cell.
 

 Routine SETGRP: Setting up the symmetry group for a 
 hexagonal supercell.


 Subroutine GETGRP returns: Found  1 space group operations
 (whereof  1 operations were pure point group operations)
 out of a pool of 24 trial point group operations.


The dynamic configuration has the point symmetry C_1 .


Analysis of structural, dynamic, and magnetic symmetry:
=====================================================================
 Subroutine PRICEL returns:
 Original cell was already a primitive cell.
 

 Routine SETGRP: Setting up the symmetry group for a 
 hexagonal supercell.


 Subroutine GETGRP returns: Found  1 space group operations
 (whereof  1 operations were pure point group operations)
 out of a pool of 24 trial point group operations.


The magnetic configuration has the point symmetry C_1 .


 Subroutine INISYM returns: Found  1 space group operations
 (whereof  1 operations are pure point group operations),
 and found     1 'primitive' translations

 
 

Automatic generation of k-mesh.
 generate k-points for:    2    2    2
Space group operators:
 irot       det(A)        alpha          n_x          n_y          n_z        tau_x        tau_y        tau_z
    1     1.000000     0.000000     1.000000     0.000000     0.000000     0.000000     0.000000     0.000000
 
 Subroutine IBZKPT returns following result:
 ===========================================
 
 Found      8 irreducible k-points:
 
 Following reciprocal coordinates:
            Coordinates               Weight
  0.000000  0.000000  0.000000      1.000000
  0.500000 -0.000000 -0.000000      1.000000
  0.000000  0.500000  0.000000      1.000000
  0.500000  0.500000 -0.000000      1.000000
  0.000000  0.000000  0.500000      1.000000
  0.500000 -0.000000  0.500000      1.000000
  0.000000  0.500000  0.500000      1.000000
  0.500000  0.500000  0.500000      1.000000
 
 Following cartesian coordinates:
            Coordinates               Weight
  0.000000  0.000000  0.000000      1.000000
  0.049905  0.028813 -0.000000      1.000000
  0.000000  0.057626  0.000000      1.000000
  0.049905  0.086438 -0.000000      1.000000
  0.000000  0.000000  0.044571      1.000000
  0.049905  0.028813  0.044571      1.000000
  0.000000  0.057626  0.044571      1.000000
  0.049905  0.086438  0.044571      1.000000
 


--------------------------------------------------------------------------------------------------------




 Dimension of arrays:
   k-points           NKPTS =      8   k-points in BZ     NKDIM =      8   number of bands    NBANDS=    480
   number of dos      NEDOS =    301   number of ions     NIONS =     88
   non local maximal  LDIM  =      6   non local SUM 2l+1 LMDIM =     18
   total plane-waves  NPLWV = 140000
   max r-space proj   IRMAX =   1632   max aug-charges    IRDMAX=   4555
   dimension x,y,z NGX =    50 NGY =   50 NGZ =   56
   dimension x,y,z NGXF=   100 NGYF=  100 NGZF=  112
   support grid    NGXF=   100 NGYF=  100 NGZF=  112
   ions per type =              16   8  16  48
   NGX,Y,Z   is equivalent  to a cutoff of   8.30,  8.30,  8.30 a.u.
   NGXF,Y,Z  is equivalent  to a cutoff of  16.59, 16.59, 16.60 a.u.

 SYSTEM =  unknown system                          
 POSCAR =  Na Mg Mn  O                             

 Startparameter for this run:
   NWRITE =      2    write-flag & timer
   PREC   = normal    normal or accurate (medium, high low for compatibility)
   ISTART =      0    job   : 0-new  1-cont  2-samecut
   ICHARG =      1    charge: 1-file 2-atom 10-const
   ISPIN  =      2    spin polarized calculation?
   LNONCOLLINEAR =      F non collinear calculations
   LSORBIT =      F    spin-orbit coupling
   INIWAV =      1    electr: 0-lowe 1-rand  2-diag
   LASPH  =      T    aspherical Exc in radial PAW
   METAGGA=      F    non-selfconsistent MetaGGA calc.

 Electronic Relaxation 1
   ENCUT  =  400.0 eV  29.40 Ry    5.42 a.u.  16.34 16.34 18.29*2*pi/ulx,y,z
   ENINI  =  400.0     initial cutoff
   ENAUG  =  758.8 eV  augmentation charge cutoff
   NELM   =    200;   NELMIN=  6; NELMDL=-12     # of ELM steps 
   EDIFF  = 0.1E-04   stopping-criterion for ELM
   LREAL  =      T    real-space projection
   NLSPLINE    = F    spline interpolate recip. space projectors
   LCOMPAT=      F    compatible to vasp.4.4
   GGA_COMPAT  = T    GGA compatible to vasp.4.4-vasp.4.6
   LMAXPAW     = -100 max onsite density
   LMAXMIX     =    4 max onsite mixed and CHGCAR
   VOSKOWN=      0    Vosko Wilk Nusair interpolation
   ROPT   =   -0.00050  -0.00050  -0.00050  -0.00050
 Ionic relaxation
   EDIFFG = 0.1E-03   stopping-criterion for IOM
   NSW    =      1    number of steps for IOM
   NBLOCK =      1;   KBLOCK =      1    inner block; outer block 
   IBRION =     -1    ionic relax: 0-MD 1-quasi-New 2-CG
   NFREE  =      0    steps in history (QN), initial steepest desc. (CG)
   ISIF   =      2    stress and relaxation
   IWAVPR =     10    prediction:  0-non 1-charg 2-wave 3-comb
   ISYM   =      2    0-nonsym 1-usesym 2-fastsym
   LCORR  =      T    Harris-Foulkes like correction to forces

   POTIM  = 0.5000    time-step for ionic-motion
   TEIN   =    0.0    initial temperature
   TEBEG  =    0.0;   TEEND  =   0.0 temperature during run
   SMASS  =  -3.00    Nose mass-parameter (am)
   estimated Nose-frequenzy (Omega)   =  0.10E-29 period in steps =****** mass=  -0.229E-26a.u.
   SCALEE = 1.0000    scale energy and forces
   NPACO  =    256;   APACO  = 16.0  distance and # of slots for P.C.
   PSTRESS=    0.0 pullay stress

  Mass of Ions in am
   POMASS =  22.99 24.30 54.94 16.00
  Ionic Valenz
   ZVAL   =   7.00  8.00 13.00  6.00
  Atomic Wigner-Seitz radii
   RWIGS  =  -1.00 -1.00 -1.00 -1.00
  virtual crystal weights 
   VCA    =   1.00  1.00  1.00  1.00
   NELECT =     672.0000    total number of electrons
   NUPDOWN=      48.0000    fix difference up-down

 DOS related values:
   EMIN   =  10.00;   EMAX   =-10.00  energy-range for DOS
   EFERMI =   0.00
   ISMEAR =     0;   SIGMA  =   0.05  broadening in eV -4-tet -1-fermi 0-gaus

 Electronic relaxation 2 (details)
   IALGO  =     48    algorithm
   LDIAG  =      T    sub-space diagonalisation (order eigenvalues)
   LSUBROT=      F    optimize rotation matrix (better conditioning)
   TURBO    =      0    0=normal 1=particle mesh
   IRESTART =      0    0=no restart 2=restart with 2 vectors
   NREBOOT  =      0    no. of reboots
   NMIN     =      0    reboot dimension
   EREF     =   0.00    reference energy to select bands
   IMIX   =      4    mixing-type and parameters
     AMIX     =   0.40;   BMIX     =  1.00
     AMIX_MAG =   1.60;   BMIX_MAG =  1.00
     AMIN     =   0.10
     WC   =   100.;   INIMIX=   1;  MIXPRE=   1;  MAXMIX= -45

 Intra band minimization:
   WEIMIN = 0.0000     energy-eigenvalue tresh-hold
   EBREAK =  0.52E-08  absolut break condition
   DEPER  =   0.30     relativ break condition  

   TIME   =   0.40     timestep for ELM

  volume/ion in A,a.u.               =      11.08        74.78
  Fermi-wavevector in a.u.,A,eV,Ry     =   1.445993  2.732531 28.448379  2.090897
  Thomas-Fermi vector in A             =   2.564112
 
 Write flags
   LWAVE        =      F    write WAVECAR
   LDOWNSAMPLE  =      F    k-point downsampling of WAVECAR
   LCHARG       =      F    write CHGCAR
   LVTOT        =      F    write LOCPOT, total local potential
   LVHAR        =      F    write LOCPOT, Hartree potential only
   LELF         =      F    write electronic localiz. function (ELF)
   LORBIT       =     11    0 simple, 1 ext, 2 COOP (PROOUT), +10 PAW based schemes


 Dipole corrections
   LMONO  =      F    monopole corrections only (constant potential shift)
   LDIPOL =      F    correct potential (dipole corrections)
   IDIPOL =      0    1-x, 2-y, 3-z, 4-all directions 
   EPSILON=  1.0000000 bulk dielectric constant

 Exchange correlation treatment:
   GGA     =    --    GGA type
   LEXCH   =     8    internal setting for exchange type
   VOSKOWN=      0    Vosko Wilk Nusair interpolation
   LHFCALC =     F    Hartree Fock is set to
   LHFONE  =     F    Hartree Fock one center treatment
   AEXX    =    0.0000 exact exchange contribution

 Linear response parameters
   LEPSILON=     F    determine dielectric tensor
   LRPA    =     F    only Hartree local field effects (RPA)
   LNABLA  =     F    use nabla operator in PAW spheres
   LVEL    =     F    velocity operator in full k-point grid
   LINTERFAST=   F  fast interpolation
   KINTER  =     0    interpolate to denser k-point grid
   CSHIFT  =0.1000    complex shift for real part using Kramers Kronig
   OMEGAMAX=  -1.0    maximum frequency
   DEG_THRESHOLD= 0.2000000E-02 threshold for treating states as degnerate
   RTIME   =   -0.100 relaxation time in fs
  (WPLASMAI=    0.000 imaginary part of plasma frequency in eV, 0.658/RTIME)
   DFIELD  = 0.0000000 0.0000000 0.0000000 field for delta impulse in time
 
 Orbital magnetization related:
   ORBITALMAG=     F  switch on orbital magnetization
   LCHIMAG   =     F  perturbation theory with respect to B field
   DQ        =  0.001000  dq finite difference perturbation B field
   LLRAUG    =     F  two centre corrections for induced B field



--------------------------------------------------------------------------------------------------------


 Static calculation
 charge density and potential will be updated during run
 spin polarized calculation
 RMM-DIIS sequential band-by-band
 perform sub-space diagonalisation
    before iterative eigenvector-optimisation
 modified Broyden-mixing scheme, WC =      100.0
 initial mixing is a Kerker type mixing with AMIX =  0.4000 and BMIX =      1.0000
 Hartree-type preconditioning will be used
 using additional bands          144
 real space projection scheme for non local part
 use partial core corrections
 calculate Harris-corrections to forces 
   (improved forces if not selfconsistent)
 use gradient corrections 
 use of overlap-Matrix (Vanderbilt PP)
 Gauss-broadening in eV      SIGMA  =   0.05


--------------------------------------------------------------------------------------------------------


  energy-cutoff  :      400.00
  volume of cell :      975.20
      direct lattice vectors                 reciprocal lattice vectors
    10.019000053  0.000000000  0.000000000     0.099810360  0.057625538 -0.000000000
    -5.009500027  8.676708567  0.000000000     0.000000000  0.115251076  0.000000000
     0.000000000  0.000000000 11.218000412     0.000000000  0.000000000  0.089142446

  length of vectors
    10.019000053 10.019000053 11.218000412     0.115251076  0.115251076  0.089142446


 
 k-points in units of 2pi/SCALE and weight: read from INCAR                         
   0.00000000  0.00000000  0.00000000       0.125
   0.04990518  0.02881277 -0.00000000       0.125
   0.00000000  0.05762554  0.00000000       0.125
   0.04990518  0.08643831 -0.00000000       0.125
   0.00000000  0.00000000  0.04457122       0.125
   0.04990518  0.02881277  0.04457122       0.125
   0.00000000  0.05762554  0.04457122       0.125
   0.04990518  0.08643831  0.04457122       0.125
 
 k-points in reciprocal lattice and weights: read from INCAR                         
   0.00000000  0.00000000  0.00000000       0.125
   0.50000000 -0.00000000 -0.00000000       0.125
   0.00000000  0.50000000  0.00000000       0.125
   0.50000000  0.50000000 -0.00000000       0.125
   0.00000000  0.00000000  0.50000000       0.125
   0.50000000 -0.00000000  0.50000000       0.125
   0.00000000  0.50000000  0.50000000       0.125
   0.50000000  0.50000000  0.50000000       0.125
 
 position of ions in fractional coordinates (direct lattice) 
   0.39975333  0.58268063  0.24197895
   0.86160590  0.12415801  0.74586287
   0.04704805  0.93935011  0.74682115
   0.34280356  0.38306198  0.73327061
   0.03439516  0.43928639  0.25103315
   0.69685806  0.40337778  0.25501871
   0.35059372  0.90440137  0.74856834
   0.56149374  0.24097370  0.75604829
   0.52244695  0.92292963  0.24835442
   0.86292423  0.76683061  0.24195667
   0.88162044  0.10321491  0.24653146
   0.55220298  0.74402868  0.74865303
   0.16889902  0.55837895  0.75827328
   0.85367998  0.57335451  0.76011853
   0.19466941  0.87409775  0.24673649
   0.31916196  0.23085811  0.25431983
   0.70190755  0.24017402  0.99324249
   0.68823326  0.25324465  0.50152253
   0.20319899  0.23781829  0.00339651
   0.19165423  0.25659961  0.48532803
   0.19303242  0.73399377  0.00603491
   0.18356890  0.75049542  0.50340790
   0.69973361  0.73909593  0.99391245
   0.68940743  0.75084002  0.50934033
   0.04359988  0.91154151  0.00748467
   0.37509510  0.07966419  0.99836154
   0.03039777  0.92629710  0.49333480
   0.36597047  0.09217251  0.49516311
   0.53374399  0.90687614  0.99022104
   0.87263782  0.08594837  0.99395611
   0.53033734  0.92401513  0.51257531
   0.85706962  0.09063990  0.50380369
   0.52839787  0.40962537  0.99500363
   0.86874318  0.57991576  0.00118212
   0.52126626  0.42060419  0.49706898
   0.84968386  0.57961725  0.50499820
   0.03263846  0.41166878  0.99881819
   0.35978446  0.57423964  0.99612109
   0.02077999  0.41956578  0.51407557
   0.35420981  0.59120114  0.49669815
   0.21287421  0.06987857  0.09838206
   0.38784488  0.91999558  0.08681093
   0.51977945  0.23967268  0.09340167
   0.19399861  0.93259449  0.59163574
   0.37293902  0.24993233  0.58827775
   0.51192835  0.07630705  0.59873505
   0.20603246  0.91501731  0.91088426
   0.37911822  0.24013484  0.89652341
   0.51910976  0.06312820  0.89991082
   0.19369313  0.08082673  0.39646460
   0.36529613  0.93011117  0.41558030
   0.52545406  0.25921235  0.40937331
   0.69363662  0.05871351  0.08986985
   0.86783313  0.92207010  0.08476190
   0.02285594  0.25283435  0.09895614
   0.68912527  0.92456656  0.60066320
   0.86286708  0.24652666  0.59424672
   0.01537733  0.08534296  0.59519877
   0.70004953  0.92442883  0.89296663
   0.86969988  0.23920015  0.90211264
   0.02475507  0.06759579  0.91256905
   0.69737276  0.07907330  0.42059456
   0.86725621  0.92912866  0.40902209
   0.00158157  0.24812174  0.40824744
   0.69696067  0.56544944  0.08397842
   0.86673717  0.42308209  0.09885452
   0.02512475  0.74603750  0.09950526
   0.68500407  0.42119889  0.59760472
   0.87460654  0.75601018  0.58671864
   0.01364022  0.57347668  0.60711355
   0.70286874  0.42223615  0.90892313
   0.88395674  0.73742940  0.90926187
   0.02649737  0.56413558  0.90656977
   0.69500935  0.57492538  0.40789177
   0.87321680  0.42448931  0.41698786
   0.01727500  0.75171938  0.40720002
   0.20087706  0.56731535  0.09841683
   0.38166991  0.42338174  0.09515600
   0.53075357  0.74213395  0.08083250
   0.19976445  0.42904403  0.58513726
   0.36244511  0.74624265  0.59718219
   0.50910835  0.57735833  0.59191476
   0.19669689  0.41475520  0.91016221
   0.36058903  0.73343941  0.90659651
   0.51822767  0.55938378  0.90136385
   0.18972012  0.57817085  0.41724816
   0.36849860  0.43357570  0.40413530
   0.52633741  0.75890298  0.41938312
 
 position of ions in cartesian coordinates  (Angst):
   1.08619005  5.05575000  2.71452000
   8.01046005  1.07728287  8.36709000
  -4.23429995  8.15046713  8.37784000
   1.51559995  3.32371713  8.22583000
  -1.85600005  3.81156000  2.81609000
   4.96109992  3.49999143  2.86080000
  -1.01800021  7.84722713  8.39744000
   4.41844803  2.09085857  8.48135000
   0.61098003  8.00799143  2.78604000
   4.80419995  6.65356573  2.71427000
   8.31590011  0.89556573  2.76559000
   1.80531005  6.45572000  8.39839000
  -1.10500008  4.84489143  8.50631000
   5.68080037  4.97483000  8.52701000
  -2.42839987  7.58429143  2.76789000
   2.04119992  2.00308857  2.85296000
   5.82926000  2.08392000 11.14219471
   5.62678000  2.19733000  5.62608000
   0.84450000  2.06348000  0.03810200
   0.63474800  2.22644000  5.44441000
  -1.74295000  6.36865000  0.06769959
  -1.92043000  6.51183000  5.64723000
   3.30813000  6.41292000 11.14971031
   3.14584000  6.51482000  5.71378000
  -4.12954005  7.90918000  0.08396300
   3.35900000  0.69122300 11.19962021
  -4.33573005  8.03721000  5.53423000
   3.20492000  0.79975400  5.55474000
   0.80458500  7.86870000 11.10830000
   8.31240000  0.74574900 11.15020000
   0.68459600  8.01741000  5.75007000
   8.13292000  0.78645600  5.65167000
   3.24200000  3.55420000 11.16195111
   5.79885000  5.03176000  0.01326100
   3.11555000  3.64946000  5.57612000
   5.60939000  5.02917000  5.66507000
  -1.73525005  3.57193000 11.20474291
   0.72802700  4.98251000 11.17448681
  -1.89362005  3.64045000  5.76690000
   0.58720600  5.12968000  5.57196000
   1.78273000  0.60631600  1.10365000
  -0.72290003  7.98253357  0.97384500
   4.00703000  2.07957000  1.04778000
  -2.72816003  8.09185057  6.63697000
   2.48444000  2.16859000  6.59930000
   4.74675000  0.66209400  6.71661000
  -2.51954003  7.93933857 10.21830000
   2.59543000  2.08358000 10.05720000
   4.88472000  0.54774500 10.09520000
   1.53571000  0.70131000  4.44754000
  -0.99949003  8.07030357  4.66198000
   3.96600000  2.24911000  4.59235000
   6.65542000  0.50944000  1.00816000
   4.07570997  8.00053357  0.95085900
  -1.03758005  2.19377000  1.11009000
   2.27272997  8.02219457  6.73824000
   7.41009000  2.13904000  6.66626000
  -0.27346005  0.74049600  6.67694000
   2.38286997  8.02099957 10.01730000
   7.51525000  2.07547000 10.11990000
  -0.09060005  0.58650900 10.23720000
   6.59086000  0.68609600  4.71823000
   4.03456997  8.06177857  4.58841000
  -1.22712005  2.15288000  4.57972000
   4.15023000  4.90624000  0.94207000
   6.56441000  3.67096000  1.10895000
  -3.48555005  6.47315000  1.11625000
   4.75306000  3.65462000  6.70393000
   4.97545000  6.55968000  6.58181000
  -2.73617005  4.97589000  6.81060000
   4.92685000  3.66362000 10.19630000
   5.16221000  6.39846000 10.20010000
  -2.56056005  4.89484000 10.16990000
   4.08321000  4.98846000  4.57573000
   6.62228000  3.68317000  4.67777000
  -3.59266005  6.52245000  4.56797000
  -0.82937900  4.92243000  1.10404000
   1.70302000  3.67356000  1.06746000
   1.59990000  6.43928000  0.90677900
  -0.14785600  3.72269000  6.56407000
  -0.10696500  6.47493000  6.69919000
   2.20848000  5.00957000  6.64010000
  -0.10701000  3.59871000 10.21020000
  -0.06142320  6.36384000 10.17020000
   2.38989000  4.85361000 10.11150000
  -0.99554100  5.01662000  4.68069000
   1.51999000  3.76201000  4.53359000
   1.47165000  6.58478000  4.70464000
 


--------------------------------------------------------------------------------------------------------


 k-point  1 :   0.0000 0.0000 0.0000  plane waves:   17725
 k-point  2 :   0.5000-0.0000-0.0000  plane waves:   17736
 k-point  3 :   0.0000 0.5000 0.0000  plane waves:   17736
 k-point  4 :   0.5000 0.5000-0.0000  plane waves:   17736
 k-point  5 :   0.0000 0.0000 0.5000  plane waves:   17676
 k-point  6 :   0.5000-0.0000 0.5000  plane waves:   17700
 k-point  7 :   0.0000 0.5000 0.5000  plane waves:   17700
 k-point  8 :   0.5000 0.5000 0.5000  plane waves:   17700

 maximum and minimum number of plane-waves per node :     17736    17676

 maximum number of plane-waves:     17736
 maximum index in each direction: 
   IXMAX=   16   IYMAX=   16   IZMAX=   18
   IXMIN=  -16   IYMIN=  -16   IZMIN=  -18


 serial   3D FFT for wavefunctions
 parallel 3D FFT for charge:
    minimum data exchange during FFTs selected (reduces bandwidth)


 total amount of memory used by VASP MPI-rank0    94427. kBytes
=======================================================================

   base      :      30000. kBytes
   nonlr-proj:      13668. kBytes
   fftplans  :       1275. kBytes
   grid      :      22786. kBytes
   one-center:       2737. kBytes
   wavefun   :      23961. kBytes
 
     INWAV:  cpu time    0.0000: real time    0.0001
 Broyden mixing: mesh for mixing (old mesh)
   NGX = 33   NGY = 33   NGZ = 37
  (NGX  =100   NGY  =100   NGZ  =112)
  gives a total of  40293 points

 initial charge density was supplied:
 charge density of overlapping atoms calculated
 number of electron     672.0000000 magnetization      48.0000000
 keeping initial charge density in first step


--------------------------------------------------------------------------------------------------------


 Maximum index for non-local projection operator         1548
 Maximum index for augmentation-charges          473 (set IRDMAX)


--------------------------------------------------------------------------------------------------------


 First call to EWALD:  gamma=   0.179
 Maximum number of real-space cells 3x 3x 2
 Maximum number of reciprocal cells 3x 3x 3

    FEWALD:  cpu time    0.0027: real time    0.0027


--------------------------------------- Iteration      1(   1)  ---------------------------------------


    POTLOK:  cpu time    0.1934: real time    0.1943
    SETDIJ:  cpu time    4.6610: real time    4.6617
    EDDIAG:  cpu time    4.4887: real time    4.8802
  RMM-DIIS:  cpu time    9.0502: real time    9.0919
    ORTHCH:  cpu time    1.1762: real time    1.2556
       DOS:  cpu time    0.0020: real time    0.0021
    --------------------------------------------
      LOOP:  cpu time   19.5715: real time   20.0859

 eigenvalue-minimisations  :  7680
 total energy-change (2. order) : 0.1596378E+04  (-0.3497383E+05)
 number of electron     672.0000000 magnetization      48.0000000
 augmentation part      672.0000000 magnetization      48.0000000

 Free energy of the ion-electron system (eV)
  ---------------------------------------------------
  alpha Z        PSCENC =      2652.81237852
  Ewald energy   TEWEN  =    -41821.36001609
  -Hartree energ DENC   =    -25789.82248163
  -exchange      EXHF   =         0.00000000
  -V(xc)+E(xc)   XCENC  =      3605.96425065
  PAW double counting   =     55594.23204139   -59034.67079123
  entropy T*S    EENTRO =        -0.04922457
  eigenvalues    EBANDS =     -7472.92643370
  atomic energy  EATOM  =     73862.19814772
  Solvation  Ediel_sol  =         0.00000000
  ---------------------------------------------------
  free energy    TOTEN  =      1596.37787107 eV

  energy without entropy =     1596.42709563  energy(sigma->0) =     1596.40248335


--------------------------------------------------------------------------------------------------------




--------------------------------------- Iteration      1(   2)  ---------------------------------------


    EDDIAG:  cpu time    4.4130: real time    4.8071
  RMM-DIIS:  cpu time    9.0710: real time    9.0893
    ORTHCH:  cpu time    1.1761: real time    1.2547
       DOS:  cpu time    0.0020: real time    0.0020
    --------------------------------------------
      LOOP:  cpu time   14.6621: real time   15.1531

 eigenvalue-minimisations  :  7680
 total energy-change (2. order) :-0.2332808E+04  (-0.8040029E+04)
 number of electron     672.0000000 magnetization      48.0000000
 augmentation part      672.0000000 magnetization      48.0000000

 Free energy of the ion-electron system (eV)
  ---------------------------------------------------
  alpha Z        PSCENC =      2652.81237852
  Ewald energy   TEWEN  =    -41821.36001609
  -Hartree energ DENC   =    -25789.82248163
  -exchange      EXHF   =         0.00000000
  -V(xc)+E(xc)   XCENC  =      3605.96425065
  PAW double counting   =     55594.23204139   -59034.67079123
  entropy T*S    EENTRO =        -0.03859435
  eigenvalues    EBANDS =     -9805.74518599
  atomic energy  EATOM  =     73862.19814772
  Solvation  Ediel_sol  =         0.00000000
  ---------------------------------------------------
  free energy    TOTEN  =      -736.43025100 eV

  energy without entropy =     -736.39165665  energy(sigma->0) =     -736.41095383


--------------------------------------------------------------------------------------------------------




--------------------------------------- Iteration      1(   3)  ---------------------------------------


    EDDIAG:  cpu time    4.4424: real time    4.8482
  RMM-DIIS:  cpu time    9.0571: real time    9.0761
    ORTHCH:  cpu time    1.1755: real time    1.2556
       DOS:  cpu time    0.0020: real time    0.0020
    --------------------------------------------
      LOOP:  cpu time   14.6770: real time   15.1818

 eigenvalue-minimisations  :  7680
 total energy-change (2. order) : 0.8960495E+02  (-0.1418773E+04)
 number of electron     672.0000000 magnetization      48.0000000
 augmentation part      672.0000000 magnetization      48.0000000

 Free energy of the ion-electron system (eV)
  ---------------------------------------------------
  alpha Z        PSCENC =      2652.81237852
  Ewald energy   TEWEN  =    -41821.36001609
  -Hartree energ DENC   =    -25789.82248163
  -exchange      EXHF   =         0.00000000
  -V(xc)+E(xc)   XCENC  =      3605.96425065
  PAW double counting   =     55594.23204139   -59034.67079123
  entropy T*S    EENTRO =        -0.04247506
  eigenvalues    EBANDS =     -9716.13635464
  atomic energy  EATOM  =     73862.19814772
  Solvation  Ediel_sol  =         0.00000000
  ---------------------------------------------------
  free energy    TOTEN  =      -646.82530037 eV

  energy without entropy =     -646.78282531  energy(sigma->0) =     -646.80406284


--------------------------------------------------------------------------------------------------------




--------------------------------------- Iteration      1(   4)  ---------------------------------------


    EDDIAG:  cpu time    4.4153: real time    4.8155
  RMM-DIIS:  cpu time    9.0789: real time    9.0858
    ORTHCH:  cpu time    1.1768: real time    1.2583
       DOS:  cpu time    0.0013: real time    0.0013
    --------------------------------------------
      LOOP:  cpu time   14.6723: real time   15.1609

 eigenvalue-minimisations  :  7680
 total energy-change (2. order) :-0.4654025E+03  (-0.4286176E+03)
 number of electron     672.0000000 magnetization      48.0000000
 augmentation part      672.0000000 magnetization      48.0000000

 Free energy of the ion-electron system (eV)
  ---------------------------------------------------
  alpha Z        PSCENC =      2652.81237852
  Ewald energy   TEWEN  =    -41821.36001609
  -Hartree energ DENC   =    -25789.82248163
  -exchange      EXHF   =         0.00000000
  -V(xc)+E(xc)   XCENC  =      3605.96425065
  PAW double counting   =     55594.23204139   -59034.67079123
  entropy T*S    EENTRO =        -0.00000000
  eigenvalues    EBANDS =    -10181.58130597
  atomic energy  EATOM  =     73862.19814772
  Solvation  Ediel_sol  =         0.00000000
  ---------------------------------------------------
  free energy    TOTEN  =     -1112.22777664 eV

  energy without entropy =    -1112.22777664  energy(sigma->0) =    -1112.22777664


--------------------------------------------------------------------------------------------------------




--------------------------------------- Iteration      1(   5)  ---------------------------------------


    EDDIAG:  cpu time    4.4870: real time    4.8921
  RMM-DIIS:  cpu time    9.0752: real time    9.0960
    ORTHCH:  cpu time    1.1768: real time    1.2545
       DOS:  cpu time    0.0014: real time    0.0014
    --------------------------------------------
      LOOP:  cpu time   14.7405: real time   15.2440

 eigenvalue-minimisations  :  7680
 total energy-change (2. order) :-0.1039960E+03  (-0.1592976E+03)
 number of electron     672.0000000 magnetization      48.0000000
 augmentation part      672.0000000 magnetization      48.0000000

 Free energy of the ion-electron system (eV)
  ---------------------------------------------------
  alpha Z        PSCENC =      2652.81237852
  Ewald energy   TEWEN  =    -41821.36001609
  -Hartree energ DENC   =    -25789.82248163
  -exchange      EXHF   =         0.00000000
  -V(xc)+E(xc)   XCENC  =      3605.96425065
  PAW double counting   =     55594.23204139   -59034.67079123
  entropy T*S    EENTRO =        -0.00000000
  eigenvalues    EBANDS =    -10285.57727770
  atomic energy  EATOM  =     73862.19814772
  Solvation  Ediel_sol  =         0.00000000
  ---------------------------------------------------
  free energy    TOTEN  =     -1216.22374836 eV

  energy without entropy =    -1216.22374836  energy(sigma->0) =    -1216.22374836


--------------------------------------------------------------------------------------------------------




--------------------------------------- Iteration      1(   6)  ---------------------------------------


    EDDIAG:  cpu time    4.4153: real time    4.8119
  RMM-DIIS:  cpu time    9.0799: real time    9.0919
    ORTHCH:  cpu time    1.1835: real time    1.2612
       DOS:  cpu time    0.0014: real time    0.0014
    --------------------------------------------
      LOOP:  cpu time   14.6800: real time   15.1664

 eigenvalue-minimisations  :  7680
 total energy-change (2. order) :-0.8885424E+01  (-0.7889492E+02)
 number of electron     672.0000000 magnetization      48.0000000
 augmentation part      672.0000000 magnetization      48.0000000

 Free energy of the ion-electron system (eV)
  ---------------------------------------------------
  alpha Z        PSCENC =      2652.81237852
  Ewald energy   TEWEN  =    -41821.36001609
  -Hartree energ DENC   =    -25789.82248163
  -exchange      EXHF   =         0.00000000
  -V(xc)+E(xc)   XCENC  =      3605.96425065
  PAW double counting   =     55594.23204139   -59034.67079123
  entropy T*S    EENTRO =        -0.00000000
  eigenvalues    EBANDS =    -10294.46270184
  atomic energy  EATOM  =     73862.19814772
  Solvation  Ediel_sol  =         0.00000000
  ---------------------------------------------------
  free energy    TOTEN  =     -1225.10917251 eV

  energy without entropy =    -1225.10917251  energy(sigma->0) =    -1225.10917251


--------------------------------------------------------------------------------------------------------




--------------------------------------- Iteration      1(   7)  ---------------------------------------


    EDDIAG:  cpu time    4.4494: real time    4.8569
  RMM-DIIS:  cpu time    9.0732: real time    9.0820
    ORTHCH:  cpu time    1.1982: real time    1.2760
       DOS:  cpu time    0.0015: real time    0.0015
    --------------------------------------------
      LOOP:  cpu time   14.7222: real time   15.2165

 eigenvalue-minimisations  :  7680
 total energy-change (2. order) :-0.1719617E+01  (-0.4795984E+02)
 number of electron     672.0000000 magnetization      48.0000000
 augmentation part      672.0000000 magnetization      48.0000000

 Free energy of the ion-electron system (eV)
  ---------------------------------------------------
  alpha Z        PSCENC =      2652.81237852
  Ewald energy   TEWEN  =    -41821.36001609
  -Hartree energ DENC   =    -25789.82248163
  -exchange      EXHF   =         0.00000000
  -V(xc)+E(xc)   XCENC  =      3605.96425065
  PAW double counting   =     55594.23204139   -59034.67079123
  entropy T*S    EENTRO =        -0.00000000
  eigenvalues    EBANDS =    -10296.18231835
  atomic energy  EATOM  =     73862.19814772
  Solvation  Ediel_sol  =         0.00000000
  ---------------------------------------------------
  free energy    TOTEN  =     -1226.82878901 eV

  energy without entropy =    -1226.82878901  energy(sigma->0) =    -1226.82878901


--------------------------------------------------------------------------------------------------------




--------------------------------------- Iteration      1(   8)  ---------------------------------------


    EDDIAG:  cpu time    4.4269: real time    4.8180
  RMM-DIIS:  cpu time    9.0735: real time    9.0794
    ORTHCH:  cpu time    1.1758: real time    1.2561
       DOS:  cpu time    0.0013: real time    0.0013
    --------------------------------------------
      LOOP:  cpu time   14.6775: real time   15.1549

 eigenvalue-minimisations  :  7680
 total energy-change (2. order) : 0.4943336E+01  (-0.2973484E+02)
 number of electron     672.0000000 magnetization      48.0000000
 augmentation part      672.0000000 magnetization      48.0000000

 Free energy of the ion-electron system (eV)
  ---------------------------------------------------
  alpha Z        PSCENC =      2652.81237852
  Ewald energy   TEWEN  =    -41821.36001609
  -Hartree energ DENC   =    -25789.82248163
  -exchange      EXHF   =         0.00000000
  -V(xc)+E(xc)   XCENC  =      3605.96425065
  PAW double counting   =     55594.23204139   -59034.67079123
  entropy T*S    EENTRO =        -0.00000000
  eigenvalues    EBANDS =    -10291.23898271
  atomic energy  EATOM  =     73862.19814772
  Solvation  Ediel_sol  =         0.00000000
  ---------------------------------------------------
  free energy    TOTEN  =     -1221.88545338 eV

  energy without entropy =    -1221.88545338  energy(sigma->0) =    -1221.88545338


--------------------------------------------------------------------------------------------------------




--------------------------------------- Iteration      1(   9)  ---------------------------------------


    EDDIAG:  cpu time    4.5330: real time    4.9353
  RMM-DIIS:  cpu time   19.1969: real time   19.2270
    ORTHCH:  cpu time    1.1731: real time    1.2530
       DOS:  cpu time    0.0014: real time    0.0014
    --------------------------------------------
      LOOP:  cpu time   24.9043: real time   25.4167

 eigenvalue-minimisations  : 21815
 total energy-change (2. order) : 0.9184115E+01  (-0.1311115E+02)
 number of electron     672.0000000 magnetization      48.0000000
 augmentation part      672.0000000 magnetization      48.0000000

 Free energy of the ion-electron system (eV)
  ---------------------------------------------------
  alpha Z        PSCENC =      2652.81237852
  Ewald energy   TEWEN  =    -41821.36001609
  -Hartree energ DENC   =    -25789.82248163
  -exchange      EXHF   =         0.00000000
  -V(xc)+E(xc)   XCENC  =      3605.96425065
  PAW double counting   =     55594.23204139   -59034.67079123
  entropy T*S    EENTRO =        -0.00000000
  eigenvalues    EBANDS =    -10282.05486815
  atomic energy  EATOM  =     73862.19814772
  Solvation  Ediel_sol  =         0.00000000
  ---------------------------------------------------
  free energy    TOTEN  =     -1212.70133882 eV

  energy without entropy =    -1212.70133882  energy(sigma->0) =    -1212.70133882


--------------------------------------------------------------------------------------------------------




--------------------------------------- Iteration      1(  10)  ---------------------------------------


    EDDIAG:  cpu time    4.4474: real time    4.8379
  RMM-DIIS:  cpu time   17.8877: real time   18.0064
    ORTHCH:  cpu time    1.1824: real time    1.2583
       DOS:  cpu time    0.0017: real time    0.0017
    --------------------------------------------
      LOOP:  cpu time   23.5192: real time   24.1043

 eigenvalue-minimisations  : 19723
 total energy-change (2. order) :-0.1862441E+01  (-0.5226442E+00)
 number of electron     672.0000000 magnetization      48.0000000
 augmentation part      672.0000000 magnetization      48.0000000

 Free energy of the ion-electron system (eV)
  ---------------------------------------------------
  alpha Z        PSCENC =      2652.81237852
  Ewald energy   TEWEN  =    -41821.36001609
  -Hartree energ DENC   =    -25789.82248163
  -exchange      EXHF   =         0.00000000
  -V(xc)+E(xc)   XCENC  =      3605.96425065
  PAW double counting   =     55594.23204139   -59034.67079123
  entropy T*S    EENTRO =        -0.00000000
  eigenvalues    EBANDS =    -10283.91730928
  atomic energy  EATOM  =     73862.19814772
  Solvation  Ediel_sol  =         0.00000000
  ---------------------------------------------------
  free energy    TOTEN  =     -1214.56377995 eV

  energy without entropy =    -1214.56377995  energy(sigma->0) =    -1214.56377995


--------------------------------------------------------------------------------------------------------




--------------------------------------- Iteration      1(  11)  ---------------------------------------


    EDDIAG:  cpu time    4.4683: real time    4.8558
  RMM-DIIS:  cpu time   19.7767: real time   19.8324
    ORTHCH:  cpu time    1.1835: real time    1.2595
       DOS:  cpu time    0.0018: real time    0.0018
    --------------------------------------------
      LOOP:  cpu time   25.4303: real time   25.9494

 eigenvalue-minimisations  : 22622
 total energy-change (2. order) : 0.6891045E-01  (-0.4308505E-01)
 number of electron     672.0000000 magnetization      48.0000000
 augmentation part      672.0000000 magnetization      48.0000000

 Free energy of the ion-electron system (eV)
  ---------------------------------------------------
  alpha Z        PSCENC =      2652.81237852
  Ewald energy   TEWEN  =    -41821.36001609
  -Hartree energ DENC   =    -25789.82248163
  -exchange      EXHF   =         0.00000000
  -V(xc)+E(xc)   XCENC  =      3605.96425065
  PAW double counting   =     55594.23204139   -59034.67079123
  entropy T*S    EENTRO =        -0.00000000
  eigenvalues    EBANDS =    -10283.84839883
  atomic energy  EATOM  =     73862.19814772
  Solvation  Ediel_sol  =         0.00000000
  ---------------------------------------------------
  free energy    TOTEN  =     -1214.49486950 eV

  energy without entropy =    -1214.49486950  energy(sigma->0) =    -1214.49486950


--------------------------------------------------------------------------------------------------------




--------------------------------------- Iteration      1(  12)  ---------------------------------------


    EDDIAG:  cpu time    4.4488: real time    4.8473
  RMM-DIIS:  cpu time   21.7413: real time   21.8331
    ORTHCH:  cpu time    1.1814: real time    1.2577
       DOS:  cpu time    0.0012: real time    0.0012
    CHARGE:  cpu time    1.8049: real time    1.8055
    MIXING:  cpu time    0.0010: real time    0.0011
    --------------------------------------------
      LOOP:  cpu time   29.1788: real time   29.7459

 eigenvalue-minimisations  : 24377
 total energy-change (2. order) :-0.7026581E-03  (-0.4236835E-02)
 number of electron     672.0000217 magnetization      48.0000053
 augmentation part      239.0475228 magnetization      29.0397777

 Broyden mixing:
  rms(total) = 0.12493E+02    rms(broyden)= 0.12484E+02
  rms(prec ) = 0.14362E+02
  weight for this iteration     100.00

 Free energy of the ion-electron system (eV)
  ---------------------------------------------------
  alpha Z        PSCENC =      2652.81237852
  Ewald energy   TEWEN  =    -41821.36001609
  -Hartree energ DENC   =    -25789.82248163
  -exchange      EXHF   =         0.00000000
  -V(xc)+E(xc)   XCENC  =      3605.96425065
  PAW double counting   =     55594.23204139   -59034.67079123
  entropy T*S    EENTRO =        -0.00000000
  eigenvalues    EBANDS =    -10283.84910149
  atomic energy  EATOM  =     73862.19814772
  Solvation  Ediel_sol  =         0.00000000
  ---------------------------------------------------
  free energy    TOTEN  =     -1214.49557216 eV

  energy without entropy =    -1214.49557215  energy(sigma->0) =    -1214.49557215


--------------------------------------------------------------------------------------------------------




--------------------------------------- Iteration      1(  13)  ---------------------------------------


    POTLOK:  cpu time    0.1732: real time    0.1745
    SETDIJ:  cpu time    5.0022: real time    5.0039
    EDDIAG:  cpu time    4.4979: real time    4.8775
  RMM-DIIS:  cpu time   17.3837: real time   17.4332
    ORTHCH:  cpu time    1.1787: real time    1.2578
       DOS:  cpu time    0.0015: real time    0.0015
    CHARGE:  cpu time    1.8069: real time    1.8074
    MIXING:  cpu time    0.0009: real time    0.0009
    --------------------------------------------
      LOOP:  cpu time   30.0450: real time   30.5568

 eigenvalue-minimisations  : 18801
 total energy-change (2. order) : 0.2273122E+03  (-0.1225281E+03)
 number of electron     672.0000175 magnetization      48.0000066
 augmentation part      269.4180875 magnetization      26.1510481

 Broyden mixing:
  rms(total) = 0.14096E+02    rms(broyden)= 0.14093E+02
  rms(prec ) = 0.15917E+02
  weight for this iteration     100.00

 eigenvalues of (default mixing * dielectric matrix)
  average eigenvalue GAMMA=   0.3159
  0.3159

 Free energy of the ion-electron system (eV)
  ---------------------------------------------------
  alpha Z        PSCENC =      2652.81237852
  Ewald energy   TEWEN  =    -41821.36001609
  -Hartree energ DENC   =    -25118.33949029
  -exchange      EXHF   =         0.00000000
  -V(xc)+E(xc)   XCENC  =      3696.01033662
  PAW double counting   =     59848.03789934   -63273.19360219
  entropy T*S    EENTRO =        -0.06657053
  eigenvalues    EBANDS =    -10833.28245301
  atomic energy  EATOM  =     73862.19814772
  Solvation  Ediel_sol  =         0.00000000
  ---------------------------------------------------
  free energy    TOTEN  =      -987.18336990 eV

  energy without entropy =     -987.11679937  energy(sigma->0) =     -987.15008463


--------------------------------------------------------------------------------------------------------




--------------------------------------- Iteration      1(  14)  ---------------------------------------


    POTLOK:  cpu time    0.1773: real time    0.1781
    SETDIJ:  cpu time    4.9940: real time    4.9952
    EDDIAG:  cpu time    4.4367: real time    4.8307
  RMM-DIIS:  cpu time   17.9522: real time   18.0924
    ORTHCH:  cpu time    1.1763: real time    1.2572
       DOS:  cpu time    0.0011: real time    0.0011
    CHARGE:  cpu time    1.8085: real time    1.8093
    MIXING:  cpu time    0.0010: real time    0.0010
    --------------------------------------------
      LOOP:  cpu time   30.5470: real time   31.1650

 eigenvalue-minimisations  : 19402
 total energy-change (2. order) : 0.7091400E+02  (-0.1800099E+02)
 number of electron     672.0000199 magnetization      48.0000105
 augmentation part      246.5139800 magnetization      32.1236960

 Broyden mixing:
  rms(total) = 0.52556E+01    rms(broyden)= 0.52511E+01
  rms(prec ) = 0.57111E+01
  weight for this iteration     100.00

 eigenvalues of (default mixing * dielectric matrix)
  average eigenvalue GAMMA=   0.7257
  1.0962  0.3552

 Free energy of the ion-electron system (eV)
  ---------------------------------------------------
  alpha Z        PSCENC =      2652.81237852
  Ewald energy   TEWEN  =    -41821.36001609
  -Hartree energ DENC   =    -25733.60280081
  -exchange      EXHF   =         0.00000000
  -V(xc)+E(xc)   XCENC  =      3672.96421851
  PAW double counting   =     63213.26947263   -66695.52098407
  entropy T*S    EENTRO =        -0.00000000
  eigenvalues    EBANDS =    -10067.02978269
  atomic energy  EATOM  =     73862.19814772
  Solvation  Ediel_sol  =         0.00000000
  ---------------------------------------------------
  free energy    TOTEN  =      -916.26936627 eV

  energy without entropy =     -916.26936627  energy(sigma->0) =     -916.26936627


--------------------------------------------------------------------------------------------------------




--------------------------------------- Iteration      1(  15)  ---------------------------------------


    POTLOK:  cpu time    0.1705: real time    0.1711
    SETDIJ:  cpu time    5.0023: real time    5.0040
    EDDIAG:  cpu time    4.4550: real time    4.8317
  RMM-DIIS:  cpu time   18.2402: real time   18.2905
    ORTHCH:  cpu time    1.1739: real time    1.2530
       DOS:  cpu time    0.0012: real time    0.0012
    CHARGE:  cpu time    1.8062: real time    1.8074
    MIXING:  cpu time    0.0014: real time    0.0014
    --------------------------------------------
      LOOP:  cpu time   30.8506: real time   31.3604

 eigenvalue-minimisations  : 20233
 total energy-change (2. order) : 0.1488413E+02  (-0.2241405E+01)
 number of electron     672.0000188 magnetization      48.0000131
 augmentation part      249.6823505 magnetization      33.8118836

 Broyden mixing:
  rms(total) = 0.22355E+01    rms(broyden)= 0.22351E+01
  rms(prec ) = 0.23227E+01
  weight for this iteration     100.00

 eigenvalues of (default mixing * dielectric matrix)
  average eigenvalue GAMMA=   0.9125
  1.6264  0.3799  0.7312

 Free energy of the ion-electron system (eV)
  ---------------------------------------------------
  alpha Z        PSCENC =      2652.81237852
  Ewald energy   TEWEN  =    -41821.36001609
  -Hartree energ DENC   =    -25652.93330330
  -exchange      EXHF   =         0.00000000
  -V(xc)+E(xc)   XCENC  =      3706.46372813
  PAW double counting   =     67244.55792958   -70766.97456981
  entropy T*S    EENTRO =        -0.00000000
  eigenvalues    EBANDS =    -10126.14952675
  atomic energy  EATOM  =     73862.19814772
  Solvation  Ediel_sol  =         0.00000000
  ---------------------------------------------------
  free energy    TOTEN  =      -901.38523199 eV

  energy without entropy =     -901.38523199  energy(sigma->0) =     -901.38523199


--------------------------------------------------------------------------------------------------------




--------------------------------------- Iteration      1(  16)  ---------------------------------------


    POTLOK:  cpu time    0.1704: real time    0.1713
    SETDIJ:  cpu time    5.0567: real time    5.0594
    EDDIAG:  cpu time    4.4372: real time    4.8390
  RMM-DIIS:  cpu time   17.5249: real time   17.5767
    ORTHCH:  cpu time    1.1783: real time    1.2578
       DOS:  cpu time    0.0012: real time    0.0012
    CHARGE:  cpu time    1.8073: real time    1.8089
    MIXING:  cpu time    0.0010: real time    0.0010
    --------------------------------------------
      LOOP:  cpu time   30.1770: real time   30.7153

 eigenvalue-minimisations  : 19197
 total energy-change (2. order) :-0.1381884E+01  (-0.6491840E+00)
 number of electron     672.0000184 magnetization      48.0000140
 augmentation part      251.0942618 magnetization      33.9145670

 Broyden mixing:
  rms(total) = 0.15169E+01    rms(broyden)= 0.15164E+01
  rms(prec ) = 0.15970E+01
  weight for this iteration     100.00

 eigenvalues of (default mixing * dielectric matrix)
  average eigenvalue GAMMA=   0.9628
  2.0639  0.8951  0.3855  0.5068

 Free energy of the ion-electron system (eV)
  ---------------------------------------------------
  alpha Z        PSCENC =      2652.81237852
  Ewald energy   TEWEN  =    -41821.36001609
  -Hartree energ DENC   =    -25605.13535585
  -exchange      EXHF   =         0.00000000
  -V(xc)+E(xc)   XCENC  =      3707.27878907
  PAW double counting   =     70023.69311673   -73574.31648257
  entropy T*S    EENTRO =        -0.00000000
  eigenvalues    EBANDS =    -10147.93769400
  atomic energy  EATOM  =     73862.19814772
  Solvation  Ediel_sol  =         0.00000000
  ---------------------------------------------------
  free energy    TOTEN  =      -902.76711647 eV

  energy without entropy =     -902.76711647  energy(sigma->0) =     -902.76711647


--------------------------------------------------------------------------------------------------------




--------------------------------------- Iteration      1(  17)  ---------------------------------------


    POTLOK:  cpu time    0.1717: real time    0.1727
    SETDIJ:  cpu time    5.0627: real time    5.0656
    EDDIAG:  cpu time    4.4210: real time    4.8225
  RMM-DIIS:  cpu time   18.6686: real time   18.7142
    ORTHCH:  cpu time    1.1762: real time    1.2543
       DOS:  cpu time    0.0017: real time    0.0017
    CHARGE:  cpu time    1.8060: real time    1.8082
    MIXING:  cpu time    0.0019: real time    0.0019
    --------------------------------------------
      LOOP:  cpu time   31.3097: real time   31.8411

 eigenvalue-minimisations  : 20452
 total energy-change (2. order) : 0.6428901E-01  (-0.8037717E-01)
 number of electron     672.0000184 magnetization      48.0000145
 augmentation part      251.1484905 magnetization      33.9201234

 Broyden mixing:
  rms(total) = 0.80249E+00    rms(broyden)= 0.80232E+00
  rms(prec ) = 0.90784E+00
  weight for this iteration     100.00

 eigenvalues of (default mixing * dielectric matrix)
  average eigenvalue GAMMA=   0.9858
  2.2128  1.1101  0.3751  0.6823  0.5485

 Free energy of the ion-electron system (eV)
  ---------------------------------------------------
  alpha Z        PSCENC =      2652.81237852
  Ewald energy   TEWEN  =    -41821.36001609
  -Hartree energ DENC   =    -25593.55400345
  -exchange      EXHF   =         0.00000000
  -V(xc)+E(xc)   XCENC  =      3704.95186365
  PAW double counting   =     71011.30856623   -74571.60181712
  entropy T*S    EENTRO =        -0.00000000
  eigenvalues    EBANDS =    -10147.45794693
  atomic energy  EATOM  =     73862.19814772
  Solvation  Ediel_sol  =         0.00000000
  ---------------------------------------------------
  free energy    TOTEN  =      -902.70282746 eV

  energy without entropy =     -902.70282746  energy(sigma->0) =     -902.70282746


--------------------------------------------------------------------------------------------------------




--------------------------------------- Iteration      1(  18)  ---------------------------------------


    POTLOK:  cpu time    0.1718: real time    0.1719
    SETDIJ:  cpu time    5.0189: real time    5.0204
    EDDIAG:  cpu time    4.4260: real time    4.8177
  RMM-DIIS:  cpu time   17.7090: real time   17.7369
    ORTHCH:  cpu time    1.1833: real time    1.2748
       DOS:  cpu time    0.0012: real time    0.0012
    CHARGE:  cpu time    1.7938: real time    1.8061
    MIXING:  cpu time    0.0011: real time    0.0011
    --------------------------------------------
      LOOP:  cpu time   30.3051: real time   30.8300

 eigenvalue-minimisations  : 19221
 total energy-change (2. order) : 0.4327363E+00  (-0.6980859E-01)
 number of electron     672.0000187 magnetization      48.0000146
 augmentation part      250.6398016 magnetization      33.8894902

 Broyden mixing:
  rms(total) = 0.30405E+00    rms(broyden)= 0.30381E+00
  rms(prec ) = 0.32167E+00
  weight for this iteration     100.00

 eigenvalues of (default mixing * dielectric matrix)
  average eigenvalue GAMMA=   1.0116
  2.4369  1.3578  0.8455  0.5873  0.3770  0.4653

 Free energy of the ion-electron system (eV)
  ---------------------------------------------------
[...]
   4      -0.521    -0.808     1.329    -0.188    -0.029    -0.056
   5      -0.832    -1.057     1.889    -0.015     0.003     0.056
   6      -0.689    -0.825     1.514     0.186    -0.109     0.019
   7      -0.702    -0.797     1.498    -0.137    -0.017    -0.028
   8      -0.754    -0.538     1.292    -0.039    -0.125    -0.003
   9      -0.864    -0.941     1.805    -0.126     0.050     0.010
  10      -0.953    -0.514     1.467     0.018    -0.188     0.000
  11      -1.002    -0.866     1.867    -0.141    -0.056    -0.058
  12      -0.826    -0.466     1.292    -0.010     0.007    -0.083
  13      -0.667    -0.999     1.666     0.270     0.060    -0.046
  14      -0.882    -1.082     1.964     0.009     0.020     0.039
  15      -0.582    -0.722     1.304     0.088     0.084     0.041
  16      -0.810    -0.515     1.325     0.016     0.042     0.047
  17       1.502     1.387    -2.889     0.074    -0.110     0.139
  18       1.672     1.455    -3.127    -0.107     0.170    -0.028
  19       1.366     1.500    -2.865    -0.079     0.093    -0.058
  20       1.417     1.427    -2.844     0.075    -0.188     0.082
  21       1.450     1.512    -2.962    -0.079    -0.105     0.061
  22       1.363     1.561    -2.924    -0.131     0.019    -0.145
  23       1.627     1.378    -3.006    -0.071     0.057     0.021
  24       1.665     1.377    -3.043    -0.097    -0.084     0.063
  25      -0.687    -1.050     1.736     0.357    -0.693     0.782
  26       1.811    -0.169    -1.641     0.809     1.017    -1.767
  27      -1.090    -0.400     1.490     0.033    -0.565     0.618
  28       1.620    -2.320     0.700     0.773    -0.039    -0.440
  29      -1.234     0.821     0.413    -0.085    -0.190     0.580
  30      -1.073     0.428     0.645     2.027    -0.329     0.275
  31      -2.244    -0.192     2.437     0.716     0.402    -0.440
  32      -0.176    -0.000     0.176     0.157    -0.974     0.657
  33       0.404    -0.019    -0.385     0.501    -0.154    -0.704
  34       0.557    -0.892     0.335    -0.590    -0.607     1.814
  35      -0.290    -0.492     0.782     1.414     0.151     1.278
  36       1.397    -2.162     0.765     0.462    -1.416    -0.297
  37       0.236     0.636    -0.872     0.684    -1.182     1.122
  38      -0.510    -0.310     0.820     0.030    -0.339     0.522
  39      -0.841    -0.896     1.737    -0.523    -0.262    -0.381
  40      -2.235    -0.540     2.775    -1.751    -0.159    -1.498
  41      -2.231     0.557     1.675    -5.856     1.107    -4.393
  42      -2.068     0.936     1.132     5.434     3.085     2.943
  43       7.113    -6.483    -0.631     0.511    -4.333    -1.958
  44      -1.647     2.226    -0.579    -4.079    -2.154     3.438
  45       7.211    -6.533    -0.678     1.009     4.950     1.160
  46      -2.905     2.776     0.129     5.951    -3.163    -3.621
  47      -2.576     2.428     0.148    -4.333     5.058    -3.105
  48       6.691    -5.531    -1.160     1.180    -4.393    -0.360
  49      -2.525     2.832    -0.307     5.324     3.173     3.149
  50      -3.320     1.996     1.324    -4.338    -1.382     3.573
  51      -1.882    -0.719     2.602     4.512    -2.772    -4.399
  52       3.662    -6.364     2.702     0.885     5.741     0.315
  53      -0.096     2.232    -2.136    -5.758     1.439    -3.942
  54      -4.942     1.444     3.498     2.833     3.013     6.195
  55       6.484    -5.178    -1.306     0.358    -3.880    -0.029
  56      -5.484     2.730     2.753    -2.595    -4.793     3.768
  57       4.957    -6.883     1.926    -0.371     4.948    -1.275
  58      -2.058     3.332    -1.274     5.049    -1.594    -4.257
  59      -2.976     2.396     0.580    -5.419     2.621    -2.911
  60       3.795    -6.051     2.256     1.066    -6.416    -0.005
  61      -4.454     3.547     0.907     5.950     2.420     4.377
  62      -3.074     2.401     0.673    -5.165    -1.178     5.140
  63      -5.896     3.366     2.530     3.391    -3.240    -3.881
  64       4.637    -3.877    -0.760    -1.120     3.677     1.031
  65      -4.421     2.969     1.451    -4.612     2.992    -3.347
  66      -2.863     2.810     0.052     4.806     2.643     4.260
  67       5.787    -5.991     0.205    -0.268    -4.473     2.008
  68      -1.834     0.505     1.329    -4.851    -2.233     5.539
  69       6.175    -6.630     0.455    -0.990     3.797    -0.648
  70      -2.225     0.291     1.934     5.457    -1.188    -5.472
  71      -3.015     1.210     1.805    -4.113     1.243    -5.058
  72       6.074    -6.217     0.143     0.036    -4.690     0.545
  73      -1.781     0.932     0.849     6.293     1.596     4.773
  74      -5.340     4.864     0.476    -4.732    -4.247     3.115
  75      -2.705     4.779    -2.073     4.775    -2.926    -2.846
  76       3.684    -5.475     1.791     0.421     5.467    -0.429
  77      -1.541     2.300    -0.759    -4.333     1.962    -3.099
  78      -2.141     3.800    -1.659     4.873     2.569     3.328
  79       3.170    -5.253     2.083    -0.787    -5.205     0.428
  80      -3.726     0.652     3.074    -2.838    -0.570     5.837
  81       4.147    -4.821     0.674    -1.109     3.792    -2.137
  82      -1.001     1.138    -0.137     4.666    -1.552    -3.901
  83      -3.724     1.604     2.119    -4.066     2.801    -4.310
  84       3.017    -5.912     2.895     0.314    -4.606     2.124
  85      -3.909     2.496     1.413     4.924     1.754     4.002
  86      -4.939     4.141     0.797    -4.320    -2.456     3.698
  87      -4.161     2.322     1.839     3.827    -3.303    -2.818
  88       1.858    -4.454     2.596    -2.266     4.408    -2.348
 ---------------------------------------------------------------------


 Total hyperfine coupling parameters after diagonalization (MHz)
 (convention: |A_zz| > |A_xx| > |A_yy|)
 ----------------------------------------------------------------------
  ion      A_xx      A_yy      A_zz     asymmetry (A_yy - A_xx)/ A_zz 
 ----------------------------------------------------------------------
   1      -0.560    -0.189     2.580       0.144
   2       0.487    -0.103     3.225      -0.183
   3      -0.326    -0.138     2.443       0.077
   4       2.142     1.666     3.900      -0.122
   5       0.223    -0.006     2.944      -0.078
   6       1.942     1.546     4.022      -0.098
   7       1.923     1.634     4.027      -0.072
   8       2.082     1.845     3.913      -0.061
   9       1.101     0.838     3.678      -0.071
  10       1.869     1.415     3.864      -0.118
  11       0.232    -0.084     2.879      -0.110
  12       1.646     1.290     3.412      -0.104
  13       2.510     1.875     4.694      -0.135
  14      -0.458    -0.257     2.589       0.078
  15       1.965     1.744     3.818      -0.058
  16       1.774     1.477     3.616      -0.082
  17      13.138     8.883    13.318      -0.319
  18      16.181    11.636    16.490      -0.276
  19      12.996     8.797    13.203      -0.318
  20      13.558     9.348    13.700      -0.307
  21      13.850     9.488    14.022      -0.311
  22      13.987     9.760    14.319      -0.295
  23      14.878    10.513    15.166      -0.288
  24      14.899    10.505    15.247      -0.288
  25      99.883    98.771   102.426      -0.011
  26      95.808    91.652    96.968      -0.043
  27      95.616    94.903    97.920      -0.007
  28      96.179    92.915    97.217      -0.034
  29      94.883    93.617    96.117      -0.013
  30      96.493    93.250    97.632      -0.033
  31      99.804    97.282   102.331      -0.025
  32      95.228    93.896    96.289      -0.014
  33      97.191    96.243    98.167      -0.010
  34      93.689    91.384    95.677      -0.024
  35      98.865    96.683   100.741      -0.022
  36      98.146    96.287   101.108      -0.018
  37      98.624    95.412    98.880      -0.032
  38      97.966    97.664    99.441      -0.003
  39     100.412    99.301   102.564      -0.011
  40      95.096    91.535    98.412      -0.036
  41       7.196     0.570    15.869      -0.418
  42       4.238    -0.565    13.475      -0.356
  43       7.769     2.668    18.953      -0.269
  44       2.905     1.435    12.643      -0.116
  45       6.816     3.026    19.499      -0.194
  46       5.575     1.110    16.939      -0.264
  47       6.625     1.474    16.734      -0.308
  48       5.244     2.716    17.122      -0.148
  49       4.471     0.657    15.047      -0.253
  50       5.455     0.834    13.614      -0.339
  51       5.439     1.593    15.653      -0.246
  52       5.216     1.313    16.752      -0.233
  53       3.088     0.237    14.332      -0.199
  54       1.211    -1.107    14.902      -0.156
  55       5.518     3.229    16.516      -0.139
  56       7.389     0.381    16.634      -0.421
  57       7.557     2.094    17.857      -0.306
  58       4.069     1.761    15.560      -0.148
  59       5.168     0.146    14.388      -0.349
  60       5.913     2.908    18.704      -0.161
  61       6.227     0.574    17.793      -0.318
  62       6.803     2.131    17.529      -0.267
  63       6.240    -0.243    15.584      -0.416
  64       3.148     0.025    11.378      -0.275
  65       4.523    -1.159    13.754      -0.413
  66       4.212     1.498    15.634      -0.174
  67       6.478     1.473    16.532      -0.303
  68       4.453     0.728    15.829      -0.235
  69       4.937    -0.355    14.534      -0.364
  70       7.140     0.951    17.000      -0.364
  71      -2.831     1.269    11.061       0.371
  72       5.750     1.843    16.788      -0.233
  73       8.034     2.223    18.418      -0.316
  74       8.598     1.210    18.617      -0.397
  75       7.482     4.438    18.732      -0.162
  76      -2.462     0.460    11.428       0.256
  77       5.195     3.353    14.594      -0.126
  78       4.268     2.407    15.761      -0.118
  79       3.533     0.797    14.041      -0.195
  80       6.101     2.482    16.668      -0.217
  81       5.005     0.844    13.359      -0.311
  82       4.272     1.085    13.357      -0.239
  83       6.530     2.783    16.893      -0.222
  84       7.023     1.450    15.762      -0.354
  85       5.773     0.605    15.241      -0.339
  86       7.579     2.355    17.534      -0.298
  87       5.402    -0.272    13.311      -0.426
  88       5.086     1.937    14.818      -0.212
 ---------------------------------------------------------------------



--------------------------------------------------------------------------------------------------------


 stress matrix after NEB project (eV)
    -47.11477     -2.92774      0.48835
     -2.91996    -47.18686     -2.23226
      0.50860     -2.25002    -58.43586
  FORCES: max atom, RMS     2.416884    1.131095
  FORCE total and by dimension   10.610609    2.205229
  Stress total and by dimension   88.818868   58.435859
     LOOP+:  cpu time  872.1809: real time  889.6682
    4ORBIT:  cpu time    0.0000: real time    0.0000
 


 total charge     
 
# of ion       s       p       d       tot
------------------------------------------
    1        0.052   5.995   0.000   6.047
    2        0.062   6.010   0.000   6.072
    3        0.048   5.991   0.000   6.038
    4        0.047   5.990   0.000   6.037
    5        0.051   5.994   0.000   6.045
    6        0.043   5.986   0.000   6.029
    7        0.051   5.992   0.000   6.043
    8        0.051   5.994   0.000   6.045
    9        0.047   5.989   0.000   6.036
   10        0.045   5.986   0.000   6.031
   11        0.052   5.996   0.000   6.048
   12        0.051   5.993   0.000   6.043
   13        0.053   5.996   0.000   6.048
   14        0.054   5.999   0.000   6.053
   15        0.048   5.989   0.000   6.037
   16        0.053   5.997   0.000   6.050
   17        0.147   6.125   0.081   6.353
   18        0.155   6.140   0.094   6.390
   19        0.143   6.119   0.077   6.339
   20        0.148   6.126   0.082   6.356
   21        0.153   6.136   0.090   6.379
   22        0.151   6.132   0.087   6.370
   23        0.148   6.128   0.084   6.360
   24        0.152   6.134   0.089   6.374
   25        0.359   6.417   4.798  11.575
   26        0.378   6.461   4.834  11.673
   27        0.363   6.427   4.795  11.585
   28        0.378   6.463   4.832  11.672
   29        0.374   6.454   4.824  11.652
   30        0.373   6.448   4.828  11.649
   31        0.371   6.444   4.824  11.639
   32        0.399   6.501   4.890  11.789
   33        0.372   6.448   4.819  11.638
   34        0.384   6.475   4.854  11.713
   35        0.370   6.445   4.819  11.634
   36        0.366   6.428   4.814  11.608
   37        0.364   6.432   4.814  11.610
   38        0.373   6.451   4.830  11.654
   39        0.377   6.455   4.838  11.670
   40        0.394   6.492   4.869  11.754
   41        1.599   3.506   0.000   5.104
   42        1.598   3.517   0.000   5.115
   43        1.601   3.474   0.000   5.075
   44        1.597   3.497   0.000   5.093
   45        1.603   3.505   0.000   5.108
   46        1.600   3.512   0.000   5.111
   47        1.599   3.496   0.000   5.095
   48        1.599   3.476   0.000   5.075
   49        1.599   3.516   0.000   5.115
   50        1.597   3.503   0.000   5.100
   51        1.597   3.514   0.000   5.111
   52        1.600   3.528   0.000   5.127
   53        1.599   3.482   0.000   5.081
   54        1.597   3.494   0.000   5.091
   55        1.599   3.484   0.000   5.084
   56        1.599   3.508   0.000   5.107
   57        1.605   3.534   0.000   5.139
   58        1.597   3.477   0.000   5.075
   59        1.597   3.467   0.000   5.064
   60        1.605   3.514   0.000   5.119
   61        1.599   3.505   0.000   5.105
   62        1.603   3.532   0.000   5.135
   63        1.597   3.489   0.000   5.086
   64        1.599   3.510   0.000   5.109
   65        1.600   3.512   0.000   5.112
   66        1.598   3.480   0.000   5.078
   67        1.598   3.522   0.000   5.120
   68        1.599   3.493   0.000   5.092
   69        1.599   3.499   0.000   5.098
   70        1.597   3.490   0.000   5.087
   71        1.597   3.514   0.000   5.111
   72        1.601   3.508   0.000   5.109
   73        1.600   3.523   0.000   5.123
   74        1.601   3.490   0.000   5.091
   75        1.600   3.518   0.000   5.118
   76        1.597   3.489   0.000   5.086
   77        1.599   3.498   0.000   5.097
   78        1.598   3.499   0.000   5.097
   79        1.601   3.508   0.000   5.109
   80        1.599   3.531   0.000   5.130
   81        1.596   3.508   0.000   5.104
   82        1.597   3.516   0.000   5.113
   83        1.601   3.507   0.000   5.108
   84        1.597   3.519   0.000   5.116
   85        1.599   3.491   0.000   5.090
   86        1.601   3.523   0.000   5.125
   87        1.596   3.525   0.000   5.120
   88        1.599   3.516   0.000   5.116
--------------------------------------------------
tot         84.756 416.393  77.966 579.115
 


 magnetization (x)
 
# of ion       s       p       d       tot
------------------------------------------
    1        0.000   0.000   0.000   0.001
    2        0.001   0.001   0.000   0.001
    3        0.001   0.000   0.000   0.001
    4        0.002   0.000   0.000   0.002
    5        0.001   0.000   0.000   0.001
    6        0.002   0.000   0.000   0.002
    7        0.002   0.000   0.000   0.002
    8        0.002   0.000   0.000   0.002
    9        0.001   0.001   0.000   0.002
   10        0.002   0.000   0.000   0.002
   11        0.001   0.000   0.000   0.001
   12        0.002  -0.000   0.000   0.001
   13        0.002   0.000   0.000   0.002
   14        0.000   0.000   0.000   0.001
   15        0.002   0.000   0.000   0.002
   16        0.002   0.000   0.000   0.002
   17        0.007   0.002   0.001   0.010
   18        0.008   0.003   0.001   0.012
   19        0.007   0.002   0.001   0.010
   20        0.007   0.002   0.001   0.010
   21        0.007   0.002   0.001   0.010
   22        0.007   0.003   0.001   0.011
   23        0.007   0.003   0.001   0.011
   24        0.008   0.003   0.001   0.012
   25        0.016   0.030   2.805   2.852
   26        0.015   0.030   2.743   2.788
   27        0.015   0.029   2.788   2.833
   28        0.015   0.030   2.749   2.794
   29        0.015   0.030   2.749   2.794
   30        0.015   0.030   2.751   2.796
   31        0.016   0.030   2.767   2.813
   32        0.015   0.030   2.701   2.746
   33        0.016   0.031   2.759   2.805
   34        0.015   0.030   2.729   2.773
   35        0.016   0.030   2.768   2.814
   36        0.015   0.029   2.770   2.815
   37        0.015   0.028   2.778   2.821
   38        0.016   0.030   2.765   2.810
   39        0.017   0.032   2.744   2.792
   40        0.015   0.031   2.720   2.766
   41        0.002   0.034   0.000   0.036
   42        0.001   0.030   0.000   0.031
   43        0.002   0.047   0.000   0.050
   44        0.002   0.015   0.000   0.017
   45        0.003   0.051   0.000   0.054
   46        0.002   0.034   0.000   0.036
   47        0.002   0.033   0.000   0.035
   48        0.002   0.033   0.000   0.036
   49        0.002   0.031   0.000   0.033
   50        0.002   0.025   0.000   0.027
   51        0.002   0.045   0.000   0.047
   52        0.002   0.040   0.000   0.041
   53        0.002   0.013   0.000   0.015
   54        0.002   0.012   0.000   0.014
   55        0.002   0.034   0.000   0.036
   56        0.002   0.041   0.000   0.043
   57        0.002   0.050   0.000   0.052
   58        0.002   0.027   0.000   0.029
   59        0.002   0.022   0.000   0.024
   60        0.002   0.043   0.000   0.045
   61        0.002   0.040   0.000   0.042
   62        0.002   0.047   0.000   0.049
   63        0.002   0.037   0.000   0.039
   64        0.001   0.017   0.000   0.018
   65        0.002   0.022   0.000   0.023
   66        0.002   0.028   0.000   0.030
   67        0.002   0.038   0.000   0.040
   68        0.002   0.024   0.000   0.026
   69        0.002   0.024   0.000   0.025
   70        0.002   0.039   0.000   0.041
   71        0.001   0.011   0.000   0.012
   72        0.002   0.040   0.000   0.042
   73        0.002   0.055   0.000   0.057
   74        0.002   0.046   0.000   0.049
   75        0.003   0.042   0.000   0.045
   76        0.001  -0.004   0.000  -0.003
   77        0.002   0.021   0.000   0.023
   78        0.002   0.029   0.000   0.031
   79        0.002   0.022   0.000   0.024
   80        0.002   0.044   0.000   0.046
   81        0.002   0.027   0.000   0.029
   82        0.002   0.024   0.000   0.025
   83        0.002   0.042   0.000   0.044
   84        0.002   0.041   0.000   0.043
   85        0.002   0.030   0.000   0.032
   86        0.002   0.049   0.000   0.051
   87        0.002   0.030   0.000   0.031
   88        0.002   0.034   0.000   0.035
--------------------------------------------------
tot          0.420   2.063  44.096  46.580
 

 total amount of memory used by VASP MPI-rank0    94427. kBytes
=======================================================================

   base      :      30000. kBytes
   nonlr-proj:      13668. kBytes
   fftplans  :       1275. kBytes
   grid      :      22786. kBytes
   one-center:       2737. kBytes
   wavefun   :      23961. kBytes
 
  
  
 General timing and accounting informations for this job:
 ========================================================
  
                  Total CPU time used (sec):      893.072
                            User time (sec):      884.090
                          System time (sec):        8.981
                         Elapsed time (sec):      912.977
  
                   Maximum memory used (kb):      195340.
                   Average memory used (kb):           0.
  
                          Minor page faults:       299116
                          Major page faults:            0
                 Voluntary context switches:       301560
