 vasp.5.4.4.18Apr17-6-g9f103f2a35 (build Dec 02 2020 12:53:39) complex          
  
 executed on             LinuxIFC date 2021.08.03  00:44:42
 running on   96 total cores
 distrk:  each k-point on   96 cores,    1 groups
 distr:  one band on NCORES_PER_BAND=   1 cores,   96 groups


--------------------------------------------------------------------------------------------------------


 INCAR:
 POTCAR:    PAW_PBE Na_pv 19Sep2006               
 POTCAR:    PAW_PBE Mg_pv 13Apr2007               
 POTCAR:    PAW_PBE Mn_pv 02Aug2007               
 POTCAR:    PAW_PBE O 08Apr2002                   

 ----------------------------------------------------------------------------- 
|                                                                             |
|           W    W    AA    RRRRR   N    N  II  N    N   GGGG   !!!           |
|           W    W   A  A   R    R  NN   N  II  NN   N  G    G  !!!           |
|           W    W  A    A  R    R  N N  N  II  N N  N  G       !!!           |
|           W WW W  AAAAAA  RRRRR   N  N N  II  N  N N  G  GGG   !            |
|           WW  WW  A    A  R   R   N   NN  II  N   NN  G    G                |
|           W    W  A    A  R    R  N    N  II  N    N   GGGG   !!!           |
|                                                                             |
|      For optimal performance we recommend to set                            |
|        NCORE= 4 - approx SQRT( number of cores)                             |
|      NCORE specifies how many cores store one orbital (NPAR=cpu/NCORE).     |
|      This setting can  greatly improve the performance of VASP for DFT.     |
|      The default,   NCORE=1            might be grossly inefficient         |
|      on modern multi-core architectures or massively parallel machines.     |
|      Do your own testing !!!!                                               |
|      Unfortunately you need to use the default for GW and RPA calculations. |
|      (for HF NCORE is supported but not extensively tested yet)             |
|                                                                             |
 ----------------------------------------------------------------------------- 

 POTCAR:    PAW_PBE Na_pv 19Sep2006               
   VRHFIN =Na: p6s1                                                             
   LEXCH  = PE                                                                  
   EATOM  =   766.0439 eV,   56.3026 Ry                                         
                                                                                
   TITEL  = PAW_PBE Na_pv 19Sep2006                                             
   LULTRA =        F    use ultrasoft PP ?                                      
   IUNSCR =        1    unscreen: 0-lin 1-nonlin 2-no                           
   RPACOR =    1.800    partial core radius                                     
   POMASS =   22.990; ZVAL   =    7.000    mass and valenz                      
   RCORE  =    2.200    outmost cutoff radius                                   
   RWIGS  =    2.200; RWIGS  =    1.164    wigner-seitz radius (au A)           
   ENMAX  =  259.561; ENMIN  =  194.671 eV                                      
   ICORE  =        2    local potential                                         
   LCOR   =        T    correct aug charges                                     
   LPAW   =        T    paw PP                                                  
   EAUG   =  368.056                                                            
   DEXC   =    0.000                                                            
   RMAX   =    2.245    core radius for proj-oper                               
   RAUG   =    1.300    factor for augmentation sphere                          
   RDEP   =    2.259    radius for radial grids                                 
   RDEPT  =    1.738    core radius for aug-charge                              
                                                                                
   Atomic configuration                                                         
    5 entries                                                                   
     n  l   j            E        occ.                                          
     1  0  0.50     -1033.6933   2.0000                                         
     2  0  0.50       -56.7526   2.0000                                         
     2  1  1.50       -28.6721   6.0000                                         
     3  0  0.50        -2.7440   1.0000                                         
     3  2  1.50        -1.3606   0.0000                                         
   Description                                                                  
     l       E           TYP  RCUT    TYP  RCUT                                 
     1    -28.6720912     23  2.000                                             
     1      6.8029130     23  2.000                                             
     0     -2.7439560     23  2.200                                             
     0     34.0145650     23  2.200                                             
     2     -1.3605826     23  2.200                                             
  local pseudopotential read in
  partial core-charges read in
  partial kinetic energy density read in
  atomic valenz-charges read in
  non local Contribution for L=           1  read in
    real space projection operators read in
  non local Contribution for L=           1  read in
    real space projection operators read in
  non local Contribution for L=           0  read in
    real space projection operators read in
  non local Contribution for L=           0  read in
    real space projection operators read in
    PAW grid and wavefunctions read in
 
   number of l-projection  operators is LMAX  =           4
   number of lm-projection operators is LMMAX =           8
 
 POTCAR:    PAW_PBE Mg_pv 13Apr2007               
   VRHFIN =Mg: p6s2                                                             
   LEXCH  = PE                                                                  
   EATOM  =  1056.7344 eV,   77.6678 Ry                                         
                                                                                
   TITEL  = PAW_PBE Mg_pv 13Apr2007                                             
   LULTRA =        F    use ultrasoft PP ?                                      
   IUNSCR =        1    unscreen: 0-lin 1-nonlin 2-no                           
   RPACOR =    1.500    partial core radius                                     
   POMASS =   24.305; ZVAL   =    8.000    mass and valenz                      
   RCORE  =    2.000    outmost cutoff radius                                   
   RWIGS  =    2.000; RWIGS  =    1.058    wigner-seitz radius (au A)           
   ENMAX  =  403.929; ENMIN  =  302.947 eV                                      
   RCLOC  =    1.506    cutoff for local pot                                    
   LCOR   =        T    correct aug charges                                     
   LPAW   =        T    paw PP                                                  
   EAUG   =  758.780                                                            
   DEXC   =    0.000                                                            
   RMAX   =    2.045    core radius for proj-oper                               
   RAUG   =    1.300    factor for augmentation sphere                          
   RDEP   =    2.025    radius for radial grids                                 
   RDEPT  =    1.557    core radius for aug-charge                              
                                                                                
   Atomic configuration                                                         
    5 entries                                                                   
     n  l   j            E        occ.                                          
     1  0  0.50     -1259.6230   2.0000                                         
     2  0  0.50       -79.8442   2.0000                                         
     2  1  1.50       -46.6121   6.0000                                         
     3  0  0.50        -4.7055   2.0000                                         
     3  2  1.50        -1.3606   0.0000                                         
   Description                                                                  
     l       E           TYP  RCUT    TYP  RCUT                                 
     1    -46.6121073     23  1.600                                             
     1      2.7211652     23  1.600                                             
     0     -4.7054661     23  2.000                                             
     0     61.2262170     23  2.000                                             
     2     -1.3605826     23  2.000                                             
  local pseudopotential read in
  partial core-charges read in
  partial kinetic energy density read in
  atomic valenz-charges read in
  non local Contribution for L=           1  read in
    real space projection operators read in
  non local Contribution for L=           1  read in
    real space projection operators read in
  non local Contribution for L=           0  read in
    real space projection operators read in
  non local Contribution for L=           0  read in
    real space projection operators read in
  non local Contribution for L=           2  read in
    real space projection operators read in
    PAW grid and wavefunctions read in
 
   number of l-projection  operators is LMAX  =           5
   number of lm-projection operators is LMMAX =          13
 
 POTCAR:    PAW_PBE Mn_pv 02Aug2007               
   VRHFIN =Mn: 3p4s3d                                                           
   LEXCH  = PE                                                                  
   EATOM  =  2025.2664 eV,  148.8529 Ry                                         
                                                                                
   TITEL  = PAW_PBE Mn_pv 02Aug2007                                             
   LULTRA =        F    use ultrasoft PP ?                                      
   IUNSCR =        1    unscreen: 0-lin 1-nonlin 2-no                           
   RPACOR =    2.080    partial core radius                                     
   POMASS =   54.938; ZVAL   =   13.000    mass and valenz                      
   RCORE  =    2.300    outmost cutoff radius                                   
   RWIGS  =    2.500; RWIGS  =    1.323    wigner-seitz radius (au A)           
   ENMAX  =  269.864; ENMIN  =  202.398 eV                                      
   ICORE  =        3    local potential                                         
   LCOR   =        T    correct aug charges                                     
   LPAW   =        T    paw PP                                                  
   EAUG   =  569.085                                                            
   DEXC   =    0.000                                                            
   RMAX   =    2.343    core radius for proj-oper                               
   RAUG   =    1.300    factor for augmentation sphere                          
   RDEP   =    2.338    radius for radial grids                                 
   RDEPT  =    1.798    core radius for aug-charge                              
                                                                                
   Atomic configuration                                                         
    8 entries                                                                   
     n  l   j            E        occ.                                          
     1  0  0.50     -6424.8287   2.0000                                         
     2  0  0.50      -739.1154   2.0000                                         
     2  1  1.50      -625.3949   6.0000                                         
     3  0  0.50       -81.6100   2.0000                                         
     3  1  1.50       -50.4667   6.0000                                         
     3  2  2.50        -3.3745   6.0000                                         
     4  0  0.50        -4.1331   1.0000                                         
     4  3  2.50        -1.3606   0.0000                                         
   Description                                                                  
     l       E           TYP  RCUT    TYP  RCUT                                 
     1    -50.4666628     23  2.000                                             
     1     -1.3605826     23  2.000                                             
     2     -3.3744729     23  2.300                                             
     2     -4.7350555     23  2.300                                             
     0     -4.1331431     23  2.300                                             
     0      7.6656591     23  2.300                                             
     3      9.5240782     23  2.300                                             
  local pseudopotential read in
  partial core-charges read in
  partial kinetic energy density read in
  atomic valenz-charges read in
  non local Contribution for L=           1  read in
    real space projection operators read in
  non local Contribution for L=           1  read in
    real space projection operators read in
  non local Contribution for L=           2  read in
    real space projection operators read in
  non local Contribution for L=           2  read in
    real space projection operators read in
  non local Contribution for L=           0  read in
    real space projection operators read in
  non local Contribution for L=           0  read in
    real space projection operators read in
    PAW grid and wavefunctions read in
 
   number of l-projection  operators is LMAX  =           6
   number of lm-projection operators is LMMAX =          18
 
 POTCAR:    PAW_PBE O 08Apr2002                   
   VRHFIN =O: s2p4                                                              
   LEXCH  = PE                                                                  
   EATOM  =   432.3788 eV,   31.7789 Ry                                         
                                                                                
   TITEL  = PAW_PBE O 08Apr2002                                                 
   LULTRA =        F    use ultrasoft PP ?                                      
   IUNSCR =        1    unscreen: 0-lin 1-nonlin 2-no                           
   RPACOR =    1.200    partial core radius                                     
   POMASS =   16.000; ZVAL   =    6.000    mass and valenz                      
   RCORE  =    1.520    outmost cutoff radius                                   
   RWIGS  =    1.550; RWIGS  =    0.820    wigner-seitz radius (au A)           
   ENMAX  =  400.000; ENMIN  =  300.000 eV                                      
   ICORE  =        2    local potential                                         
   LCOR   =        T    correct aug charges                                     
   LPAW   =        T    paw PP                                                  
   EAUG   =  605.392                                                            
   DEXC   =    0.000                                                            
   RMAX   =    1.553    core radius for proj-oper                               
   RAUG   =    1.300    factor for augmentation sphere                          
   RDEP   =    1.550    radius for radial grids                                 
   RDEPT  =    1.329    core radius for aug-charge                              
                                                                                
   Atomic configuration                                                         
    4 entries                                                                   
     n  l   j            E        occ.                                          
     1  0  0.50      -514.6923   2.0000                                         
     2  0  0.50       -23.9615   2.0000                                         
     2  1  0.50        -9.0305   4.0000                                         
     3  2  1.50        -9.5241   0.0000                                         
   Description                                                                  
     l       E           TYP  RCUT    TYP  RCUT                                 
     0    -23.9615318     23  1.200                                             
     0     -9.5240782     23  1.200                                             
     1     -9.0304911     23  1.520                                             
     1      8.1634956     23  1.520                                             
     2     -9.5240782      7  1.500                                             
  local pseudopotential read in
  partial core-charges read in
  partial kinetic energy density read in
  kinetic energy density of atom read in
  atomic valenz-charges read in
  non local Contribution for L=           0  read in
    real space projection operators read in
  non local Contribution for L=           0  read in
    real space projection operators read in
  non local Contribution for L=           1  read in
    real space projection operators read in
  non local Contribution for L=           1  read in
    real space projection operators read in
    PAW grid and wavefunctions read in
 
   number of l-projection  operators is LMAX  =           4
   number of lm-projection operators is LMMAX =           8
 
 Optimization of the real space projectors (new method)

 maximal supplied QI-value         = 17.01
 optimisation between [QCUT,QGAM] = [ 10.20, 20.41] = [ 29.16,116.64] Ry 
 Optimized for a Real-space Cutoff    1.30 Angstroem

   l    n(q)    QCUT    max X(q) W(low)/X(q) W(high)/X(q)  e(spline) 
   1      7    10.205     4.940    0.23E-03    0.84E-03    0.11E-06
   1      7    10.205     6.253    0.40E-03    0.13E-02    0.18E-06
   0      8    10.205    37.438    0.23E-03    0.37E-03    0.42E-07
   0      8    10.205     9.606    0.16E-03    0.26E-03    0.31E-07
 Optimization of the real space projectors (new method)

 maximal supplied QI-value         = 18.90
 optimisation between [QCUT,QGAM] = [ 10.20, 20.41] = [ 29.16,116.64] Ry 
 Optimized for a Real-space Cutoff    1.26 Angstroem

   l    n(q)    QCUT    max X(q) W(low)/X(q) W(high)/X(q)  e(spline) 
   1      7    10.205     2.974    0.63E-04    0.14E-03    0.13E-06
   1      7    10.205     4.279    0.11E-03    0.45E-03    0.24E-06
   0      8    10.205    16.381    0.44E-03    0.15E-03    0.55E-07
   0      8    10.205     5.611    0.31E-03    0.11E-03    0.40E-07
   2      7    10.205     4.652    0.50E-03    0.47E-03    0.57E-07
 Optimization of the real space projectors (new method)

 maximal supplied QI-value         = 16.25
 optimisation between [QCUT,QGAM] = [ 10.24, 20.48] = [ 29.35,117.42] Ry 
 Optimized for a Real-space Cutoff    1.34 Angstroem

   l    n(q)    QCUT    max X(q) W(low)/X(q) W(high)/X(q)  e(spline) 
   1      8    10.239     3.658    0.23E-03    0.30E-03    0.98E-07
   1      8    10.239     5.612    0.32E-03    0.65E-03    0.21E-06
   2      7    10.239    55.373    0.42E-03    0.45E-03    0.65E-07
   2      7    10.239    50.863    0.43E-03    0.48E-03    0.67E-07
   0      8    10.239    79.536    0.11E-03    0.21E-03    0.56E-07
   0      8    10.239    38.668    0.96E-04    0.19E-03    0.52E-07
 Optimization of the real space projectors (new method)

 maximal supplied QI-value         = 24.76
 optimisation between [QCUT,QGAM] = [ 10.15, 20.30] = [ 28.85,115.39] Ry 
 Optimized for a Real-space Cutoff    1.38 Angstroem

   l    n(q)    QCUT    max X(q) W(low)/X(q) W(high)/X(q)  e(spline) 
   0      8    10.150    20.381    0.22E-03    0.32E-03    0.29E-06
   0      8    10.150    15.268    0.23E-03    0.35E-03    0.30E-06
   1      8    10.150     5.964    0.46E-03    0.53E-03    0.21E-06
   1      8    10.150     5.382    0.38E-03    0.45E-03    0.19E-06
  PAW_PBE Na_pv 19Sep2006               :
 energy of atom  1       EATOM= -766.0439
 kinetic energy error for atom=    0.0103 (will be added to EATOM!!)
  PAW_PBE Mg_pv 13Apr2007               :
 energy of atom  2       EATOM=-1056.7344
 kinetic energy error for atom=    0.0820 (will be added to EATOM!!)
  PAW_PBE Mn_pv 02Aug2007               :
 energy of atom  3       EATOM=-2025.2664
 kinetic energy error for atom=    0.0284 (will be added to EATOM!!)
  PAW_PBE O 08Apr2002                   :
 energy of atom  4       EATOM= -432.3788
 kinetic energy error for atom=    0.1156 (will be added to EATOM!!)
 
 
 POSCAR: Na Mg Mn  O                             
  positions in cartesian coordinates
  No initial velocities read in

 METAGGA = SCAN     LMAXTAU =  6    LMIXTAU =  F

 exchange correlation table for  LEXCH =        8
   RHO(1)=    0.500       N(1)  =     2000
   RHO(2)=  100.500       N(2)  =     4000

 VTST: version 3.2, (02/03/18)

 CHAIN: initializing optimizer
 
 OPT: Using VASP Dynamics algorithm
 CHAIN: Read ICHAIN            0
 
 POSCAR: Na Mg Mn  O                             
  positions in cartesian coordinates
  No initial velocities read in
 


--------------------------------------------------------------------------------------------------------


 ion  position               nearest neighbor table
   1  0.294  0.267  0.243-  41 2.24  78 2.25
   2  0.661  0.112  0.759-  60 2.17  49 2.34
   3  0.474  0.418  0.755-  48 2.29  82 2.30  45 2.35  33 2.85  35 2.92
   4  0.918  0.912  0.745-  72 2.20  69 2.21  61 2.32  58 2.35  27 2.91  25 2.92
   5  0.875  0.116  0.257-  64 2.25  63 2.38  32 2.77  30 2.93
   6  0.005  0.458  0.257-  75 2.19  77 2.32  86 2.35  39 2.77  37 2.91
   7  0.527  0.768  0.752-  59 2.36
   8  0.828  0.535  0.748-  68 2.16  73 2.23  70 2.33  71 2.35  36 2.88  34 2.94
   9  0.792  0.776  0.259-  63 2.21  74 2.37
  10  0.523  0.036  0.251-  53 2.13  51 2.24  62 2.27  42 2.28  31 2.92  29 2.95
  11  0.170  0.935  0.253-  50 2.22
  12  0.313  0.047  0.751-  47 2.22  44 2.24  49 2.35  28 2.89  26 2.93
  13  0.174  0.635  0.744-  70 2.31
  14  0.016  0.261  0.744-  57 2.36
  15  0.375  0.616  0.254-  79 2.19  87 2.33  88 2.35  40 2.80  38 2.90
  16  0.660  0.418  0.247-  43 2.30  52 2.33  74 2.35
  17  0.668  0.264  0.993-  49 2.01  71 2.02  60 2.09  66 2.11  53 2.15  43 2.16  30 2.83
  18  0.678  0.263  0.496-  62 1.96  75 1.99  52 2.03  68 2.05  57 2.07  46 2.09  31 2.84  36 2.85
                            32 2.85
  19  0.163  0.267  0.994-  78 1.99  48 2.01  83 2.03  61 2.06  41 2.08  55 2.11  25 2.82
  20  0.172  0.263  0.497-  64 1.95  58 1.99  45 2.01  80 2.09  50 2.10  87 2.16  32 2.82
  21  0.177  0.783  0.000-  47 1.95  84 1.96  42 2.03  77 2.13  67 2.19  73 2.22  29 2.77  26 2.78

  22  0.184  0.762  0.486-  86 1.98  51 2.01  81 2.05  76 2.12  44 2.13  70 2.21  40 2.80  31 2.80
                            39 2.83
  23  0.659  0.771  0.004-  59 2.00  65 2.02  79 2.03  85 2.07  54 2.09  72 2.21  30 2.82  29 2.85

  24  0.679  0.769  0.506-  88 1.93  63 2.03  82 2.08  56 2.14  69 2.19  74 2.19  40 2.86
  25  0.004  0.942  0.996-  61 1.86  72 1.88  47 1.89  67 1.91  54 1.96  41 2.00  19 2.82  30 2.88
                            34 2.89  26 2.90   4 2.92
  26  0.337  0.103  0.008-  41 1.87  47 1.89  42 1.90  43 1.90  48 1.93  49 1.93  21 2.78  29 2.84
                            33 2.88  25 2.90  12 2.93
  27  0.016  0.931  0.498-  50 1.87  44 1.87  76 1.92  58 1.93  69 1.95  63 1.99  28 2.84   4 2.91
                            36 2.95  32 2.97
  28  0.343  0.101  0.497-  44 1.82  45 1.92  50 1.94  51 1.94  46 1.95  52 1.95  35 2.81  27 2.84
                            31 2.85  12 2.89
  29  0.496  0.935  0.001-  53 1.84  84 1.88  42 1.91  49 1.92  59 1.94  79 2.00  21 2.77  26 2.84
                            23 2.85  30 2.87  38 2.89  10 2.95
  30  0.826  0.095  0.998-  59 1.89  55 1.91  54 1.92  53 1.93  60 1.94  61 2.01  23 2.82  17 2.83
                            29 2.87  25 2.88   5 2.93  37 2.96
  31  0.507  0.936  0.498-  51 1.84  81 1.89  62 1.91  46 1.93  88 1.95  56 2.00  22 2.80  18 2.84
                            28 2.85  40 2.86  10 2.92  32 2.95
  32  0.847  0.104  0.503-  57 1.88  58 1.90  62 1.91  64 1.94  56 1.96  63 1.97   5 2.77  20 2.82
                            18 2.85  39 2.89  31 2.95  27 2.97
  33  0.495  0.435  0.008-  48 1.90  78 1.90  65 1.91  71 1.95  85 1.95  43 1.97   3 2.85  26 2.88
                            38 2.89  34 2.92
  34  0.831  0.609  0.002-  72 1.86  66 1.86  65 1.90  73 1.91  67 1.93  71 1.95  25 2.89  33 2.92
                             8 2.94  37 2.95
  35  0.507  0.424  0.496-  52 1.88  87 1.89  74 1.91  45 1.95  82 1.96  68 2.03  28 2.81   3 2.92
                            36 2.93  40 2.94
  36  0.845  0.591  0.495-  68 1.83  69 1.88  75 1.93  70 1.94  76 1.94  74 1.94  39 2.77  18 2.85
                             8 2.88  35 2.93  27 2.95
  37  0.999  0.436  0.998-  55 1.83  77 1.88  73 1.92  66 1.92  83 1.94  60 2.14  38 2.87   6 2.91
                            34 2.95  30 2.96
  38  0.329  0.602  0.997-  79 1.85  85 1.89  83 1.93  84 1.95  77 1.99  78 2.02  37 2.87  33 2.89
                            29 2.89  15 2.90
  39  0.010  0.437  0.503-  70 1.79  75 1.91  57 1.93  80 1.96  64 1.96  86 2.00  36 2.77   6 2.77
                            22 2.83  32 2.89  40 2.95
  40  0.350  0.606  0.503-  88 1.82  81 1.86  86 1.88  87 1.97  80 1.99  82 2.02  15 2.80  22 2.80
                            24 2.86  31 2.86  35 2.94  39 2.95
  41  0.176  0.099  0.095-  26 1.87  25 2.00  19 2.08   1 2.24
  42  0.348  0.950  0.099-  26 1.90  29 1.91  21 2.03  10 2.28
  43  0.491  0.267  0.101-  26 1.90  33 1.97  17 2.16  16 2.30
  44  0.186  0.947  0.581-  28 1.82  27 1.87  22 2.13  12 2.24
  45  0.343  0.261  0.591-  28 1.92  35 1.95  20 2.01   3 2.35
  46  0.498  0.090  0.596-  31 1.93  28 1.95  18 2.09
  47  0.175  0.951  0.916-  26 1.89  25 1.89  21 1.95  12 2.22
  48  0.344  0.269  0.916-  33 1.90  26 1.93  19 2.01   3 2.29
  49  0.488  0.092  0.907-  29 1.92  26 1.93  17 2.01   2 2.34  12 2.35
  50  0.172  0.081  0.403-  27 1.87  28 1.94  20 2.10  11 2.22
  51  0.360  0.946  0.405-  31 1.84  28 1.94  22 2.01  10 2.24
  52  0.505  0.267  0.404-  35 1.88  28 1.95  18 2.03  16 2.33
  53  0.657  0.076  0.094-  29 1.84  30 1.93  10 2.13  17 2.15
  54  0.846  0.949  0.095-  30 1.92  25 1.96  23 2.09
  55  0.980  0.272  0.083-  37 1.83  30 1.91  19 2.11
  56  0.678  0.953  0.601-  32 1.96  31 2.00  24 2.14
  57  0.854  0.265  0.593-  32 1.88  39 1.93  18 2.07  14 2.36
  58  0.004  0.089  0.587-  32 1.90  27 1.93  20 1.99   4 2.35
  59  0.663  0.940  0.909-  30 1.89  29 1.94  23 2.00   7 2.36
  60  0.835  0.250  0.890-  30 1.94  17 2.09  37 2.14   2 2.17
  61  0.990  0.087  0.901-  25 1.86  30 2.01  19 2.06   4 2.32
  62  0.679  0.091  0.412-  31 1.91  32 1.91  18 1.96  10 2.27
  63  0.849  0.939  0.409-  32 1.97  27 1.99  24 2.03   9 2.21   5 2.38
  64  0.008  0.271  0.410-  32 1.94  20 1.95  39 1.96   5 2.25
  65  0.664  0.596  0.091-  34 1.90  33 1.91  23 2.02
  66  0.844  0.455  0.085-  34 1.86  37 1.92  17 2.11
  67  0.984  0.778  0.095-  25 1.91  34 1.93  21 2.19
  68  0.690  0.445  0.589-  36 1.83  35 2.03  18 2.05   8 2.16
  69  0.867  0.754  0.592-  36 1.88  27 1.95  24 2.19   4 2.21
  70  0.998  0.579  0.592-  39 1.79  36 1.94  22 2.21  13 2.31   8 2.33
  71  0.662  0.442  0.914-  34 1.95  33 1.95  17 2.02   8 2.35
  72  0.853  0.773  0.909-  34 1.86  25 1.88   4 2.20  23 2.21
  73  0.980  0.589  0.908-  34 1.91  37 1.92  21 2.22   8 2.23
  74  0.674  0.579  0.404-  35 1.91  36 1.94  24 2.19  16 2.35   9 2.37
  75  0.850  0.430  0.405-  39 1.91  36 1.93  18 1.99   6 2.19
  76  0.995  0.763  0.401-  27 1.92  36 1.94  22 2.12
  77  0.155  0.588  0.094-  37 1.88  38 1.99  21 2.13   6 2.32
  78  0.330  0.431  0.093-  33 1.90  19 1.99  38 2.02   1 2.25
  79  0.476  0.755  0.093-  38 1.85  29 2.00  23 2.03  15 2.19
  80  0.177  0.442  0.596-  39 1.96  40 1.99  20 2.09
  81  0.357  0.768  0.588-  40 1.86  31 1.89  22 2.05
  82  0.507  0.582  0.600-  35 1.96  40 2.02  24 2.08   3 2.30
  83  0.165  0.443  0.904-  38 1.93  37 1.94  19 2.03
  84  0.340  0.775  0.909-  29 1.88  38 1.95  21 1.96
  85  0.484  0.590  0.910-  38 1.89  33 1.95  23 2.07
  86  0.189  0.589  0.406-  40 1.88  22 1.98  39 2.00   6 2.35
  87  0.363  0.450  0.404-  35 1.89  40 1.97  20 2.16  15 2.33
  88  0.508  0.762  0.422-  40 1.82  24 1.93  31 1.95  15 2.35
 
  LATTYP: Found a hexagonal cell.
 ALAT       =    10.0190000534
 C/A-ratio  =     1.1196726572
  
  Lattice vectors:
  
 A1 = (  10.0190000534,   0.0000000000,   0.0000000000)
 A2 = (  -5.0095000267,   8.6767085668,   0.0000000000)
 A3 = (   0.0000000000,   0.0000000000,  11.2180004120)


Analysis of symmetry for initial positions (statically):
=====================================================================
 Subroutine PRICEL returns:
 Original cell was already a primitive cell.
 

 Routine SETGRP: Setting up the symmetry group for a 
 hexagonal supercell.


 Subroutine GETGRP returns: Found  1 space group operations
 (whereof  1 operations were pure point group operations)
 out of a pool of 24 trial point group operations.


The static configuration has the point symmetry C_1 .


Analysis of symmetry for dynamics (positions and initial velocities):
=====================================================================
 Subroutine PRICEL returns:
 Original cell was already a primitive cell.
 

 Routine SETGRP: Setting up the symmetry group for a 
 hexagonal supercell.


 Subroutine GETGRP returns: Found  1 space group operations
 (whereof  1 operations were pure point group operations)
 out of a pool of 24 trial point group operations.


The dynamic configuration has the point symmetry C_1 .


Analysis of structural, dynamic, and magnetic symmetry:
=====================================================================
 Subroutine PRICEL returns:
 Original cell was already a primitive cell.
 

 Routine SETGRP: Setting up the symmetry group for a 
 hexagonal supercell.


 Subroutine GETGRP returns: Found  1 space group operations
 (whereof  1 operations were pure point group operations)
 out of a pool of 24 trial point group operations.


The magnetic configuration has the point symmetry C_1 .


 Subroutine INISYM returns: Found  1 space group operations
 (whereof  1 operations are pure point group operations),
 and found     1 'primitive' translations

 
 

Automatic generation of k-mesh.
 generate k-points for:    2    2    2
Space group operators:
 irot       det(A)        alpha          n_x          n_y          n_z        tau_x        tau_y        tau_z
    1     1.000000     0.000000     1.000000     0.000000     0.000000     0.000000     0.000000     0.000000
 
 Subroutine IBZKPT returns following result:
 ===========================================
 
 Found      8 irreducible k-points:
 
 Following reciprocal coordinates:
            Coordinates               Weight
  0.000000  0.000000  0.000000      1.000000
  0.500000 -0.000000 -0.000000      1.000000
  0.000000  0.500000  0.000000      1.000000
  0.500000  0.500000 -0.000000      1.000000
  0.000000  0.000000  0.500000      1.000000
  0.500000 -0.000000  0.500000      1.000000
  0.000000  0.500000  0.500000      1.000000
  0.500000  0.500000  0.500000      1.000000
 
 Following cartesian coordinates:
            Coordinates               Weight
  0.000000  0.000000  0.000000      1.000000
  0.049905  0.028813 -0.000000      1.000000
  0.000000  0.057626  0.000000      1.000000
  0.049905  0.086438 -0.000000      1.000000
  0.000000  0.000000  0.044571      1.000000
  0.049905  0.028813  0.044571      1.000000
  0.000000  0.057626  0.044571      1.000000
  0.049905  0.086438  0.044571      1.000000
 


--------------------------------------------------------------------------------------------------------




 Dimension of arrays:
   k-points           NKPTS =      8   k-points in BZ     NKDIM =      8   number of bands    NBANDS=    480
   number of dos      NEDOS =    301   number of ions     NIONS =     88
   non local maximal  LDIM  =      6   non local SUM 2l+1 LMDIM =     18
   total plane-waves  NPLWV = 140000
   max r-space proj   IRMAX =   1632   max aug-charges    IRDMAX=   4555
   dimension x,y,z NGX =    50 NGY =   50 NGZ =   56
   dimension x,y,z NGXF=   100 NGYF=  100 NGZF=  112
   support grid    NGXF=   100 NGYF=  100 NGZF=  112
   ions per type =              16   8  16  48
   NGX,Y,Z   is equivalent  to a cutoff of   8.30,  8.30,  8.30 a.u.
   NGXF,Y,Z  is equivalent  to a cutoff of  16.59, 16.59, 16.60 a.u.

 SYSTEM =  unknown system                          
 POSCAR =  Na Mg Mn  O                             

 Startparameter for this run:
   NWRITE =      2    write-flag & timer
   PREC   = normal    normal or accurate (medium, high low for compatibility)
   ISTART =      0    job   : 0-new  1-cont  2-samecut
   ICHARG =      1    charge: 1-file 2-atom 10-const
   ISPIN  =      2    spin polarized calculation?
   LNONCOLLINEAR =      F non collinear calculations
   LSORBIT =      F    spin-orbit coupling
   INIWAV =      1    electr: 0-lowe 1-rand  2-diag
   LASPH  =      T    aspherical Exc in radial PAW
   METAGGA=      F    non-selfconsistent MetaGGA calc.

 Electronic Relaxation 1
   ENCUT  =  400.0 eV  29.40 Ry    5.42 a.u.  16.34 16.34 18.29*2*pi/ulx,y,z
   ENINI  =  400.0     initial cutoff
   ENAUG  =  758.8 eV  augmentation charge cutoff
   NELM   =    200;   NELMIN=  6; NELMDL=-12     # of ELM steps 
   EDIFF  = 0.1E-04   stopping-criterion for ELM
   LREAL  =      T    real-space projection
   NLSPLINE    = F    spline interpolate recip. space projectors
   LCOMPAT=      F    compatible to vasp.4.4
   GGA_COMPAT  = T    GGA compatible to vasp.4.4-vasp.4.6
   LMAXPAW     = -100 max onsite density
   LMAXMIX     =    4 max onsite mixed and CHGCAR
   VOSKOWN=      0    Vosko Wilk Nusair interpolation
   ROPT   =   -0.00050  -0.00050  -0.00050  -0.00050
 Ionic relaxation
   EDIFFG = 0.1E-03   stopping-criterion for IOM
   NSW    =      1    number of steps for IOM
   NBLOCK =      1;   KBLOCK =      1    inner block; outer block 
   IBRION =     -1    ionic relax: 0-MD 1-quasi-New 2-CG
   NFREE  =      0    steps in history (QN), initial steepest desc. (CG)
   ISIF   =      2    stress and relaxation
   IWAVPR =     10    prediction:  0-non 1-charg 2-wave 3-comb
   ISYM   =      2    0-nonsym 1-usesym 2-fastsym
   LCORR  =      T    Harris-Foulkes like correction to forces

   POTIM  = 0.5000    time-step for ionic-motion
   TEIN   =    0.0    initial temperature
   TEBEG  =    0.0;   TEEND  =   0.0 temperature during run
   SMASS  =  -3.00    Nose mass-parameter (am)
   estimated Nose-frequenzy (Omega)   =  0.10E-29 period in steps =****** mass=  -0.229E-26a.u.
   SCALEE = 1.0000    scale energy and forces
   NPACO  =    256;   APACO  = 16.0  distance and # of slots for P.C.
   PSTRESS=    0.0 pullay stress

  Mass of Ions in am
   POMASS =  22.99 24.30 54.94 16.00
  Ionic Valenz
   ZVAL   =   7.00  8.00 13.00  6.00
  Atomic Wigner-Seitz radii
   RWIGS  =  -1.00 -1.00 -1.00 -1.00
  virtual crystal weights 
   VCA    =   1.00  1.00  1.00  1.00
   NELECT =     672.0000    total number of electrons
   NUPDOWN=      48.0000    fix difference up-down

 DOS related values:
   EMIN   =  10.00;   EMAX   =-10.00  energy-range for DOS
   EFERMI =   0.00
   ISMEAR =     0;   SIGMA  =   0.05  broadening in eV -4-tet -1-fermi 0-gaus

 Electronic relaxation 2 (details)
   IALGO  =     48    algorithm
   LDIAG  =      T    sub-space diagonalisation (order eigenvalues)
   LSUBROT=      F    optimize rotation matrix (better conditioning)
   TURBO    =      0    0=normal 1=particle mesh
   IRESTART =      0    0=no restart 2=restart with 2 vectors
   NREBOOT  =      0    no. of reboots
   NMIN     =      0    reboot dimension
   EREF     =   0.00    reference energy to select bands
   IMIX   =      4    mixing-type and parameters
     AMIX     =   0.40;   BMIX     =  1.00
     AMIX_MAG =   1.60;   BMIX_MAG =  1.00
     AMIN     =   0.10
     WC   =   100.;   INIMIX=   1;  MIXPRE=   1;  MAXMIX= -45

 Intra band minimization:
   WEIMIN = 0.0000     energy-eigenvalue tresh-hold
   EBREAK =  0.52E-08  absolut break condition
   DEPER  =   0.30     relativ break condition  

   TIME   =   0.40     timestep for ELM

  volume/ion in A,a.u.               =      11.08        74.78
  Fermi-wavevector in a.u.,A,eV,Ry     =   1.445993  2.732531 28.448379  2.090897
  Thomas-Fermi vector in A             =   2.564112
 
 Write flags
   LWAVE        =      F    write WAVECAR
   LDOWNSAMPLE  =      F    k-point downsampling of WAVECAR
   LCHARG       =      F    write CHGCAR
   LVTOT        =      F    write LOCPOT, total local potential
   LVHAR        =      F    write LOCPOT, Hartree potential only
   LELF         =      F    write electronic localiz. function (ELF)
   LORBIT       =     11    0 simple, 1 ext, 2 COOP (PROOUT), +10 PAW based schemes


 Dipole corrections
   LMONO  =      F    monopole corrections only (constant potential shift)
   LDIPOL =      F    correct potential (dipole corrections)
   IDIPOL =      0    1-x, 2-y, 3-z, 4-all directions 
   EPSILON=  1.0000000 bulk dielectric constant

 Exchange correlation treatment:
   GGA     =    --    GGA type
   LEXCH   =     8    internal setting for exchange type
   VOSKOWN=      0    Vosko Wilk Nusair interpolation
   LHFCALC =     F    Hartree Fock is set to
   LHFONE  =     F    Hartree Fock one center treatment
   AEXX    =    0.0000 exact exchange contribution

 Linear response parameters
   LEPSILON=     F    determine dielectric tensor
   LRPA    =     F    only Hartree local field effects (RPA)
   LNABLA  =     F    use nabla operator in PAW spheres
   LVEL    =     F    velocity operator in full k-point grid
   LINTERFAST=   F  fast interpolation
   KINTER  =     0    interpolate to denser k-point grid
   CSHIFT  =0.1000    complex shift for real part using Kramers Kronig
   OMEGAMAX=  -1.0    maximum frequency
   DEG_THRESHOLD= 0.2000000E-02 threshold for treating states as degnerate
   RTIME   =   -0.100 relaxation time in fs
  (WPLASMAI=    0.000 imaginary part of plasma frequency in eV, 0.658/RTIME)
   DFIELD  = 0.0000000 0.0000000 0.0000000 field for delta impulse in time
 
 Orbital magnetization related:
   ORBITALMAG=     F  switch on orbital magnetization
   LCHIMAG   =     F  perturbation theory with respect to B field
   DQ        =  0.001000  dq finite difference perturbation B field
   LLRAUG    =     F  two centre corrections for induced B field



--------------------------------------------------------------------------------------------------------


 Static calculation
 charge density and potential will be updated during run
 spin polarized calculation
 RMM-DIIS sequential band-by-band
 perform sub-space diagonalisation
    before iterative eigenvector-optimisation
 modified Broyden-mixing scheme, WC =      100.0
 initial mixing is a Kerker type mixing with AMIX =  0.4000 and BMIX =      1.0000
 Hartree-type preconditioning will be used
 using additional bands          144
 real space projection scheme for non local part
 use partial core corrections
 calculate Harris-corrections to forces 
   (improved forces if not selfconsistent)
 use gradient corrections 
 use of overlap-Matrix (Vanderbilt PP)
 Gauss-broadening in eV      SIGMA  =   0.05


--------------------------------------------------------------------------------------------------------


  energy-cutoff  :      400.00
  volume of cell :      975.20
      direct lattice vectors                 reciprocal lattice vectors
    10.019000053  0.000000000  0.000000000     0.099810360  0.057625538 -0.000000000
    -5.009500027  8.676708567  0.000000000     0.000000000  0.115251076  0.000000000
     0.000000000  0.000000000 11.218000412     0.000000000  0.000000000  0.089142446

  length of vectors
    10.019000053 10.019000053 11.218000412     0.115251076  0.115251076  0.089142446


 
 k-points in units of 2pi/SCALE and weight: read from INCAR                         
   0.00000000  0.00000000  0.00000000       0.125
   0.04990518  0.02881277 -0.00000000       0.125
   0.00000000  0.05762554  0.00000000       0.125
   0.04990518  0.08643831 -0.00000000       0.125
   0.00000000  0.00000000  0.04457122       0.125
   0.04990518  0.02881277  0.04457122       0.125
   0.00000000  0.05762554  0.04457122       0.125
   0.04990518  0.08643831  0.04457122       0.125
 
 k-points in reciprocal lattice and weights: read from INCAR                         
   0.00000000  0.00000000  0.00000000       0.125
   0.50000000 -0.00000000 -0.00000000       0.125
   0.00000000  0.50000000  0.00000000       0.125
   0.50000000  0.50000000 -0.00000000       0.125
   0.00000000  0.00000000  0.50000000       0.125
   0.50000000 -0.00000000  0.50000000       0.125
   0.00000000  0.50000000  0.50000000       0.125
   0.50000000  0.50000000  0.50000000       0.125
 
 position of ions in fractional coordinates (direct lattice) 
   0.29446611  0.26722345  0.24337136
   0.66116988  0.11234675  0.75939291
   0.47402154  0.41835548  0.75462736
   0.91804329  0.91150331  0.74510160
   0.87464829  0.11613159  0.25676501
   0.00472235  0.45757328  0.25651452
   0.52674732  0.76807697  0.75209215
   0.82830589  0.53505872  0.74808252
   0.79195062  0.77607671  0.25878765
   0.52312729  0.03639333  0.25123640
   0.16970002  0.93547949  0.25276965
   0.31329904  0.04667991  0.75130680
   0.17396691  0.63488262  0.74421463
   0.01642714  0.26139998  0.74388302
   0.37504054  0.61571636  0.25377874
   0.66035578  0.41786698  0.24703868
   0.66844176  0.26426150  0.99296066
   0.67758929  0.26280011  0.49569618
   0.16331184  0.26707362  0.99429591
   0.17236054  0.26277937  0.49731858
   0.17705064  0.78301235  0.00016933
   0.18446203  0.76247231  0.48557228
   0.65910794  0.77059636  0.00440404
   0.67893925  0.76851031  0.50587536
   0.00357462  0.94164970  0.99616334
   0.33730218  0.10329585  0.00837579
   0.01641525  0.93061671  0.49816810
   0.34326410  0.10101469  0.49740237
   0.49571677  0.93508500  0.00082007
   0.82586116  0.09544725  0.99842214
   0.50665495  0.93560593  0.49817167
   0.84714170  0.10388317  0.50265554
   0.49504845  0.43469018  0.00767167
   0.83086468  0.60874005  0.00159121
   0.50686735  0.42433256  0.49605365
   0.84459678  0.59120575  0.49540380
   0.99877184  0.43636593  0.99770322
   0.32923004  0.60175122  0.99748318
   0.00959883  0.43714157  0.50261542
   0.34970528  0.60564671  0.50267069
   0.17577736  0.09922415  0.09525584
   0.34846668  0.94951346  0.09946158
   0.49089825  0.26657343  0.10117579
   0.18560524  0.94678489  0.58110535
   0.34277390  0.26133182  0.59082187
   0.49782027  0.08989745  0.59567746
   0.17455392  0.95148932  0.91590298
   0.34431807  0.26877588  0.91589407
   0.48783852  0.09210981  0.90742553
   0.17211194  0.08110979  0.40340523
   0.36006124  0.94581367  0.40548849
   0.50501250  0.26717043  0.40372614
   0.65654564  0.07590194  0.09380549
   0.84592721  0.94852875  0.09498128
   0.97952617  0.27177817  0.08262908
   0.67770652  0.95296569  0.60131394
   0.85419821  0.26531028  0.59307718
   0.00372060  0.08908009  0.58738632
   0.66251264  0.94022042  0.90884290
   0.83468160  0.25038527  0.89036278
   0.98964046  0.08662697  0.90098945
   0.67924506  0.09118999  0.41236226
   0.84941671  0.93932849  0.40854607
   0.00832452  0.27081813  0.41025582
   0.66436476  0.59648079  0.09115617
   0.84430237  0.45544575  0.08490961
   0.98363302  0.77773616  0.09540470
   0.69042214  0.44520799  0.58888213
   0.86739726  0.75428948  0.59172667
   0.99808395  0.57859728  0.59197537
   0.66231046  0.44174239  0.91370116
   0.85278410  0.77254295  0.90917272
   0.97978973  0.58894568  0.90787124
   0.67357029  0.57880243  0.40446780
   0.85047905  0.43042013  0.40454803
   0.99516522  0.76349343  0.40149758
   0.15545307  0.58804557  0.09350240
   0.32985352  0.43097564  0.09329114
   0.47552148  0.75478506  0.09336512
   0.17670370  0.44196713  0.59601620
   0.35677048  0.76843886  0.58805756
   0.50713280  0.58224844  0.59971650
   0.16514496  0.44321876  0.90394006
   0.34033164  0.77524097  0.90931535
   0.48415744  0.59030910  0.91009981
   0.18895460  0.58886039  0.40555445
   0.36263899  0.45014074  0.40435816
   0.50791253  0.76170589  0.42162238
 
 position of ions in cartesian coordinates  (Angst):
   1.61160011  2.31862000  2.73014000
   6.06146005  0.97480000  8.51887000
   2.65347003  3.62994857  8.46541000
   4.63169992  7.90884857  8.35855000
   8.18134000  1.00764000  2.88039000
  -2.24490011  3.97023000  2.87758000
   1.42979984  6.66438000  8.43697000
   5.61842008  4.64254857  8.39199000
   4.04679703  6.73379143  2.90308000
   5.05889992  0.31577430  2.81837000
  -2.98606005  8.11688287  2.83557000
   2.90510005  0.40502800  8.42816000
  -1.43747003  5.50869143  8.34860000
  -1.14489971  2.26809143  8.34488000
   0.67310008  5.34239143  2.84689000
   4.52279995  3.62571000  2.77128000
   5.37330000  2.29292000 11.13903311
   5.47227000  2.28024000  5.56072000
   0.29831600  2.31732000 11.15401191
   0.41048700  2.28006000  5.57892000
  -2.14863000  6.79397000  0.00189959
  -1.97148000  6.61575000  5.44715000
   2.74330000  6.68624000  0.04940450
   2.95244000  6.66814000  5.67491000
  -4.68138005  8.17042000 11.17496071
   2.86197000  0.89626800  0.09395960
  -4.49746005  8.07469000  5.58845000
   2.93313000  0.87647500  5.57986000
   0.28227800  8.11346000  0.00919959
   7.79616000  0.82816800 11.20030000
   0.38925800  8.11798000  5.58849000
   7.96711000  0.90136400  5.63879000
   2.78231000  3.77168000  0.08606080
   5.27495000  5.28186000  0.01785020
   2.95261000  3.68181000  5.56473000
   5.50037000  5.12972000  5.55744000
   7.82072000  3.78622000 11.19223511
   0.28408300  5.22122000 11.18976671
  -2.09369005  3.79295000  5.63834000
   0.46971000  5.25502000  5.63896000
   1.26405000  0.86093900  1.06858000
  -1.26530003  8.23865157  1.11576000
   3.58291000  2.31298000  1.13499000
  -2.88334003  8.21497657  6.51884000
   2.12511000  2.26750000  6.62784000
   4.53732000  0.78001400  6.68231000
  -3.01763003  8.25579557 10.27460000
   2.10329000  2.33209000 10.27450000
   4.42623000  0.79921000 10.17950000
   1.31807000  0.70376600  4.52540000
  -1.13060003  8.20654957  4.54877000
   3.72133000  2.31816000  4.52900000
   6.19770000  0.65857900  1.05231000
   3.72368997  8.23010757  1.06550000
   8.45240000  2.35814000  0.92693300
   2.01605997  8.26860557  6.74554000
   7.22914000  2.30202000  6.65314000
  -0.40897005  0.77292200  6.58930000
   1.92767997  8.15801857 10.19540000
   7.10837000  2.17252000  9.98809000
   9.48125000  0.75163700 10.10730000
   6.34854000  0.79122900  4.62588000
   3.80473997  8.15027957  4.58307000
  -1.27326005  2.34981000  4.60225000
   3.66820000  5.17549000  1.02259000
   6.17751000  3.95177000  0.95251600
   5.95895000  6.74819000  1.07025000
   4.68707000  3.86294000  6.60608000
   4.91184000  6.54475000  6.63799000
   7.10132000  5.02032000  6.64078000
   4.42278000  3.83287000 10.24990000
   4.67399000  6.70313000 10.19910000
   6.86619000  5.11011000 10.18450000
   3.84899000  5.02210000  4.53732000
   6.36476000  3.73463000  4.53822000
   6.14584000  6.62461000  4.50400000
  -1.38833000  5.10230000  1.04891000
   1.14583000  3.73945000  1.04654000
   0.98315400  6.54905000  1.04737000
  -0.44364000  3.83482000  6.68611000
  -0.27501100  6.66752000  6.59683000
   2.16419000  5.05200000  6.72762000
  -0.56571700  3.84568000 10.14040000
  -0.47378700  6.72654000 10.20070000
   1.89362000  5.12194000 10.20950000
  -1.05676000  5.10937000  4.54951000
   1.37830000  3.90574000  4.53609000
   1.27301000  6.60910000  4.72976000
 


--------------------------------------------------------------------------------------------------------


 k-point  1 :   0.0000 0.0000 0.0000  plane waves:   17725
 k-point  2 :   0.5000-0.0000-0.0000  plane waves:   17736
 k-point  3 :   0.0000 0.5000 0.0000  plane waves:   17736
 k-point  4 :   0.5000 0.5000-0.0000  plane waves:   17736
 k-point  5 :   0.0000 0.0000 0.5000  plane waves:   17676
 k-point  6 :   0.5000-0.0000 0.5000  plane waves:   17700
 k-point  7 :   0.0000 0.5000 0.5000  plane waves:   17700
 k-point  8 :   0.5000 0.5000 0.5000  plane waves:   17700

 maximum and minimum number of plane-waves per node :     17736    17676

 maximum number of plane-waves:     17736
 maximum index in each direction: 
   IXMAX=   16   IYMAX=   16   IZMAX=   18
   IXMIN=  -16   IYMIN=  -16   IZMIN=  -18


 serial   3D FFT for wavefunctions
 parallel 3D FFT for charge:
    minimum data exchange during FFTs selected (reduces bandwidth)


 total amount of memory used by VASP MPI-rank0    94435. kBytes
=======================================================================

   base      :      30000. kBytes
   nonlr-proj:      13676. kBytes
   fftplans  :       1275. kBytes
   grid      :      22786. kBytes
   one-center:       2737. kBytes
   wavefun   :      23961. kBytes
 
     INWAV:  cpu time    0.0000: real time    0.0001
 Broyden mixing: mesh for mixing (old mesh)
   NGX = 33   NGY = 33   NGZ = 37
  (NGX  =100   NGY  =100   NGZ  =112)
  gives a total of  40293 points

 initial charge density was supplied:
 charge density of overlapping atoms calculated
 number of electron     672.0000000 magnetization      48.0000000
 keeping initial charge density in first step


--------------------------------------------------------------------------------------------------------


 Maximum index for non-local projection operator         1548
 Maximum index for augmentation-charges          539 (set IRDMAX)


--------------------------------------------------------------------------------------------------------


 First call to EWALD:  gamma=   0.179
 Maximum number of real-space cells 3x 3x 2
 Maximum number of reciprocal cells 3x 3x 3

    FEWALD:  cpu time    0.0028: real time    0.0028


--------------------------------------- Iteration      1(   1)  ---------------------------------------


    POTLOK:  cpu time    0.1980: real time    0.1993
    SETDIJ:  cpu time    4.6236: real time    4.6251
    EDDIAG:  cpu time    4.4870: real time    4.8590
  RMM-DIIS:  cpu time    9.0016: real time    9.0369
    ORTHCH:  cpu time    1.1713: real time    1.2450
       DOS:  cpu time    0.0024: real time    0.0026
    --------------------------------------------
      LOOP:  cpu time   19.4840: real time   19.9679

 eigenvalue-minimisations  :  7680
 total energy-change (2. order) : 0.1495652E+04  (-0.3500380E+05)
 number of electron     672.0000000 magnetization      48.0000000
 augmentation part      672.0000000 magnetization      48.0000000

 Free energy of the ion-electron system (eV)
  ---------------------------------------------------
  alpha Z        PSCENC =      2652.81237852
  Ewald energy   TEWEN  =    -41705.82558980
  -Hartree energ DENC   =    -25897.36112486
  -exchange      EXHF   =         0.00000000
  -V(xc)+E(xc)   XCENC  =      3606.64347690
  PAW double counting   =     55594.23204139   -59034.67079123
  entropy T*S    EENTRO =        -0.05476809
  eigenvalues    EBANDS =     -7582.32136723
  atomic energy  EATOM  =     73862.19814772
  Solvation  Ediel_sol  =         0.00000000
  ---------------------------------------------------
  free energy    TOTEN  =      1495.65240332 eV

  energy without entropy =     1495.70717142  energy(sigma->0) =     1495.67978737


--------------------------------------------------------------------------------------------------------




--------------------------------------- Iteration      1(   2)  ---------------------------------------


    EDDIAG:  cpu time    4.4142: real time    4.7988
  RMM-DIIS:  cpu time    9.0504: real time    9.0563
    ORTHCH:  cpu time    1.1661: real time    1.2433
       DOS:  cpu time    0.0019: real time    0.0019
    --------------------------------------------
      LOOP:  cpu time   14.6327: real time   15.1004

 eigenvalue-minimisations  :  7680
 total energy-change (2. order) :-0.2203662E+04  (-0.7994429E+04)
 number of electron     672.0000000 magnetization      48.0000000
 augmentation part      672.0000000 magnetization      48.0000000

 Free energy of the ion-electron system (eV)
  ---------------------------------------------------
  alpha Z        PSCENC =      2652.81237852
  Ewald energy   TEWEN  =    -41705.82558980
  -Hartree energ DENC   =    -25897.36112486
  -exchange      EXHF   =         0.00000000
  -V(xc)+E(xc)   XCENC  =      3606.64347690
  PAW double counting   =     55594.23204139   -59034.67079123
  entropy T*S    EENTRO =        -0.05046962
  eigenvalues    EBANDS =     -9785.98801309
  atomic energy  EATOM  =     73862.19814772
  Solvation  Ediel_sol  =         0.00000000
  ---------------------------------------------------
  free energy    TOTEN  =      -708.00994407 eV

  energy without entropy =     -707.95947445  energy(sigma->0) =     -707.98470926


--------------------------------------------------------------------------------------------------------




--------------------------------------- Iteration      1(   3)  ---------------------------------------


    EDDIAG:  cpu time    4.4575: real time    4.8414
  RMM-DIIS:  cpu time    8.9875: real time    9.0377
    ORTHCH:  cpu time    1.1672: real time    1.2449
       DOS:  cpu time    0.0018: real time    0.0018
    --------------------------------------------
      LOOP:  cpu time   14.6139: real time   15.1258

 eigenvalue-minimisations  :  7680
 total energy-change (2. order) : 0.6441354E+02  (-0.1417016E+04)
 number of electron     672.0000000 magnetization      48.0000000
 augmentation part      672.0000000 magnetization      48.0000000

 Free energy of the ion-electron system (eV)
  ---------------------------------------------------
  alpha Z        PSCENC =      2652.81237852
  Ewald energy   TEWEN  =    -41705.82558980
  -Hartree energ DENC   =    -25897.36112486
  -exchange      EXHF   =         0.00000000
  -V(xc)+E(xc)   XCENC  =      3606.64347690
  PAW double counting   =     55594.23204139   -59034.67079123
  entropy T*S    EENTRO =        -0.03771906
  eigenvalues    EBANDS =     -9721.58722528
  atomic energy  EATOM  =     73862.19814772
  Solvation  Ediel_sol  =         0.00000000
  ---------------------------------------------------
  free energy    TOTEN  =      -643.59640570 eV

  energy without entropy =     -643.55868663  energy(sigma->0) =     -643.57754617


--------------------------------------------------------------------------------------------------------




--------------------------------------- Iteration      1(   4)  ---------------------------------------


    EDDIAG:  cpu time    4.4201: real time    4.7908
  RMM-DIIS:  cpu time    9.0185: real time    9.0436
    ORTHCH:  cpu time    1.1640: real time    1.2429
       DOS:  cpu time    0.0019: real time    0.0019
    --------------------------------------------
      LOOP:  cpu time   14.6045: real time   15.0792

 eigenvalue-minimisations  :  7680
 total energy-change (2. order) :-0.4677776E+03  (-0.4297162E+03)
 number of electron     672.0000000 magnetization      48.0000000
 augmentation part      672.0000000 magnetization      48.0000000

 Free energy of the ion-electron system (eV)
  ---------------------------------------------------
  alpha Z        PSCENC =      2652.81237852
  Ewald energy   TEWEN  =    -41705.82558980
  -Hartree energ DENC   =    -25897.36112486
  -exchange      EXHF   =         0.00000000
  -V(xc)+E(xc)   XCENC  =      3606.64347690
  PAW double counting   =     55594.23204139   -59034.67079123
  entropy T*S    EENTRO =        -0.00000000
  eigenvalues    EBANDS =    -10189.40257338
  atomic energy  EATOM  =     73862.19814772
  Solvation  Ediel_sol  =         0.00000000
  ---------------------------------------------------
  free energy    TOTEN  =     -1111.37403474 eV

  energy without entropy =    -1111.37403474  energy(sigma->0) =    -1111.37403474


--------------------------------------------------------------------------------------------------------




--------------------------------------- Iteration      1(   5)  ---------------------------------------


    EDDIAG:  cpu time    4.4144: real time    4.7994
  RMM-DIIS:  cpu time    9.0101: real time    9.0643
    ORTHCH:  cpu time    1.1757: real time    1.2578
       DOS:  cpu time    0.0014: real time    0.0014
    --------------------------------------------
      LOOP:  cpu time   14.6016: real time   15.1230

 eigenvalue-minimisations  :  7680
 total energy-change (2. order) :-0.1042080E+03  (-0.1597905E+03)
 number of electron     672.0000000 magnetization      48.0000000
 augmentation part      672.0000000 magnetization      48.0000000

 Free energy of the ion-electron system (eV)
  ---------------------------------------------------
  alpha Z        PSCENC =      2652.81237852
  Ewald energy   TEWEN  =    -41705.82558980
  -Hartree energ DENC   =    -25897.36112486
  -exchange      EXHF   =         0.00000000
  -V(xc)+E(xc)   XCENC  =      3606.64347690
  PAW double counting   =     55594.23204139   -59034.67079123
  entropy T*S    EENTRO =        -0.00000000
  eigenvalues    EBANDS =    -10293.61060022
  atomic energy  EATOM  =     73862.19814772
  Solvation  Ediel_sol  =         0.00000000
  ---------------------------------------------------
  free energy    TOTEN  =     -1215.58206157 eV

  energy without entropy =    -1215.58206157  energy(sigma->0) =    -1215.58206157


--------------------------------------------------------------------------------------------------------




--------------------------------------- Iteration      1(   6)  ---------------------------------------


    EDDIAG:  cpu time    4.4119: real time    4.7955
  RMM-DIIS:  cpu time    9.0369: real time    9.0458
    ORTHCH:  cpu time    1.1629: real time    1.2427
       DOS:  cpu time    0.0013: real time    0.0013
    --------------------------------------------
      LOOP:  cpu time   14.6130: real time   15.0853

 eigenvalue-minimisations  :  7680
 total energy-change (2. order) :-0.8875459E+01  (-0.7919544E+02)
 number of electron     672.0000000 magnetization      48.0000000
 augmentation part      672.0000000 magnetization      48.0000000

 Free energy of the ion-electron system (eV)
  ---------------------------------------------------
  alpha Z        PSCENC =      2652.81237852
  Ewald energy   TEWEN  =    -41705.82558980
  -Hartree energ DENC   =    -25897.36112486
  -exchange      EXHF   =         0.00000000
  -V(xc)+E(xc)   XCENC  =      3606.64347690
  PAW double counting   =     55594.23204139   -59034.67079123
  entropy T*S    EENTRO =        -0.00000000
  eigenvalues    EBANDS =    -10302.48605884
  atomic energy  EATOM  =     73862.19814772
  Solvation  Ediel_sol  =         0.00000000
  ---------------------------------------------------
  free energy    TOTEN  =     -1224.45752019 eV

  energy without entropy =    -1224.45752019  energy(sigma->0) =    -1224.45752019


--------------------------------------------------------------------------------------------------------




--------------------------------------- Iteration      1(   7)  ---------------------------------------


    EDDIAG:  cpu time    4.4304: real time    4.8237
  RMM-DIIS:  cpu time    9.0278: real time    9.0573
    ORTHCH:  cpu time    1.1693: real time    1.2486
       DOS:  cpu time    0.0011: real time    0.0011
    --------------------------------------------
      LOOP:  cpu time   14.6286: real time   15.1308

 eigenvalue-minimisations  :  7680
 total energy-change (2. order) :-0.1775171E+01  (-0.4821444E+02)
 number of electron     672.0000000 magnetization      48.0000000
 augmentation part      672.0000000 magnetization      48.0000000

 Free energy of the ion-electron system (eV)
  ---------------------------------------------------
  alpha Z        PSCENC =      2652.81237852
  Ewald energy   TEWEN  =    -41705.82558980
  -Hartree energ DENC   =    -25897.36112486
  -exchange      EXHF   =         0.00000000
  -V(xc)+E(xc)   XCENC  =      3606.64347690
  PAW double counting   =     55594.23204139   -59034.67079123
  entropy T*S    EENTRO =        -0.00000000
  eigenvalues    EBANDS =    -10304.26122943
  atomic energy  EATOM  =     73862.19814772
  Solvation  Ediel_sol  =         0.00000000
  ---------------------------------------------------
  free energy    TOTEN  =     -1226.23269079 eV

  energy without entropy =    -1226.23269079  energy(sigma->0) =    -1226.23269079


--------------------------------------------------------------------------------------------------------




--------------------------------------- Iteration      1(   8)  ---------------------------------------


    EDDIAG:  cpu time    4.4344: real time    4.8277
  RMM-DIIS:  cpu time    9.0465: real time    9.0606
    ORTHCH:  cpu time    1.1652: real time    1.2443
       DOS:  cpu time    0.0016: real time    0.0016
    --------------------------------------------
      LOOP:  cpu time   14.6477: real time   15.1342

 eigenvalue-minimisations  :  7680
 total energy-change (2. order) : 0.4944090E+01  (-0.2993206E+02)
 number of electron     672.0000000 magnetization      48.0000000
 augmentation part      672.0000000 magnetization      48.0000000

 Free energy of the ion-electron system (eV)
  ---------------------------------------------------
  alpha Z        PSCENC =      2652.81237852
  Ewald energy   TEWEN  =    -41705.82558980
  -Hartree energ DENC   =    -25897.36112486
  -exchange      EXHF   =         0.00000000
  -V(xc)+E(xc)   XCENC  =      3606.64347690
  PAW double counting   =     55594.23204139   -59034.67079123
  entropy T*S    EENTRO =        -0.00000000
  eigenvalues    EBANDS =    -10299.31713951
  atomic energy  EATOM  =     73862.19814772
  Solvation  Ediel_sol  =         0.00000000
  ---------------------------------------------------
  free energy    TOTEN  =     -1221.28860086 eV

  energy without entropy =    -1221.28860086  energy(sigma->0) =    -1221.28860086


--------------------------------------------------------------------------------------------------------




--------------------------------------- Iteration      1(   9)  ---------------------------------------


    EDDIAG:  cpu time    4.4543: real time    4.8508
  RMM-DIIS:  cpu time   18.7738: real time   18.8956
    ORTHCH:  cpu time    1.1693: real time    1.2443
       DOS:  cpu time    0.0015: real time    0.0015
    --------------------------------------------
      LOOP:  cpu time   24.3989: real time   24.9921

 eigenvalue-minimisations  : 21798
 total energy-change (2. order) : 0.9285765E+01  (-0.1316659E+02)
 number of electron     672.0000000 magnetization      48.0000000
 augmentation part      672.0000000 magnetization      48.0000000

 Free energy of the ion-electron system (eV)
  ---------------------------------------------------
  alpha Z        PSCENC =      2652.81237852
  Ewald energy   TEWEN  =    -41705.82558980
  -Hartree energ DENC   =    -25897.36112486
  -exchange      EXHF   =         0.00000000
  -V(xc)+E(xc)   XCENC  =      3606.64347690
  PAW double counting   =     55594.23204139   -59034.67079123
  entropy T*S    EENTRO =        -0.00000000
  eigenvalues    EBANDS =    -10290.03137490
  atomic energy  EATOM  =     73862.19814772
  Solvation  Ediel_sol  =         0.00000000
  ---------------------------------------------------
  free energy    TOTEN  =     -1212.00283625 eV

  energy without entropy =    -1212.00283625  energy(sigma->0) =    -1212.00283625


--------------------------------------------------------------------------------------------------------




--------------------------------------- Iteration      1(  10)  ---------------------------------------


    EDDIAG:  cpu time    4.3886: real time    4.7795
  RMM-DIIS:  cpu time   17.9636: real time   18.0479
    ORTHCH:  cpu time    1.1664: real time    1.2434
       DOS:  cpu time    0.0016: real time    0.0016
    --------------------------------------------
      LOOP:  cpu time   23.5202: real time   24.0724

 eigenvalue-minimisations  : 19686
 total energy-change (2. order) :-0.1884940E+01  (-0.5261051E+00)
 number of electron     672.0000000 magnetization      48.0000000
 augmentation part      672.0000000 magnetization      48.0000000

 Free energy of the ion-electron system (eV)
  ---------------------------------------------------
  alpha Z        PSCENC =      2652.81237852
  Ewald energy   TEWEN  =    -41705.82558980
  -Hartree energ DENC   =    -25897.36112486
  -exchange      EXHF   =         0.00000000
  -V(xc)+E(xc)   XCENC  =      3606.64347690
  PAW double counting   =     55594.23204139   -59034.67079123
  entropy T*S    EENTRO =        -0.00000000
  eigenvalues    EBANDS =    -10291.91631454
  atomic energy  EATOM  =     73862.19814772
  Solvation  Ediel_sol  =         0.00000000
  ---------------------------------------------------
  free energy    TOTEN  =     -1213.88777589 eV

  energy without entropy =    -1213.88777589  energy(sigma->0) =    -1213.88777589


--------------------------------------------------------------------------------------------------------




--------------------------------------- Iteration      1(  11)  ---------------------------------------


    EDDIAG:  cpu time    4.3796: real time    4.7656
  RMM-DIIS:  cpu time   19.6107: real time   19.6780
    ORTHCH:  cpu time    1.1675: real time    1.2421
       DOS:  cpu time    0.0015: real time    0.0015
    --------------------------------------------
      LOOP:  cpu time   25.1592: real time   25.6871

 eigenvalue-minimisations  : 22556
 total energy-change (2. order) : 0.6854301E-01  (-0.4314456E-01)
 number of electron     672.0000000 magnetization      48.0000000
 augmentation part      672.0000000 magnetization      48.0000000

 Free energy of the ion-electron system (eV)
  ---------------------------------------------------
  alpha Z        PSCENC =      2652.81237852
  Ewald energy   TEWEN  =    -41705.82558980
  -Hartree energ DENC   =    -25897.36112486
  -exchange      EXHF   =         0.00000000
  -V(xc)+E(xc)   XCENC  =      3606.64347690
  PAW double counting   =     55594.23204139   -59034.67079123
  entropy T*S    EENTRO =        -0.00000000
  eigenvalues    EBANDS =    -10291.84777153
  atomic energy  EATOM  =     73862.19814772
  Solvation  Ediel_sol  =         0.00000000
  ---------------------------------------------------
  free energy    TOTEN  =     -1213.81923289 eV

  energy without entropy =    -1213.81923289  energy(sigma->0) =    -1213.81923289


--------------------------------------------------------------------------------------------------------




--------------------------------------- Iteration      1(  12)  ---------------------------------------


    EDDIAG:  cpu time    4.4273: real time    4.8082
  RMM-DIIS:  cpu time   21.8239: real time   21.8966
    ORTHCH:  cpu time    1.1677: real time    1.2420
       DOS:  cpu time    0.0016: real time    0.0016
    CHARGE:  cpu time    1.7804: real time    1.7812
    MIXING:  cpu time    0.0011: real time    0.0012
    --------------------------------------------
      LOOP:  cpu time   29.2021: real time   29.7308

 eigenvalue-minimisations  : 24387
 total energy-change (2. order) :-0.7567959E-03  (-0.4270245E-02)
 number of electron     671.9999865 magnetization      47.9999996
 augmentation part      239.1861899 magnetization      29.0620901

 Broyden mixing:
  rms(total) = 0.12680E+02    rms(broyden)= 0.12671E+02
  rms(prec ) = 0.14506E+02
  weight for this iteration     100.00

 Free energy of the ion-electron system (eV)
  ---------------------------------------------------
  alpha Z        PSCENC =      2652.81237852
  Ewald energy   TEWEN  =    -41705.82558980
  -Hartree energ DENC   =    -25897.36112486
  -exchange      EXHF   =         0.00000000
  -V(xc)+E(xc)   XCENC  =      3606.64347690
  PAW double counting   =     55594.23204139   -59034.67079123
  entropy T*S    EENTRO =        -0.00000000
  eigenvalues    EBANDS =    -10291.84852833
  atomic energy  EATOM  =     73862.19814772
  Solvation  Ediel_sol  =         0.00000000
  ---------------------------------------------------
  free energy    TOTEN  =     -1213.81998968 eV

  energy without entropy =    -1213.81998968  energy(sigma->0) =    -1213.81998968


--------------------------------------------------------------------------------------------------------




--------------------------------------- Iteration      1(  13)  ---------------------------------------


    POTLOK:  cpu time    0.1759: real time    0.1770
    SETDIJ:  cpu time    4.9867: real time    4.9889
    EDDIAG:  cpu time    4.3676: real time    4.7680
  RMM-DIIS:  cpu time   17.3463: real time   17.3817
    ORTHCH:  cpu time    1.1653: real time    1.2399
       DOS:  cpu time    0.0024: real time    0.0024
    CHARGE:  cpu time    1.7796: real time    1.7803
    MIXING:  cpu time    0.0009: real time    0.0010
    --------------------------------------------
      LOOP:  cpu time   29.8249: real time   30.3392

 eigenvalue-minimisations  : 18787
 total energy-change (2. order) : 0.2296972E+03  (-0.1210819E+03)
 number of electron     671.9999903 magnetization      47.9999995
 augmentation part      268.7321244 magnetization      26.5897560

 Broyden mixing:
  rms(total) = 0.13837E+02    rms(broyden)= 0.13834E+02
  rms(prec ) = 0.15539E+02
  weight for this iteration     100.00

 eigenvalues of (default mixing * dielectric matrix)
  average eigenvalue GAMMA=   0.3217
  0.3217

 Free energy of the ion-electron system (eV)
  ---------------------------------------------------
  alpha Z        PSCENC =      2652.81237852
  Ewald energy   TEWEN  =    -41705.82558980
  -Hartree energ DENC   =    -25236.81966500
  -exchange      EXHF   =         0.00000000
  -V(xc)+E(xc)   XCENC  =      3697.28438954
  PAW double counting   =     60002.15636507   -63428.02509708
  entropy T*S    EENTRO =        -0.08614766
  eigenvalues    EBANDS =    -10827.81755716
  atomic energy  EATOM  =     73862.19814772
  Solvation  Ediel_sol  =         0.00000000
  ---------------------------------------------------
  free energy    TOTEN  =      -984.12277584 eV

  energy without entropy =     -984.03662818  energy(sigma->0) =     -984.07970201


--------------------------------------------------------------------------------------------------------




--------------------------------------- Iteration      1(  14)  ---------------------------------------


    POTLOK:  cpu time    0.1793: real time    0.1794
    SETDIJ:  cpu time    4.9735: real time    4.9755
    EDDIAG:  cpu time    4.3912: real time    4.7664
  RMM-DIIS:  cpu time   17.6859: real time   17.7167
    ORTHCH:  cpu time    1.1656: real time    1.2424
       DOS:  cpu time    0.0011: real time    0.0011
    CHARGE:  cpu time    1.7836: real time    1.7848
    MIXING:  cpu time    0.0009: real time    0.0009
    --------------------------------------------
      LOOP:  cpu time   30.1812: real time   30.6672

 eigenvalue-minimisations  : 19369
 total energy-change (2. order) : 0.6845655E+02  (-0.1759735E+02)
 number of electron     671.9999871 magnetization      47.9999992
 augmentation part      246.6314595 magnetization      32.1854302

 Broyden mixing:
  rms(total) = 0.53448E+01    rms(broyden)= 0.53407E+01
  rms(prec ) = 0.57612E+01
  weight for this iteration     100.00

 eigenvalues of (default mixing * dielectric matrix)
  average eigenvalue GAMMA=   0.7364
  1.1139  0.3588

 Free energy of the ion-electron system (eV)
  ---------------------------------------------------
  alpha Z        PSCENC =      2652.81237852
  Ewald energy   TEWEN  =    -41705.82558980
  -Hartree energ DENC   =    -25850.52869363
  -exchange      EXHF   =         0.00000000
  -V(xc)+E(xc)   XCENC  =      3675.07081891
  PAW double counting   =     63435.07797970   -66918.49236209
  entropy T*S    EENTRO =        -0.00000000
  eigenvalues    EBANDS =    -10065.97890756
  atomic energy  EATOM  =     73862.19814772
  Solvation  Ediel_sol  =         0.00000000
  ---------------------------------------------------
  free energy    TOTEN  =      -915.66622822 eV

  energy without entropy =     -915.66622822  energy(sigma->0) =     -915.66622822


--------------------------------------------------------------------------------------------------------




--------------------------------------- Iteration      1(  15)  ---------------------------------------


    POTLOK:  cpu time    0.1754: real time    0.1770
    SETDIJ:  cpu time    4.9854: real time    4.9878
    EDDIAG:  cpu time    4.3661: real time    4.7666
  RMM-DIIS:  cpu time   18.3587: real time   18.4015
    ORTHCH:  cpu time    1.1650: real time    1.2449
       DOS:  cpu time    0.0015: real time    0.0015
    CHARGE:  cpu time    1.7765: real time    1.7802
    MIXING:  cpu time    0.0010: real time    0.0010
    --------------------------------------------
      LOOP:  cpu time   30.8297: real time   31.3605

 eigenvalue-minimisations  : 20255
 total energy-change (2. order) : 0.1416652E+02  (-0.1857009E+01)
 number of electron     671.9999877 magnetization      47.9999991
 augmentation part      249.6523904 magnetization      33.7994313

 Broyden mixing:
  rms(total) = 0.21258E+01    rms(broyden)= 0.21255E+01
  rms(prec ) = 0.22084E+01
  weight for this iteration     100.00

 eigenvalues of (default mixing * dielectric matrix)
  average eigenvalue GAMMA=   0.9758
  0.3855  0.7649  1.7770

 Free energy of the ion-electron system (eV)
  ---------------------------------------------------
  alpha Z        PSCENC =      2652.81237852
  Ewald energy   TEWEN  =    -41705.82558980
  -Hartree energ DENC   =    -25775.79302292
  -exchange      EXHF   =         0.00000000
  -V(xc)+E(xc)   XCENC  =      3708.14788340
  PAW double counting   =     67612.04441569   -71136.13130559
  entropy T*S    EENTRO =        -0.00000000
  eigenvalues    EBANDS =    -10118.95261035
  atomic energy  EATOM  =     73862.19814772
  Solvation  Ediel_sol  =         0.00000000
  ---------------------------------------------------
  free energy    TOTEN  =      -901.49970332 eV

  energy without entropy =     -901.49970332  energy(sigma->0) =     -901.49970332


--------------------------------------------------------------------------------------------------------




--------------------------------------- Iteration      1(  16)  ---------------------------------------


    POTLOK:  cpu time    0.1718: real time    0.1734
    SETDIJ:  cpu time    5.0413: real time    5.0462
    EDDIAG:  cpu time    4.3765: real time    4.7768
  RMM-DIIS:  cpu time   17.3504: real time   17.4347
    ORTHCH:  cpu time    1.2443: real time    1.3239
       DOS:  cpu time    0.0013: real time    0.0013
    CHARGE:  cpu time    1.7793: real time    1.7816
    MIXING:  cpu time    0.0010: real time    0.0010
    --------------------------------------------
      LOOP:  cpu time   29.9659: real time   30.5389

 eigenvalue-minimisations  : 18973
 total energy-change (2. order) :-0.1618382E+01  (-0.6724002E+00)
 number of electron     671.9999884 magnetization      47.9999992
 augmentation part      251.2612148 magnetization      33.8685051

 Broyden mixing:
  rms(total) = 0.13430E+01    rms(broyden)= 0.13424E+01
  rms(prec ) = 0.14378E+01
  weight for this iteration     100.00

 eigenvalues of (default mixing * dielectric matrix)
  average eigenvalue GAMMA=   0.9895
  2.1003  0.9155  0.3926  0.5495

 Free energy of the ion-electron system (eV)
  ---------------------------------------------------
  alpha Z        PSCENC =      2652.81237852
  Ewald energy   TEWEN  =    -41705.82558980
  -Hartree energ DENC   =    -25721.88537098
  -exchange      EXHF   =         0.00000000
  -V(xc)+E(xc)   XCENC  =      3709.43951354
  PAW double counting   =     70695.00618910   -74249.82579792
  entropy T*S    EENTRO =        -0.00000000
  eigenvalues    EBANDS =    -10145.03755591
  atomic energy  EATOM  =     73862.19814772
  Solvation  Ediel_sol  =         0.00000000
  ---------------------------------------------------
  free energy    TOTEN  =      -903.11808573 eV

  energy without entropy =     -903.11808573  energy(sigma->0) =     -903.11808573


--------------------------------------------------------------------------------------------------------




--------------------------------------- Iteration      1(  17)  ---------------------------------------


    POTLOK:  cpu time    0.1727: real time    0.1734
    SETDIJ:  cpu time    5.0466: real time    5.0477
    EDDIAG:  cpu time    4.3611: real time    4.7681
  RMM-DIIS:  cpu time   18.4620: real time   18.5281
    ORTHCH:  cpu time    1.1621: real time    1.2408
       DOS:  cpu time    0.0011: real time    0.0011
    CHARGE:  cpu time    1.7783: real time    1.7816
    MIXING:  cpu time    0.0022: real time    0.0022
    --------------------------------------------
      LOOP:  cpu time   30.9860: real time   31.5430

 eigenvalue-minimisations  : 20763
 total energy-change (2. order) : 0.2243232E+00  (-0.4855100E-01)
 number of electron     671.9999882 magnetization      47.9999993
 augmentation part      251.1023283 magnetization      33.8593223

 Broyden mixing:
  rms(total) = 0.72315E+00    rms(broyden)= 0.72308E+00
  rms(prec ) = 0.81370E+00
  weight for this iteration     100.00

 eigenvalues of (default mixing * dielectric matrix)
  average eigenvalue GAMMA=   1.0301
  2.2672  1.1871  0.3845  0.7232  0.5882

 Free energy of the ion-electron system (eV)
  ---------------------------------------------------
  alpha Z        PSCENC =      2652.81237852
  Ewald energy   TEWEN  =    -41705.82558980
  -Hartree energ DENC   =    -25714.76359826
  -exchange      EXHF   =         0.00000000
  -V(xc)+E(xc)   XCENC  =      3706.04805875
  PAW double counting   =     71473.98455856   -75036.33031477
  entropy T*S    EENTRO =        -0.00000000
  eigenvalues    EBANDS =    -10141.01740320
  atomic energy  EATOM  =     73862.19814772
  Solvation  Ediel_sol  =         0.00000000
  ---------------------------------------------------
  free energy    TOTEN  =      -902.89376248 eV

  energy without entropy =     -902.89376248  energy(sigma->0) =     -902.89376248


--------------------------------------------------------------------------------------------------------




--------------------------------------- Iteration      1(  18)  ---------------------------------------


    POTLOK:  cpu time    0.1729: real time    0.1733
    SETDIJ:  cpu time    4.9926: real time    4.9936
    EDDIAG:  cpu time    4.3712: real time    4.7710
  RMM-DIIS:  cpu time   17.4127: real time   17.4796
    ORTHCH:  cpu time    1.1628: real time    1.2416
       DOS:  cpu time    0.0014: real time    0.0014
    CHARGE:  cpu time    1.7801: real time    1.7821
    MIXING:  cpu time    0.0012: real time    0.0012
    --------------------------------------------
      LOOP:  cpu time   29.8950: real time   30.4438

 eigenvalue-minimisations  : 18897
 total energy-change (2. order) : 0.3698868E+00  (-0.7094710E-01)
 number of electron     671.9999881 magnetization      47.9999993
 augmentation part      250.5984226 magnetization      33.8204032

 Broyden mixing:
  rms(total) = 0.25123E+00    rms(broyden)= 0.25090E+00
  rms(prec ) = 0.26258E+00
  weight for this iteration     100.00

 eigenvalues of (default mixing * dielectric matrix)
  average eigenvalue GAMMA=   1.0222
[...]
   4      -0.793    -0.897     1.690    -0.279    -0.078    -0.097
   5      -0.949    -0.915     1.864    -0.125    -0.025     0.009
   6      -0.818    -1.080     1.898    -0.089    -0.081    -0.022
   7      -0.816    -0.572     1.387     0.024     0.048     0.010
   8      -0.674    -1.132     1.806    -0.146    -0.071     0.056
   9      -0.664    -0.464     1.128     0.009     0.079    -0.007
  10      -0.657    -1.136     1.793    -0.197    -0.042    -0.005
  11      -0.752    -0.945     1.697     0.213    -0.032    -0.017
  12      -0.713    -1.134     1.847    -0.020     0.013    -0.015
  13      -0.634    -0.750     1.385     0.172     0.071     0.047
  14      -0.944    -0.539     1.482    -0.034     0.071    -0.020
  15      -1.008    -0.837     1.846    -0.159     0.062     0.083
  16      -0.679    -0.859     1.537     0.229     0.022    -0.050
  17       1.198     1.635    -2.833     0.010    -0.132     0.032
  18       1.422     1.580    -3.002     0.047     0.085    -0.027
  19       1.606     1.386    -2.992    -0.051     0.138     0.030
  20       1.672     1.306    -2.978     0.009    -0.003     0.046
  21       1.464     1.493    -2.957    -0.127    -0.003     0.039
  22       1.379     1.581    -2.960    -0.072     0.071    -0.023
  23       1.429     1.532    -2.961    -0.002     0.062    -0.113
  24       1.626     1.242    -2.868     0.084     0.050    -0.003
  25       0.515    -0.463    -0.053    -0.311    -0.148     0.683
  26      -0.401     0.075     0.326     0.252     0.127    -0.440
  27       0.577    -1.578     1.001    -0.470    -0.592     0.321
  28      -0.197    -0.259     0.456    -0.886     0.483     0.181
  29       0.022     0.718    -0.739    -0.509    -0.753    -1.264
  30       1.554    -0.157    -1.397    -1.207    -0.241     1.080
  31      -0.936    -0.258     1.194    -0.027     0.070     0.840
  32      -1.687    -0.227     1.914     0.318     0.400    -0.331
  33      -1.196    -1.001     2.197    -1.125     0.177    -0.048
  34       0.741    -2.333     1.592     1.007     0.812     0.107
  35      -0.722     0.643     0.078     0.435     1.619     0.334
  36       2.137    -1.223    -0.915    -0.631    -0.143    -0.977
  37      -0.182    -0.628     0.811     1.669    -0.732    -0.595
  38       0.047    -0.870     0.823    -0.299     0.443    -1.522
  39      -0.056     0.199    -0.143     0.238     1.270    -1.421
  40      -0.687    -1.066     1.753    -0.979     0.228    -0.447
  41      -5.142     4.325     0.817    -3.348     2.537    -3.578
  42      -2.741     2.402     0.340     4.713     2.825     2.705
  43       4.413    -5.822     1.408     0.759    -4.805     0.132
  44      -3.000     0.888     2.113    -5.989    -3.244     5.459
  45       5.047    -6.158     1.111     0.636     5.310    -0.891
  46      -2.255     2.921    -0.666     4.736    -2.106    -4.630
  47      -4.387     2.399     1.988    -4.025     1.302    -4.622
  48       5.208    -5.178    -0.030     0.219    -3.930    -0.986
  49      -1.138     1.616    -0.478     4.949     0.868     3.644
  50      -2.936     2.736     0.199    -5.226    -2.288     3.719
  51      -4.025     2.788     1.237     4.288    -3.073    -2.484
  52       3.371    -5.482     2.111     1.644     5.455    -0.037
  53      -3.451     4.300    -0.849    -5.785     1.978    -4.131
  54      -2.251     2.353    -0.101     5.554     1.921     3.942
  55       6.951    -7.921     0.970    -0.605    -4.125    -0.023
  56      -2.174     2.403    -0.229    -4.689    -1.530     3.386
  57       5.672    -7.120     1.449     1.414     5.792    -0.170
  58      -4.529     2.764     1.765     4.859    -2.565    -3.190
  59      -3.907     3.104     0.803    -4.253     1.317    -4.070
  60       6.239    -4.586    -1.653     0.244    -4.280     2.390
  61      -4.141     3.208     0.932     5.166     1.612     3.932
  62      -2.967     2.563     0.404    -5.297    -2.196     3.302
  63      -2.316     1.544     0.773     3.951    -2.279    -4.371
  64       3.419    -4.938     1.519    -0.866     3.995     1.391
  65      -3.391     1.070     2.321    -5.335     2.356    -3.656
  66      -4.420     2.757     1.664     5.275     2.893     4.349
  67       7.250    -6.191    -1.059    -0.754    -4.531     0.702
  68      -1.894     2.085    -0.191    -5.740    -0.483     4.209
  69       7.814    -6.569    -1.245    -0.962     4.309    -0.425
  70      -2.130     1.810     0.320     6.424    -1.043    -5.766
  71      -2.481     1.051     1.430    -3.576     3.482    -4.024
  72       7.521    -7.074    -0.447    -1.946    -4.783     0.108
  73      -2.803     4.460    -1.656     5.638     1.663     3.587
  74      -2.935     2.306     0.629    -5.359    -2.657     4.668
  75      -3.242     2.623     0.619     3.714    -2.850    -3.700
  76       7.027    -6.109    -0.918    -0.015     4.019    -2.084
  77      -1.697     1.291     0.406    -6.457     1.394    -5.734
  78      -3.752     1.571     2.181     2.670     2.367     4.484
  79       5.575    -5.737     0.162    -0.430    -4.972    -1.837
  80      -4.470     2.836     1.634    -2.644    -3.094     4.444
  81       5.372    -6.298     0.926     1.621     4.818     0.329
  82      -1.356     1.603    -0.247     4.479    -1.598    -3.304
  83      -3.007     1.600     1.407    -4.738     3.385    -3.691
  84       4.417    -6.105     1.687     1.213    -4.882     0.096
  85      -3.674     2.484     1.190     4.297     2.486     3.266
  86      -2.973     4.010    -1.038    -4.584    -1.949     1.521
  87      -3.135     3.439    -0.304     5.575    -3.514    -2.677
  88       1.685    -6.401     4.716    -0.020     6.020     1.921
 ---------------------------------------------------------------------


 Total hyperfine coupling parameters after diagonalization (MHz)
 (convention: |A_zz| > |A_xx| > |A_yy|)
 ----------------------------------------------------------------------
  ion      A_xx      A_yy      A_zz     asymmetry (A_yy - A_xx)/ A_zz 
 ----------------------------------------------------------------------
   1       2.127     1.878     3.912      -0.064
   2       2.165     1.772     4.282      -0.092
   3      -0.176     0.083     2.721       0.095
   4       0.626     0.052     2.882      -0.199
   5      -0.302    -0.049     2.621       0.096
   6      -0.237     0.078     2.772       0.114
   7       1.701     1.452     3.659      -0.068
   8       1.161     0.620     3.606      -0.150
   9       1.901     1.697     3.497      -0.058
  10       1.701     1.081     4.081      -0.152
  11       2.500     2.034     4.813      -0.097
  12       1.199     0.777     3.759      -0.112
  13       2.324     1.964     4.227      -0.085
  14       2.181     1.769     4.202      -0.098
  15       0.540     0.176     3.132      -0.116
  16       2.376     1.883     4.437      -0.111
  17      12.799     8.760    13.232      -0.305
  18      14.887    10.473    15.069      -0.293
  19      14.763    10.391    15.008      -0.291
  20      14.065     9.780    14.432      -0.297
  21      14.785    10.477    15.040      -0.286
  22      15.658    11.340    15.906      -0.271
  23      15.122    10.727    15.226      -0.289
  24      13.626     9.533    14.045      -0.291
  25      96.983    95.805    97.594      -0.012
  26      95.390    94.817    96.094      -0.006
  27      99.261    97.389   100.591      -0.019
  28      99.529    97.880    99.964      -0.016
  29      97.954    95.608    98.959      -0.024
  30      95.495    93.672    98.067      -0.019
  31      98.293    97.979   100.505      -0.003
  32      94.840    93.217    97.024      -0.017
  33      97.587    95.337    99.778      -0.023
  34      97.133    94.031    98.841      -0.031
  35      95.846    93.485    97.115      -0.024
  36      95.028    93.010    97.398      -0.021
  37      95.956    93.793    97.898      -0.022
  38      97.509    95.852    99.491      -0.017
  39      95.682    93.334    97.158      -0.024
  40      96.560    94.674    98.443      -0.019
  41       5.244     0.123    14.533      -0.352
  42       6.985     2.722    15.762      -0.270
  43       5.238     1.357    15.246      -0.255
  44       6.348     1.732    19.336      -0.239
  45       6.949     2.757    17.966      -0.233
  46       4.033     2.150    15.872      -0.119
  47       5.278     0.593    14.966      -0.313
  48       5.011     1.573    14.311      -0.240
  49       6.421     2.447    14.920      -0.266
  50       5.533     1.662    15.930      -0.243
  51       8.967     3.032    16.669      -0.356
  52       7.282     3.672    17.983      -0.201
  53       5.962     2.293    18.267      -0.201
  54       5.276     1.507    15.861      -0.238
  55       7.215     0.386    17.409      -0.392
  56       2.178    -0.994    11.348      -0.280
  57       4.834    -0.125    17.042      -0.291
  58       7.008     0.738    15.642      -0.401
  59       6.057     1.836    15.527      -0.272
  60       4.710     0.013    14.600      -0.322
  61       6.828     1.481    16.614      -0.322
  62       5.783     1.293    15.351      -0.293
  63       2.108     0.010    12.416      -0.169
  64       4.840     0.202    12.389      -0.374
  65       7.357     1.441    16.354      -0.362
  66       4.708    -0.636    15.774      -0.339
  67       4.619     1.348    16.939      -0.193
  68       6.434     0.877    15.551      -0.357
  69       4.023     0.353    16.595      -0.221
  70       8.684     2.467    20.057      -0.310
  71       1.861    -0.298    12.348      -0.175
  72       6.113     1.312    18.644      -0.257
  73       3.922     1.119    16.016      -0.175
  74       2.830    -0.684    14.672      -0.240
  75       8.007     4.937    17.715      -0.173
  76       6.179     0.954    16.693      -0.313
  77       4.665    -1.317    16.158      -0.370
  78       3.556     1.212    13.625      -0.172
  79       6.125     1.464    16.624      -0.280
  80       4.112     0.421    14.299      -0.258
  81       6.659     2.198    17.351      -0.257
  82       4.271     1.544    12.993      -0.210
  83       6.812     2.730    17.038      -0.240
  84       5.363     0.914    15.407      -0.289
  85       5.542     0.952    14.283      -0.321
  86       5.910     1.772    14.211      -0.291
  87       4.411    -0.802    14.611      -0.357
  88       5.559     1.296    17.754      -0.240
 ---------------------------------------------------------------------



--------------------------------------------------------------------------------------------------------


 stress matrix after NEB project (eV)
    -43.96418      1.90117      1.83142
      1.87401    -38.94212     -0.00785
      1.79500      0.01111    -51.34406
  FORCES: max atom, RMS     2.967923    1.173256
  FORCE total and by dimension   11.006113    2.555297
  Stress total and by dimension   78.097711   51.344056
     LOOP+:  cpu time 4945.8509: real time 5044.2867
    4ORBIT:  cpu time    0.0000: real time    0.0000
 


 total charge     
 
# of ion       s       p       d       tot
------------------------------------------
    1        0.051   5.994   0.000   6.045
    2        0.054   5.998   0.000   6.052
    3        0.050   5.993   0.000   6.044
    4        0.055   5.999   0.000   6.054
    5        0.051   5.994   0.000   6.045
    6        0.052   5.997   0.000   6.049
    7        0.046   5.987   0.000   6.033
    8        0.056   6.001   0.000   6.056
    9        0.048   5.990   0.000   6.038
   10        0.058   6.004   0.000   6.063
   11        0.051   5.993   0.000   6.043
   12        0.051   5.995   0.000   6.046
   13        0.044   5.986   0.000   6.029
   14        0.048   5.991   0.000   6.039
   15        0.052   5.997   0.000   6.049
   16        0.049   5.992   0.000   6.041
   17        0.144   6.120   0.077   6.341
   18        0.154   6.138   0.092   6.383
   19        0.150   6.130   0.086   6.366
   20        0.151   6.133   0.088   6.371
   21        0.147   6.126   0.083   6.356
   22        0.146   6.122   0.080   6.348
   23        0.148   6.127   0.083   6.357
   24        0.145   6.121   0.078   6.344
   25        0.381   6.467   4.843  11.691
   26        0.389   6.486   4.862  11.737
   27        0.378   6.460   4.834  11.672
   28        0.380   6.466   4.850  11.696
   29        0.382   6.472   4.852  11.706
   30        0.372   6.450   4.825  11.647
   31        0.380   6.462   4.841  11.683
   32        0.376   6.455   4.825  11.656
   33        0.373   6.451   4.820  11.644
   34        0.388   6.482   4.847  11.716
   35        0.370   6.441   4.817  11.628
   36        0.384   6.475   4.852  11.712
   37        0.377   6.450   4.835  11.662
   38        0.370   6.446   4.823  11.639
   39        0.383   6.469   4.861  11.713
   40        0.383   6.467   4.850  11.700
   41        1.598   3.514   0.000   5.113
   42        1.600   3.525   0.000   5.125
   43        1.597   3.493   0.000   5.090
   44        1.605   3.526   0.000   5.131
   45        1.601   3.492   0.000   5.093
   46        1.599   3.487   0.000   5.087
   47        1.601   3.541   0.000   5.142
   48        1.601   3.515   0.000   5.116
   49        1.599   3.517   0.000   5.116
   50        1.599   3.521   0.000   5.121
   51        1.599   3.537   0.000   5.137
   52        1.598   3.514   0.000   5.113
   53        1.602   3.517   0.000   5.119
   54        1.598   3.497   0.000   5.095
   55        1.599   3.524   0.000   5.123
   56        1.596   3.476   0.000   5.071
   57        1.602   3.500   0.000   5.102
   58        1.598   3.526   0.000   5.124
   59        1.599   3.526   0.000   5.125
   60        1.597   3.477   0.000   5.074
   61        1.598   3.507   0.000   5.106
   62        1.598   3.536   0.000   5.134
   63        1.596   3.507   0.000   5.102
   64        1.597   3.523   0.000   5.121
   65        1.598   3.523   0.000   5.120
   66        1.598   3.515   0.000   5.113
   67        1.600   3.476   0.000   5.077
   68        1.601   3.513   0.000   5.114
   69        1.599   3.497   0.000   5.096
   70        1.603   3.526   0.000   5.130
   71        1.597   3.505   0.000   5.102
   72        1.601   3.514   0.000   5.115
   73        1.597   3.502   0.000   5.099
   74        1.599   3.488   0.000   5.087
   75        1.599   3.530   0.000   5.129
   76        1.598   3.489   0.000   5.088
   77        1.601   3.472   0.000   5.074
   78        1.598   3.508   0.000   5.107
   79        1.602   3.509   0.000   5.111
   80        1.598   3.476   0.000   5.074
   81        1.600   3.529   0.000   5.129
   82        1.595   3.478   0.000   5.074
   83        1.598   3.497   0.000   5.095
   84        1.598   3.521   0.000   5.119
   85        1.598   3.505   0.000   5.103
   86        1.598   3.516   0.000   5.113
   87        1.598   3.492   0.000   5.090
   88        1.604   3.537   0.000   5.141
--------------------------------------------------
tot         84.829 416.738  78.104 579.671
 


 magnetization (x)
 
# of ion       s       p       d       tot
------------------------------------------
    1        0.002   0.000   0.000   0.002
    2        0.002   0.000   0.000   0.002
    3        0.001   0.000   0.000   0.001
    4        0.001   0.000   0.000   0.001
    5        0.001   0.000   0.000   0.001
    6        0.001   0.000   0.000   0.001
    7        0.002   0.000   0.000   0.002
    8        0.001   0.001   0.000   0.002
    9        0.002   0.000   0.000   0.002
   10        0.001   0.000   0.000   0.002
   11        0.002   0.000   0.000   0.002
   12        0.001   0.001   0.000   0.002
   13        0.002   0.000   0.000   0.003
   14        0.002   0.000   0.000   0.002
   15        0.001   0.000   0.000   0.001
   16        0.002   0.000   0.000   0.002
   17        0.007   0.002   0.001   0.009
   18        0.007   0.002   0.001   0.011
   19        0.007   0.003   0.001   0.011
   20        0.007   0.002   0.001   0.011
   21        0.008   0.002   0.001   0.011
   22        0.008   0.002   0.001   0.011
   23        0.007   0.002   0.001   0.011
   24        0.007   0.002   0.001   0.010
   25        0.015   0.031   2.740   2.787
   26        0.015   0.031   2.725   2.771
   27        0.016   0.032   2.753   2.801
   28        0.016   0.030   2.748   2.794
   29        0.016   0.031   2.737   2.783
   30        0.015   0.030   2.761   2.806
   31        0.016   0.032   2.746   2.794
   32        0.015   0.030   2.760   2.804
   33        0.016   0.030   2.767   2.813
   34        0.016   0.032   2.731   2.779
   35        0.015   0.029   2.764   2.809
   36        0.015   0.030   2.726   2.771
   37        0.015   0.029   2.751   2.795
   38        0.015   0.029   2.766   2.811
   39        0.015   0.029   2.734   2.778
   40        0.015   0.030   2.740   2.785
   41        0.002   0.031   0.000   0.033
   42        0.002   0.043   0.000   0.045
   43        0.002   0.032   0.000   0.034
   44        0.002   0.053   0.000   0.055
   45        0.002   0.042   0.000   0.044
   46        0.002   0.027   0.000   0.029
   47        0.002   0.038   0.000   0.040
   48        0.002   0.028   0.000   0.030
   49        0.002   0.034   0.000   0.036
   50        0.002   0.038   0.000   0.040
   51        0.002   0.051   0.000   0.054
   52        0.002   0.056   0.000   0.058
   53        0.002   0.046   0.000   0.048
   54        0.002   0.032   0.000   0.034
   55        0.002   0.056   0.000   0.058
   56        0.001   0.007   0.000   0.008
   57        0.002   0.028   0.000   0.030
   58        0.002   0.039   0.000   0.041
   59        0.002   0.038   0.000   0.040
   60        0.002   0.016   0.000   0.018
   61        0.002   0.042   0.000   0.044
   62        0.002   0.038   0.000   0.040
   63        0.001   0.014   0.000   0.016
   64        0.002   0.023   0.000   0.025
   65        0.002   0.046   0.000   0.048
   66        0.002   0.040   0.000   0.042
   67        0.002   0.030   0.000   0.033
   68        0.002   0.037   0.000   0.039
   69        0.002   0.035   0.000   0.036
   70        0.002   0.069   0.000   0.071
   71        0.001   0.014   0.000   0.015
   72        0.002   0.049   0.000   0.051
   73        0.002   0.032   0.000   0.033
   74        0.002   0.019   0.000   0.020
   75        0.002   0.053   0.000   0.055
   76        0.002   0.034   0.000   0.037
   77        0.002   0.019   0.000   0.021
   78        0.002   0.018   0.000   0.020
   79        0.002   0.036   0.000   0.038
   80        0.002   0.021   0.000   0.023
   81        0.002   0.044   0.000   0.046
   82        0.002   0.015   0.000   0.017
   83        0.002   0.042   0.000   0.045
   84        0.002   0.034   0.000   0.036
   85        0.002   0.029   0.000   0.031
   86        0.002   0.024   0.000   0.026
   87        0.002   0.026   0.000   0.028
   88        0.002   0.045   0.000   0.047
--------------------------------------------------
tot          0.421   2.175  43.959  46.555
 

 total amount of memory used by VASP MPI-rank0    94435. kBytes
=======================================================================

   base      :      30000. kBytes
   nonlr-proj:      13676. kBytes
   fftplans  :       1275. kBytes
   grid      :      22786. kBytes
   one-center:       2737. kBytes
   wavefun   :      23961. kBytes
 
  
  
 General timing and accounting informations for this job:
 ========================================================
  
                  Total CPU time used (sec):     4966.703
                            User time (sec):     4923.769
                          System time (sec):       42.934
                         Elapsed time (sec):     5067.853
  
                   Maximum memory used (kb):      194196.
                   Average memory used (kb):           0.
  
                          Minor page faults:      1530151
                          Major page faults:            0
                 Voluntary context switches:      1741144
