 vasp.5.4.4.18Apr17-6-g9f103f2a35 (build Dec 02 2020 12:53:39) complex          
  
 executed on             LinuxIFC date 2021.08.04  02:27:52
 running on   96 total cores
 distrk:  each k-point on   96 cores,    1 groups
 distr:  one band on NCORES_PER_BAND=   1 cores,   96 groups


--------------------------------------------------------------------------------------------------------


 INCAR:
 POTCAR:    PAW_PBE Na_pv 19Sep2006               
 POTCAR:    PAW_PBE Mg_pv 13Apr2007               
 POTCAR:    PAW_PBE Mn_pv 02Aug2007               
 POTCAR:    PAW_PBE O 08Apr2002                   

 ----------------------------------------------------------------------------- 
|                                                                             |
|           W    W    AA    RRRRR   N    N  II  N    N   GGGG   !!!           |
|           W    W   A  A   R    R  NN   N  II  NN   N  G    G  !!!           |
|           W    W  A    A  R    R  N N  N  II  N N  N  G       !!!           |
|           W WW W  AAAAAA  RRRRR   N  N N  II  N  N N  G  GGG   !            |
|           WW  WW  A    A  R   R   N   NN  II  N   NN  G    G                |
|           W    W  A    A  R    R  N    N  II  N    N   GGGG   !!!           |
|                                                                             |
|      For optimal performance we recommend to set                            |
|        NCORE= 4 - approx SQRT( number of cores)                             |
|      NCORE specifies how many cores store one orbital (NPAR=cpu/NCORE).     |
|      This setting can  greatly improve the performance of VASP for DFT.     |
|      The default,   NCORE=1            might be grossly inefficient         |
|      on modern multi-core architectures or massively parallel machines.     |
|      Do your own testing !!!!                                               |
|      Unfortunately you need to use the default for GW and RPA calculations. |
|      (for HF NCORE is supported but not extensively tested yet)             |
|                                                                             |
 ----------------------------------------------------------------------------- 

 POTCAR:    PAW_PBE Na_pv 19Sep2006               
   VRHFIN =Na: p6s1                                                             
   LEXCH  = PE                                                                  
   EATOM  =   766.0439 eV,   56.3026 Ry                                         
                                                                                
   TITEL  = PAW_PBE Na_pv 19Sep2006                                             
   LULTRA =        F    use ultrasoft PP ?                                      
   IUNSCR =        1    unscreen: 0-lin 1-nonlin 2-no                           
   RPACOR =    1.800    partial core radius                                     
   POMASS =   22.990; ZVAL   =    7.000    mass and valenz                      
   RCORE  =    2.200    outmost cutoff radius                                   
   RWIGS  =    2.200; RWIGS  =    1.164    wigner-seitz radius (au A)           
   ENMAX  =  259.561; ENMIN  =  194.671 eV                                      
   ICORE  =        2    local potential                                         
   LCOR   =        T    correct aug charges                                     
   LPAW   =        T    paw PP                                                  
   EAUG   =  368.056                                                            
   DEXC   =    0.000                                                            
   RMAX   =    2.245    core radius for proj-oper                               
   RAUG   =    1.300    factor for augmentation sphere                          
   RDEP   =    2.259    radius for radial grids                                 
   RDEPT  =    1.738    core radius for aug-charge                              
                                                                                
   Atomic configuration                                                         
    5 entries                                                                   
     n  l   j            E        occ.                                          
     1  0  0.50     -1033.6933   2.0000                                         
     2  0  0.50       -56.7526   2.0000                                         
     2  1  1.50       -28.6721   6.0000                                         
     3  0  0.50        -2.7440   1.0000                                         
     3  2  1.50        -1.3606   0.0000                                         
   Description                                                                  
     l       E           TYP  RCUT    TYP  RCUT                                 
     1    -28.6720912     23  2.000                                             
     1      6.8029130     23  2.000                                             
     0     -2.7439560     23  2.200                                             
     0     34.0145650     23  2.200                                             
     2     -1.3605826     23  2.200                                             
  local pseudopotential read in
  partial core-charges read in
  partial kinetic energy density read in
  atomic valenz-charges read in
  non local Contribution for L=           1  read in
    real space projection operators read in
  non local Contribution for L=           1  read in
    real space projection operators read in
  non local Contribution for L=           0  read in
    real space projection operators read in
  non local Contribution for L=           0  read in
    real space projection operators read in
    PAW grid and wavefunctions read in
 
   number of l-projection  operators is LMAX  =           4
   number of lm-projection operators is LMMAX =           8
 
 POTCAR:    PAW_PBE Mg_pv 13Apr2007               
   VRHFIN =Mg: p6s2                                                             
   LEXCH  = PE                                                                  
   EATOM  =  1056.7344 eV,   77.6678 Ry                                         
                                                                                
   TITEL  = PAW_PBE Mg_pv 13Apr2007                                             
   LULTRA =        F    use ultrasoft PP ?                                      
   IUNSCR =        1    unscreen: 0-lin 1-nonlin 2-no                           
   RPACOR =    1.500    partial core radius                                     
   POMASS =   24.305; ZVAL   =    8.000    mass and valenz                      
   RCORE  =    2.000    outmost cutoff radius                                   
   RWIGS  =    2.000; RWIGS  =    1.058    wigner-seitz radius (au A)           
   ENMAX  =  403.929; ENMIN  =  302.947 eV                                      
   RCLOC  =    1.506    cutoff for local pot                                    
   LCOR   =        T    correct aug charges                                     
   LPAW   =        T    paw PP                                                  
   EAUG   =  758.780                                                            
   DEXC   =    0.000                                                            
   RMAX   =    2.045    core radius for proj-oper                               
   RAUG   =    1.300    factor for augmentation sphere                          
   RDEP   =    2.025    radius for radial grids                                 
   RDEPT  =    1.557    core radius for aug-charge                              
                                                                                
   Atomic configuration                                                         
    5 entries                                                                   
     n  l   j            E        occ.                                          
     1  0  0.50     -1259.6230   2.0000                                         
     2  0  0.50       -79.8442   2.0000                                         
     2  1  1.50       -46.6121   6.0000                                         
     3  0  0.50        -4.7055   2.0000                                         
     3  2  1.50        -1.3606   0.0000                                         
   Description                                                                  
     l       E           TYP  RCUT    TYP  RCUT                                 
     1    -46.6121073     23  1.600                                             
     1      2.7211652     23  1.600                                             
     0     -4.7054661     23  2.000                                             
     0     61.2262170     23  2.000                                             
     2     -1.3605826     23  2.000                                             
  local pseudopotential read in
  partial core-charges read in
  partial kinetic energy density read in
  atomic valenz-charges read in
  non local Contribution for L=           1  read in
    real space projection operators read in
  non local Contribution for L=           1  read in
    real space projection operators read in
  non local Contribution for L=           0  read in
    real space projection operators read in
  non local Contribution for L=           0  read in
    real space projection operators read in
  non local Contribution for L=           2  read in
    real space projection operators read in
    PAW grid and wavefunctions read in
 
   number of l-projection  operators is LMAX  =           5
   number of lm-projection operators is LMMAX =          13
 
 POTCAR:    PAW_PBE Mn_pv 02Aug2007               
   VRHFIN =Mn: 3p4s3d                                                           
   LEXCH  = PE                                                                  
   EATOM  =  2025.2664 eV,  148.8529 Ry                                         
                                                                                
   TITEL  = PAW_PBE Mn_pv 02Aug2007                                             
   LULTRA =        F    use ultrasoft PP ?                                      
   IUNSCR =        1    unscreen: 0-lin 1-nonlin 2-no                           
   RPACOR =    2.080    partial core radius                                     
   POMASS =   54.938; ZVAL   =   13.000    mass and valenz                      
   RCORE  =    2.300    outmost cutoff radius                                   
   RWIGS  =    2.500; RWIGS  =    1.323    wigner-seitz radius (au A)           
   ENMAX  =  269.864; ENMIN  =  202.398 eV                                      
   ICORE  =        3    local potential                                         
   LCOR   =        T    correct aug charges                                     
   LPAW   =        T    paw PP                                                  
   EAUG   =  569.085                                                            
   DEXC   =    0.000                                                            
   RMAX   =    2.343    core radius for proj-oper                               
   RAUG   =    1.300    factor for augmentation sphere                          
   RDEP   =    2.338    radius for radial grids                                 
   RDEPT  =    1.798    core radius for aug-charge                              
                                                                                
   Atomic configuration                                                         
    8 entries                                                                   
     n  l   j            E        occ.                                          
     1  0  0.50     -6424.8287   2.0000                                         
     2  0  0.50      -739.1154   2.0000                                         
     2  1  1.50      -625.3949   6.0000                                         
     3  0  0.50       -81.6100   2.0000                                         
     3  1  1.50       -50.4667   6.0000                                         
     3  2  2.50        -3.3745   6.0000                                         
     4  0  0.50        -4.1331   1.0000                                         
     4  3  2.50        -1.3606   0.0000                                         
   Description                                                                  
     l       E           TYP  RCUT    TYP  RCUT                                 
     1    -50.4666628     23  2.000                                             
     1     -1.3605826     23  2.000                                             
     2     -3.3744729     23  2.300                                             
     2     -4.7350555     23  2.300                                             
     0     -4.1331431     23  2.300                                             
     0      7.6656591     23  2.300                                             
     3      9.5240782     23  2.300                                             
  local pseudopotential read in
  partial core-charges read in
  partial kinetic energy density read in
  atomic valenz-charges read in
  non local Contribution for L=           1  read in
    real space projection operators read in
  non local Contribution for L=           1  read in
    real space projection operators read in
  non local Contribution for L=           2  read in
    real space projection operators read in
  non local Contribution for L=           2  read in
    real space projection operators read in
  non local Contribution for L=           0  read in
    real space projection operators read in
  non local Contribution for L=           0  read in
    real space projection operators read in
    PAW grid and wavefunctions read in
 
   number of l-projection  operators is LMAX  =           6
   number of lm-projection operators is LMMAX =          18
 
 POTCAR:    PAW_PBE O 08Apr2002                   
   VRHFIN =O: s2p4                                                              
   LEXCH  = PE                                                                  
   EATOM  =   432.3788 eV,   31.7789 Ry                                         
                                                                                
   TITEL  = PAW_PBE O 08Apr2002                                                 
   LULTRA =        F    use ultrasoft PP ?                                      
   IUNSCR =        1    unscreen: 0-lin 1-nonlin 2-no                           
   RPACOR =    1.200    partial core radius                                     
   POMASS =   16.000; ZVAL   =    6.000    mass and valenz                      
   RCORE  =    1.520    outmost cutoff radius                                   
   RWIGS  =    1.550; RWIGS  =    0.820    wigner-seitz radius (au A)           
   ENMAX  =  400.000; ENMIN  =  300.000 eV                                      
   ICORE  =        2    local potential                                         
   LCOR   =        T    correct aug charges                                     
   LPAW   =        T    paw PP                                                  
   EAUG   =  605.392                                                            
   DEXC   =    0.000                                                            
   RMAX   =    1.553    core radius for proj-oper                               
   RAUG   =    1.300    factor for augmentation sphere                          
   RDEP   =    1.550    radius for radial grids                                 
   RDEPT  =    1.329    core radius for aug-charge                              
                                                                                
   Atomic configuration                                                         
    4 entries                                                                   
     n  l   j            E        occ.                                          
     1  0  0.50      -514.6923   2.0000                                         
     2  0  0.50       -23.9615   2.0000                                         
     2  1  0.50        -9.0305   4.0000                                         
     3  2  1.50        -9.5241   0.0000                                         
   Description                                                                  
     l       E           TYP  RCUT    TYP  RCUT                                 
     0    -23.9615318     23  1.200                                             
     0     -9.5240782     23  1.200                                             
     1     -9.0304911     23  1.520                                             
     1      8.1634956     23  1.520                                             
     2     -9.5240782      7  1.500                                             
  local pseudopotential read in
  partial core-charges read in
  partial kinetic energy density read in
  kinetic energy density of atom read in
  atomic valenz-charges read in
  non local Contribution for L=           0  read in
    real space projection operators read in
  non local Contribution for L=           0  read in
    real space projection operators read in
  non local Contribution for L=           1  read in
    real space projection operators read in
  non local Contribution for L=           1  read in
    real space projection operators read in
    PAW grid and wavefunctions read in
 
   number of l-projection  operators is LMAX  =           4
   number of lm-projection operators is LMMAX =           8
 
 Optimization of the real space projectors (new method)

 maximal supplied QI-value         = 17.01
 optimisation between [QCUT,QGAM] = [ 10.20, 20.41] = [ 29.16,116.64] Ry 
 Optimized for a Real-space Cutoff    1.30 Angstroem

   l    n(q)    QCUT    max X(q) W(low)/X(q) W(high)/X(q)  e(spline) 
   1      7    10.205     4.940    0.23E-03    0.84E-03    0.11E-06
   1      7    10.205     6.253    0.40E-03    0.13E-02    0.18E-06
   0      8    10.205    37.438    0.23E-03    0.37E-03    0.42E-07
   0      8    10.205     9.606    0.16E-03    0.26E-03    0.31E-07
 Optimization of the real space projectors (new method)

 maximal supplied QI-value         = 18.90
 optimisation between [QCUT,QGAM] = [ 10.20, 20.41] = [ 29.16,116.64] Ry 
 Optimized for a Real-space Cutoff    1.26 Angstroem

   l    n(q)    QCUT    max X(q) W(low)/X(q) W(high)/X(q)  e(spline) 
   1      7    10.205     2.974    0.63E-04    0.14E-03    0.13E-06
   1      7    10.205     4.279    0.11E-03    0.45E-03    0.24E-06
   0      8    10.205    16.381    0.44E-03    0.15E-03    0.55E-07
   0      8    10.205     5.611    0.31E-03    0.11E-03    0.40E-07
   2      7    10.205     4.652    0.50E-03    0.47E-03    0.57E-07
 Optimization of the real space projectors (new method)

 maximal supplied QI-value         = 16.25
 optimisation between [QCUT,QGAM] = [ 10.24, 20.48] = [ 29.35,117.42] Ry 
 Optimized for a Real-space Cutoff    1.34 Angstroem

   l    n(q)    QCUT    max X(q) W(low)/X(q) W(high)/X(q)  e(spline) 
   1      8    10.239     3.658    0.23E-03    0.30E-03    0.98E-07
   1      8    10.239     5.612    0.32E-03    0.65E-03    0.21E-06
   2      7    10.239    55.373    0.42E-03    0.45E-03    0.65E-07
   2      7    10.239    50.863    0.43E-03    0.48E-03    0.67E-07
   0      8    10.239    79.536    0.11E-03    0.21E-03    0.56E-07
   0      8    10.239    38.668    0.96E-04    0.19E-03    0.52E-07
 Optimization of the real space projectors (new method)

 maximal supplied QI-value         = 24.76
 optimisation between [QCUT,QGAM] = [ 10.15, 20.30] = [ 28.85,115.39] Ry 
 Optimized for a Real-space Cutoff    1.38 Angstroem

   l    n(q)    QCUT    max X(q) W(low)/X(q) W(high)/X(q)  e(spline) 
   0      8    10.150    20.381    0.22E-03    0.32E-03    0.29E-06
   0      8    10.150    15.268    0.23E-03    0.35E-03    0.30E-06
   1      8    10.150     5.964    0.46E-03    0.53E-03    0.21E-06
   1      8    10.150     5.382    0.38E-03    0.45E-03    0.19E-06
  PAW_PBE Na_pv 19Sep2006               :
 energy of atom  1       EATOM= -766.0439
 kinetic energy error for atom=    0.0103 (will be added to EATOM!!)
  PAW_PBE Mg_pv 13Apr2007               :
 energy of atom  2       EATOM=-1056.7344
 kinetic energy error for atom=    0.0820 (will be added to EATOM!!)
  PAW_PBE Mn_pv 02Aug2007               :
 energy of atom  3       EATOM=-2025.2664
 kinetic energy error for atom=    0.0284 (will be added to EATOM!!)
  PAW_PBE O 08Apr2002                   :
 energy of atom  4       EATOM= -432.3788
 kinetic energy error for atom=    0.1156 (will be added to EATOM!!)
 
 
 POSCAR: Na Mg Mn  O                             
  positions in cartesian coordinates
  No initial velocities read in

 METAGGA = SCAN     LMAXTAU =  6    LMIXTAU =  F

 exchange correlation table for  LEXCH =        8
   RHO(1)=    0.500       N(1)  =     2000
   RHO(2)=  100.500       N(2)  =     4000

 VTST: version 3.2, (02/03/18)

 CHAIN: initializing optimizer
 
 OPT: Using VASP Dynamics algorithm
 CHAIN: Read ICHAIN            0
 
 POSCAR: Na Mg Mn  O                             
  positions in cartesian coordinates
  No initial velocities read in
 


--------------------------------------------------------------------------------------------------------


 ion  position               nearest neighbor table
   1  0.128  0.182  0.252-  41 2.20  50 2.21
   2  0.606  0.002  0.755-  59 2.18  84 2.26  56 2.33  81 2.37  29 2.77  31 2.98
   3  0.965  0.215  0.753-  58 2.27  57 2.27  61 2.29  60 2.35  30 2.86  32 2.91
   4  0.889  0.480  0.745-  68 2.35  60 2.36
   5  0.293  0.529  0.251-  87 2.30  78 2.30
   6  0.272  0.848  0.244-
   7  0.480  0.242  0.746-  45 2.18  49 2.25  48 2.30  28 2.85  26 2.97
   8  0.259  0.706  0.734-  81 2.21  70 2.23  80 2.35
   9  0.924  0.377  0.252-
  10  0.908  0.730  0.246-  65 2.25  74 2.38  34 2.92
  11  0.533  0.191  0.251-  52 2.19  42 2.23  51 2.34  26 2.97  28 2.98
  12  0.401  0.501  0.746-  80 2.33  82 2.35
  13  0.752  0.697  0.750-  85 2.30  71 2.31  69 2.32  82 2.35
  14  0.111  0.025  0.750-  47 2.23  44 2.25  58 2.35  27 2.80  25 2.93
  15  0.578  0.523  0.254-  87 2.31  35 2.79  33 2.87
  16  0.751  0.987  0.248-  79 2.33  54 2.36
  17  0.754  0.371  0.992-  71 1.97  66 1.99  43 2.01  49 2.09  60 2.14  53 2.24  33 2.81  26 2.85
                            34 2.85
  18  0.756  0.338  0.503-  46 1.99  75 2.00  57 2.06  62 2.09  52 2.19  68 2.21  32 2.84
  19  0.266  0.371  0.991-  48 2.01  83 2.02  41 2.03  78 2.03  61 2.07  55 2.10  26 2.83  33 2.83

  20  0.258  0.344  0.502-  45 2.00  50 2.03  87 2.04  58 2.11  64 2.12  80 2.13  35 2.83  28 2.84

  21  0.269  0.876  0.985-  84 1.98  47 1.98  67 2.02  42 2.02  73 2.11  29 2.82  38 2.85
  22  0.249  0.846  0.510-  76 1.96  44 1.97  51 2.05  70 2.10  86 2.12  81 2.17  28 2.85
  23  0.753  0.861  0.990-  72 2.02  79 2.06  65 2.07  59 2.09  85 2.10  54 2.23  33 2.85
  24  0.751  0.844  0.501-  74 1.95  69 2.04  88 2.05  56 2.05  63 2.10  82 2.12  36 2.85
  25  0.098  0.037  0.010-  61 1.84  72 1.90  54 1.91  47 1.94  41 1.96  67 2.04  26 2.85  30 2.87
                            14 2.93  34 2.94
  26  0.426  0.205  0.007-  41 1.85  43 1.86  48 1.88  42 1.90  49 1.97  47 1.98  19 2.83  25 2.85
                            17 2.85  33 2.85  29 2.95  11 2.97   7 2.97
  27  0.080  0.006  0.501-  76 1.84  63 1.89  58 1.92  50 1.92  69 1.95  44 1.96  14 2.80  36 2.82
                            32 2.86  28 2.92
  28  0.416  0.174  0.499-  51 1.90  50 1.91  52 1.93  46 1.93  44 1.94  45 1.98  20 2.84   7 2.85
                            22 2.85  31 2.88  27 2.92  35 2.94  11 2.98
  29  0.593  0.032  1.000-  59 1.90  53 1.91  49 1.92  84 1.96  42 1.98  79 2.02   2 2.77  21 2.82
                            38 2.87  26 2.95  30 2.97
  30  0.935  0.205  0.007-  55 1.88  60 1.90  53 1.94  54 1.95  61 1.95  59 2.01   3 2.86  25 2.87
                            37 2.90  29 2.97
  31  0.578  0.004  0.490-  46 1.86  51 1.88  88 1.90  81 1.96  56 2.00  62 2.03  40 2.81  28 2.88
                             2 2.98  32 3.00
  32  0.923  0.178  0.495-  57 1.86  56 1.91  63 1.94  58 1.96  64 1.97  62 2.01  18 2.84  27 2.86
                             3 2.91  39 2.93  31 3.00
  33  0.592  0.533  0.999-  65 1.87  78 1.89  43 1.91  48 1.97  71 1.98  85 1.98  17 2.81  19 2.83
                            23 2.85  26 2.85  15 2.87  34 2.92  38 2.93
  34  0.928  0.700  0.989-  72 1.83  66 1.94  73 1.96  67 1.97  71 1.98  65 2.00  37 2.84  17 2.85
                            33 2.92  10 2.92  25 2.94
  35  0.584  0.513  0.502-  82 1.82  87 1.88  74 1.88  68 1.91  45 1.91  52 1.98  15 2.79  20 2.83
                            40 2.87  36 2.89  28 2.94
  36  0.916  0.682  0.518-  69 1.85  76 1.89  70 1.91  75 1.91  68 1.96  74 2.00  27 2.82  24 2.85
                            35 2.89  39 2.90
  37  0.095  0.539  0.998-  77 1.87  83 1.93  73 1.94  60 1.97  66 1.98  55 2.01  38 2.84  34 2.84
                            30 2.90
  38  0.422  0.701  0.994-  77 1.76  84 1.91  79 1.91  78 1.96  83 1.98  85 2.02  37 2.84  21 2.85
                            29 2.87  33 2.93
  39  0.085  0.516  0.506-  86 1.92  57 1.94  75 1.95  80 1.96  70 1.97  64 1.98  36 2.90  40 2.91
                            32 2.93
  40  0.421  0.681  0.503-  80 1.87  86 1.88  81 1.91  88 1.91  87 1.92  82 1.98  31 2.81  35 2.87
                            39 2.91
  41  0.270  0.207  0.095-  26 1.85  25 1.96  19 2.03   1 2.20
  42  0.429  0.042  0.091-  26 1.90  29 1.98  21 2.02  11 2.23
  43  0.584  0.368  0.090-  26 1.86  33 1.91  17 2.01
  44  0.251  0.019  0.595-  28 1.94  27 1.96  22 1.97  14 2.25
  45  0.430  0.347  0.594-  35 1.91  28 1.98  20 2.00   7 2.18
  46  0.578  0.160  0.581-  31 1.86  28 1.93  18 1.99
  47  0.259  0.048  0.907-  25 1.94  26 1.98  21 1.98  14 2.23
  48  0.436  0.359  0.905-  26 1.88  33 1.97  19 2.01   7 2.30
  49  0.574  0.182  0.906-  29 1.92  26 1.97  17 2.09   7 2.25
  50  0.248  0.164  0.411-  28 1.91  27 1.92  20 2.03   1 2.21
  51  0.420  0.016  0.408-  31 1.88  28 1.90  22 2.05  11 2.34
  52  0.569  0.342  0.404-  28 1.93  35 1.98  11 2.19  18 2.19
  53  0.758  0.181  0.095-  29 1.91  30 1.94  17 2.24
  54  0.941  0.045  0.101-  25 1.91  30 1.95  23 2.23  16 2.36
  55  0.090  0.369  0.095-  30 1.88  37 2.01  19 2.10
  56  0.755  0.026  0.587-  32 1.91  31 2.00  24 2.05   2 2.33
  57  0.934  0.335  0.592-  32 1.86  39 1.94  18 2.06   3 2.27
  58  0.074  0.162  0.596-  27 1.92  32 1.96  20 2.11   3 2.27  14 2.35
  59  0.760  0.050  0.907-  29 1.90  30 2.01  23 2.09   2 2.18
  60  0.939  0.361  0.907-  30 1.90  37 1.97  17 2.14   3 2.35   4 2.36
  61  0.084  0.178  0.914-  25 1.84  30 1.95  19 2.07   3 2.29
  62  0.754  0.169  0.393-  32 2.01  31 2.03  18 2.09
  63  0.933  0.019  0.404-  27 1.89  32 1.94  24 2.10
  64  0.082  0.353  0.404-  32 1.97  39 1.98  20 2.12
  65  0.755  0.686  0.087-  33 1.87  34 2.00  23 2.07  10 2.25
  66  0.924  0.538  0.086-  34 1.94  37 1.98  17 1.99
  67  0.095  0.853  0.091-  34 1.97  21 2.02  25 2.04
  68  0.739  0.518  0.604-  35 1.91  36 1.96  18 2.21   4 2.35
  69  0.922  0.845  0.600-  36 1.85  27 1.95  24 2.04  13 2.32
  70  0.071  0.668  0.608-  36 1.91  39 1.97  22 2.10   8 2.23
  71  0.755  0.536  0.897-  17 1.97  33 1.98  34 1.98  13 2.31
  72  0.944  0.872  0.918-  34 1.83  25 1.90  23 2.02
  73  0.087  0.690  0.894-  37 1.94  34 1.96  21 2.11
  74  0.747  0.672  0.417-  35 1.88  24 1.95  36 2.00  10 2.38
  75  0.921  0.527  0.422-  36 1.91  39 1.95  18 2.00
  76  0.074  0.840  0.427-  27 1.84  36 1.89  22 1.96
  77  0.268  0.680  0.084-  38 1.76  37 1.87
  78  0.437  0.544  0.087-  33 1.89  38 1.96  19 2.03   5 2.30
  79  0.580  0.854  0.093-  38 1.91  29 2.02  23 2.06  16 2.33
  80  0.260  0.531  0.594-  40 1.87  39 1.96  20 2.13  12 2.33   8 2.35
  81  0.439  0.844  0.602-  40 1.91  31 1.96  22 2.17   8 2.21   2 2.37
  82  0.574  0.656  0.597-  35 1.82  40 1.98  24 2.12  13 2.35  12 2.35
  83  0.252  0.537  0.899-  37 1.93  38 1.98  19 2.02
  84  0.437  0.867  0.900-  38 1.91  29 1.96  21 1.98   2 2.26
  85  0.578  0.682  0.891-  33 1.98  38 2.02  23 2.10  13 2.30
  86  0.255  0.667  0.413-  40 1.88  39 1.92  22 2.12
  87  0.431  0.523  0.412-  35 1.88  40 1.92  20 2.04   5 2.30  15 2.31
  88  0.575  0.839  0.405-  31 1.90  40 1.91  24 2.05
 
  LATTYP: Found a hexagonal cell.
 ALAT       =    10.0190000534
 C/A-ratio  =     1.1196726572
  
  Lattice vectors:
  
 A1 = (  10.0190000534,   0.0000000000,   0.0000000000)
 A2 = (  -5.0095000267,   8.6767085668,   0.0000000000)
 A3 = (   0.0000000000,   0.0000000000,  11.2180004120)


Analysis of symmetry for initial positions (statically):
=====================================================================
 Subroutine PRICEL returns:
 Original cell was already a primitive cell.
 

 Routine SETGRP: Setting up the symmetry group for a 
 hexagonal supercell.


 Subroutine GETGRP returns: Found  1 space group operations
 (whereof  1 operations were pure point group operations)
 out of a pool of 24 trial point group operations.


The static configuration has the point symmetry C_1 .


Analysis of symmetry for dynamics (positions and initial velocities):
=====================================================================
 Subroutine PRICEL returns:
 Original cell was already a primitive cell.
 

 Routine SETGRP: Setting up the symmetry group for a 
 hexagonal supercell.


 Subroutine GETGRP returns: Found  1 space group operations
 (whereof  1 operations were pure point group operations)
 out of a pool of 24 trial point group operations.


The dynamic configuration has the point symmetry C_1 .


Analysis of structural, dynamic, and magnetic symmetry:
=====================================================================
 Subroutine PRICEL returns:
 Original cell was already a primitive cell.
 

 Routine SETGRP: Setting up the symmetry group for a 
 hexagonal supercell.


 Subroutine GETGRP returns: Found  1 space group operations
 (whereof  1 operations were pure point group operations)
 out of a pool of 24 trial point group operations.


The magnetic configuration has the point symmetry C_1 .


 Subroutine INISYM returns: Found  1 space group operations
 (whereof  1 operations are pure point group operations),
 and found     1 'primitive' translations

 
 

Automatic generation of k-mesh.
 generate k-points for:    2    2    2
Space group operators:
 irot       det(A)        alpha          n_x          n_y          n_z        tau_x        tau_y        tau_z
    1     1.000000     0.000000     1.000000     0.000000     0.000000     0.000000     0.000000     0.000000
 
 Subroutine IBZKPT returns following result:
 ===========================================
 
 Found      8 irreducible k-points:
 
 Following reciprocal coordinates:
            Coordinates               Weight
  0.000000  0.000000  0.000000      1.000000
  0.500000 -0.000000 -0.000000      1.000000
  0.000000  0.500000  0.000000      1.000000
  0.500000  0.500000 -0.000000      1.000000
  0.000000  0.000000  0.500000      1.000000
  0.500000 -0.000000  0.500000      1.000000
  0.000000  0.500000  0.500000      1.000000
  0.500000  0.500000  0.500000      1.000000
 
 Following cartesian coordinates:
            Coordinates               Weight
  0.000000  0.000000  0.000000      1.000000
  0.049905  0.028813 -0.000000      1.000000
  0.000000  0.057626  0.000000      1.000000
  0.049905  0.086438 -0.000000      1.000000
  0.000000  0.000000  0.044571      1.000000
  0.049905  0.028813  0.044571      1.000000
  0.000000  0.057626  0.044571      1.000000
  0.049905  0.086438  0.044571      1.000000
 


--------------------------------------------------------------------------------------------------------




 Dimension of arrays:
   k-points           NKPTS =      8   k-points in BZ     NKDIM =      8   number of bands    NBANDS=    480
   number of dos      NEDOS =    301   number of ions     NIONS =     88
   non local maximal  LDIM  =      6   non local SUM 2l+1 LMDIM =     18
   total plane-waves  NPLWV = 140000
   max r-space proj   IRMAX =   1632   max aug-charges    IRDMAX=   4555
   dimension x,y,z NGX =    50 NGY =   50 NGZ =   56
   dimension x,y,z NGXF=   100 NGYF=  100 NGZF=  112
   support grid    NGXF=   100 NGYF=  100 NGZF=  112
   ions per type =              16   8  16  48
   NGX,Y,Z   is equivalent  to a cutoff of   8.30,  8.30,  8.30 a.u.
   NGXF,Y,Z  is equivalent  to a cutoff of  16.59, 16.59, 16.60 a.u.

 SYSTEM =  unknown system                          
 POSCAR =  Na Mg Mn  O                             

 Startparameter for this run:
   NWRITE =      2    write-flag & timer
   PREC   = normal    normal or accurate (medium, high low for compatibility)
   ISTART =      0    job   : 0-new  1-cont  2-samecut
   ICHARG =      1    charge: 1-file 2-atom 10-const
   ISPIN  =      2    spin polarized calculation?
   LNONCOLLINEAR =      F non collinear calculations
   LSORBIT =      F    spin-orbit coupling
   INIWAV =      1    electr: 0-lowe 1-rand  2-diag
   LASPH  =      T    aspherical Exc in radial PAW
   METAGGA=      F    non-selfconsistent MetaGGA calc.

 Electronic Relaxation 1
   ENCUT  =  400.0 eV  29.40 Ry    5.42 a.u.  16.34 16.34 18.29*2*pi/ulx,y,z
   ENINI  =  400.0     initial cutoff
   ENAUG  =  758.8 eV  augmentation charge cutoff
   NELM   =    200;   NELMIN=  6; NELMDL=-12     # of ELM steps 
   EDIFF  = 0.1E-04   stopping-criterion for ELM
   LREAL  =      T    real-space projection
   NLSPLINE    = F    spline interpolate recip. space projectors
   LCOMPAT=      F    compatible to vasp.4.4
   GGA_COMPAT  = T    GGA compatible to vasp.4.4-vasp.4.6
   LMAXPAW     = -100 max onsite density
   LMAXMIX     =    4 max onsite mixed and CHGCAR
   VOSKOWN=      0    Vosko Wilk Nusair interpolation
   ROPT   =   -0.00050  -0.00050  -0.00050  -0.00050
 Ionic relaxation
   EDIFFG = 0.1E-03   stopping-criterion for IOM
   NSW    =      1    number of steps for IOM
   NBLOCK =      1;   KBLOCK =      1    inner block; outer block 
   IBRION =     -1    ionic relax: 0-MD 1-quasi-New 2-CG
   NFREE  =      0    steps in history (QN), initial steepest desc. (CG)
   ISIF   =      2    stress and relaxation
   IWAVPR =     10    prediction:  0-non 1-charg 2-wave 3-comb
   ISYM   =      2    0-nonsym 1-usesym 2-fastsym
   LCORR  =      T    Harris-Foulkes like correction to forces

   POTIM  = 0.5000    time-step for ionic-motion
   TEIN   =    0.0    initial temperature
   TEBEG  =    0.0;   TEEND  =   0.0 temperature during run
   SMASS  =  -3.00    Nose mass-parameter (am)
   estimated Nose-frequenzy (Omega)   =  0.10E-29 period in steps =****** mass=  -0.229E-26a.u.
   SCALEE = 1.0000    scale energy and forces
   NPACO  =    256;   APACO  = 16.0  distance and # of slots for P.C.
   PSTRESS=    0.0 pullay stress

  Mass of Ions in am
   POMASS =  22.99 24.30 54.94 16.00
  Ionic Valenz
   ZVAL   =   7.00  8.00 13.00  6.00
  Atomic Wigner-Seitz radii
   RWIGS  =  -1.00 -1.00 -1.00 -1.00
  virtual crystal weights 
   VCA    =   1.00  1.00  1.00  1.00
   NELECT =     672.0000    total number of electrons
   NUPDOWN=      48.0000    fix difference up-down

 DOS related values:
   EMIN   =  10.00;   EMAX   =-10.00  energy-range for DOS
   EFERMI =   0.00
   ISMEAR =     0;   SIGMA  =   0.05  broadening in eV -4-tet -1-fermi 0-gaus

 Electronic relaxation 2 (details)
   IALGO  =     48    algorithm
   LDIAG  =      T    sub-space diagonalisation (order eigenvalues)
   LSUBROT=      F    optimize rotation matrix (better conditioning)
   TURBO    =      0    0=normal 1=particle mesh
   IRESTART =      0    0=no restart 2=restart with 2 vectors
   NREBOOT  =      0    no. of reboots
   NMIN     =      0    reboot dimension
   EREF     =   0.00    reference energy to select bands
   IMIX   =      4    mixing-type and parameters
     AMIX     =   0.40;   BMIX     =  1.00
     AMIX_MAG =   1.60;   BMIX_MAG =  1.00
     AMIN     =   0.10
     WC   =   100.;   INIMIX=   1;  MIXPRE=   1;  MAXMIX= -45

 Intra band minimization:
   WEIMIN = 0.0000     energy-eigenvalue tresh-hold
   EBREAK =  0.52E-08  absolut break condition
   DEPER  =   0.30     relativ break condition  

   TIME   =   0.40     timestep for ELM

  volume/ion in A,a.u.               =      11.08        74.78
  Fermi-wavevector in a.u.,A,eV,Ry     =   1.445993  2.732531 28.448379  2.090897
  Thomas-Fermi vector in A             =   2.564112
 
 Write flags
   LWAVE        =      F    write WAVECAR
   LDOWNSAMPLE  =      F    k-point downsampling of WAVECAR
   LCHARG       =      F    write CHGCAR
   LVTOT        =      F    write LOCPOT, total local potential
   LVHAR        =      F    write LOCPOT, Hartree potential only
   LELF         =      F    write electronic localiz. function (ELF)
   LORBIT       =     11    0 simple, 1 ext, 2 COOP (PROOUT), +10 PAW based schemes


 Dipole corrections
   LMONO  =      F    monopole corrections only (constant potential shift)
   LDIPOL =      F    correct potential (dipole corrections)
   IDIPOL =      0    1-x, 2-y, 3-z, 4-all directions 
   EPSILON=  1.0000000 bulk dielectric constant

 Exchange correlation treatment:
   GGA     =    --    GGA type
   LEXCH   =     8    internal setting for exchange type
   VOSKOWN=      0    Vosko Wilk Nusair interpolation
   LHFCALC =     F    Hartree Fock is set to
   LHFONE  =     F    Hartree Fock one center treatment
   AEXX    =    0.0000 exact exchange contribution

 Linear response parameters
   LEPSILON=     F    determine dielectric tensor
   LRPA    =     F    only Hartree local field effects (RPA)
   LNABLA  =     F    use nabla operator in PAW spheres
   LVEL    =     F    velocity operator in full k-point grid
   LINTERFAST=   F  fast interpolation
   KINTER  =     0    interpolate to denser k-point grid
   CSHIFT  =0.1000    complex shift for real part using Kramers Kronig
   OMEGAMAX=  -1.0    maximum frequency
   DEG_THRESHOLD= 0.2000000E-02 threshold for treating states as degnerate
   RTIME   =   -0.100 relaxation time in fs
  (WPLASMAI=    0.000 imaginary part of plasma frequency in eV, 0.658/RTIME)
   DFIELD  = 0.0000000 0.0000000 0.0000000 field for delta impulse in time
 
 Orbital magnetization related:
   ORBITALMAG=     F  switch on orbital magnetization
   LCHIMAG   =     F  perturbation theory with respect to B field
   DQ        =  0.001000  dq finite difference perturbation B field
   LLRAUG    =     F  two centre corrections for induced B field



--------------------------------------------------------------------------------------------------------


 Static calculation
 charge density and potential will be updated during run
 spin polarized calculation
 RMM-DIIS sequential band-by-band
 perform sub-space diagonalisation
    before iterative eigenvector-optimisation
 modified Broyden-mixing scheme, WC =      100.0
 initial mixing is a Kerker type mixing with AMIX =  0.4000 and BMIX =      1.0000
 Hartree-type preconditioning will be used
 using additional bands          144
 real space projection scheme for non local part
 use partial core corrections
 calculate Harris-corrections to forces 
   (improved forces if not selfconsistent)
 use gradient corrections 
 use of overlap-Matrix (Vanderbilt PP)
 Gauss-broadening in eV      SIGMA  =   0.05


--------------------------------------------------------------------------------------------------------


  energy-cutoff  :      400.00
  volume of cell :      975.20
      direct lattice vectors                 reciprocal lattice vectors
    10.019000053  0.000000000  0.000000000     0.099810360  0.057625538 -0.000000000
    -5.009500027  8.676708567  0.000000000     0.000000000  0.115251076  0.000000000
     0.000000000  0.000000000 11.218000412     0.000000000  0.000000000  0.089142446

  length of vectors
    10.019000053 10.019000053 11.218000412     0.115251076  0.115251076  0.089142446


 
 k-points in units of 2pi/SCALE and weight: read from INCAR                         
   0.00000000  0.00000000  0.00000000       0.125
   0.04990518  0.02881277 -0.00000000       0.125
   0.00000000  0.05762554  0.00000000       0.125
   0.04990518  0.08643831 -0.00000000       0.125
   0.00000000  0.00000000  0.04457122       0.125
   0.04990518  0.02881277  0.04457122       0.125
   0.00000000  0.05762554  0.04457122       0.125
   0.04990518  0.08643831  0.04457122       0.125
 
 k-points in reciprocal lattice and weights: read from INCAR                         
   0.00000000  0.00000000  0.00000000       0.125
   0.50000000 -0.00000000 -0.00000000       0.125
   0.00000000  0.50000000  0.00000000       0.125
   0.50000000  0.50000000 -0.00000000       0.125
   0.00000000  0.00000000  0.50000000       0.125
   0.50000000 -0.00000000  0.50000000       0.125
   0.00000000  0.50000000  0.50000000       0.125
   0.50000000  0.50000000  0.50000000       0.125
 
 position of ions in fractional coordinates (direct lattice) 
   0.12837347  0.18188118  0.25216883
   0.60611148  0.00235969  0.75468173
   0.96470864  0.21513441  0.75278211
   0.88946930  0.48023016  0.74504187
   0.29334226  0.52941932  0.25103939
   0.27199994  0.84832168  0.24350062
   0.48045829  0.24208242  0.74582365
   0.25871749  0.70555754  0.73360400
   0.92402646  0.37714762  0.25239971
   0.90788646  0.73013566  0.24630147
   0.53319778  0.19127826  0.25145034
   0.40140623  0.50054678  0.74617487
   0.75156583  0.69722291  0.74992064
   0.11143746  0.02527030  0.74979494
   0.57846722  0.52320054  0.25421286
   0.75095725  0.98681320  0.24752183
   0.75367371  0.37136778  0.99249512
   0.75554210  0.33802103  0.50265910
   0.26609673  0.37065899  0.99105687
   0.25793910  0.34353465  0.50232482
   0.26887133  0.87637725  0.98538952
   0.24942848  0.84633475  0.51031911
   0.75340131  0.86106154  0.99041255
   0.75078515  0.84399170  0.50106523
   0.09778883  0.03716864  0.00990943
   0.42594333  0.20506163  0.00724979
   0.08019524  0.00641504  0.50110357
   0.41647758  0.17433454  0.49882508
   0.59336786  0.03211949  0.99967905
   0.93509190  0.20524718  0.00668565
   0.57781661  0.00424486  0.48997591
   0.92300234  0.17828535  0.49534407
   0.59227145  0.53333819  0.99899331
   0.92831324  0.69968467  0.98868185
   0.58354088  0.51267712  0.50249062
   0.91631440  0.68157181  0.51793366
   0.09511798  0.53899932  0.99776964
   0.42216296  0.70120945  0.99413287
   0.08507906  0.51597907  0.50586555
   0.42090117  0.68098749  0.50263503
   0.27018077  0.20679731  0.09540827
   0.42936487  0.04174002  0.09147620
   0.58428145  0.36840122  0.08996345
   0.25118111  0.01948769  0.59509625
   0.42987263  0.34659226  0.59432250
   0.57801358  0.15958240  0.58146102
   0.25852973  0.04797672  0.90664108
   0.43572856  0.35866942  0.90542874
   0.57443188  0.18189501  0.90627560
   0.24824440  0.16360928  0.41102869
   0.41968354  0.01588171  0.40818504
   0.56873210  0.34159036  0.40397930
   0.75792796  0.18145129  0.09488768
   0.94066484  0.04453959  0.10050098
   0.09048693  0.36862135  0.09482795
   0.75489834  0.02645104  0.58738900
   0.93420495  0.33491156  0.59177480
   0.07411811  0.16233345  0.59622212
   0.75975682  0.05041094  0.90663216
   0.93935614  0.36068055  0.90671239
   0.08427611  0.17848934  0.91360310
   0.75423485  0.16855355  0.39302905
   0.93251903  0.01897159  0.40364502
   0.08228316  0.35300828  0.40426278
   0.75537058  0.68615189  0.08709939
   0.92376051  0.53782145  0.08587609
   0.09508243  0.85289369  0.09056783
   0.73887155  0.51825412  0.60392938
   0.92188573  0.84456795  0.60016133
   0.07097554  0.66797564  0.60783114
   0.75454808  0.53633241  0.89663930
   0.94352127  0.87205303  0.91849702
   0.08719578  0.68950685  0.89430376
   0.74719213  0.67152768  0.41692279
   0.92078650  0.52659945  0.42159118
   0.07446230  0.84043275  0.42668478
   0.26842683  0.67961600  0.08449010
   0.43719459  0.54402887  0.08709788
   0.57995725  0.85413149  0.09337226
   0.26033446  0.53060904  0.59432250
   0.43939547  0.84416573  0.60175698
   0.57449059  0.65560459  0.59660722
   0.25189776  0.53716452  0.89928683
   0.43677911  0.86681256  0.90027631
   0.57761788  0.68217458  0.89105631
   0.25544487  0.66746624  0.41341147
   0.43129859  0.52332978  0.41224103
   0.57491348  0.83927101  0.40466392
 
 position of ions in cartesian coordinates  (Angst):
   0.37504005  1.57813000  2.82883000
   6.06081008  0.02047430  8.46602000
   8.58770013  1.86665857  8.44471000
   6.50588000  4.16681713  8.35788000
   0.28687005  4.59361713  2.81616000
  -1.52450011  7.36064000  2.73159000
   3.60099976  2.10047857  8.36665000
  -0.94239995  6.12191713  8.22957000
   7.36850016  3.27240000  2.83142000
   5.43849992  6.33517430  2.76301000
   4.38390011  1.65966573  2.82077000
   1.51419992  4.34309857  8.37059000
   4.03719995  6.04960000  8.41261000
   0.98990037  0.21926300  8.41120000
   3.17469003  4.53965857  2.85176000
   2.58039992  8.56229057  2.77670000
   5.69069000  3.22225000 11.13381061
   5.87646000  2.93291000  5.63883000
   0.80920700  3.21610000 11.11767641
   0.86335500  2.98075000  5.63508000
  -1.69639000  7.60407000 11.05410000
  -1.74069000  7.34340000  5.72476000
   3.23484000  7.47118000 11.11044841
   3.29414000  7.32307000  5.62095000
   0.79354997  0.32250143  0.11116400
   3.24027000  1.77926000  0.08132820
   0.77133997  0.05566143  5.62138000
   3.29936000  1.51265000  5.59582000
   5.78405003  0.27869143 11.21440000
   8.34050000  1.78087000  0.07499959
   5.76788003  0.03683143  5.49655000
   8.35444000  1.54693000  5.55677000
   3.26221000  4.62762000 11.20670741
   5.79570000  6.07096000 11.09103341
   3.27824000  4.44835000  5.63694000
   5.76622000  5.91380000  5.81018000
  -1.74713005  4.67674000 11.19298021
   0.71694200  6.08419000 11.15218291
  -1.73239005  4.47700000  5.67480000
   0.80560200  5.90873000  5.63856000
   1.67099000  1.79432000  1.07029000
   4.09271000  0.36216600  1.02618000
   4.00841000  3.19651000  1.00921000
   2.41896000  0.16908900  6.67579000
   2.57064000  3.00728000  6.66711000
   4.99169000  1.38465000  6.52283000
   2.34987000  0.41628000 10.17070000
   2.56881000  3.11207000 10.15710000
   4.84403000  1.57825000 10.16660000
   1.66756000  1.41959000  4.61092000
   4.12525000  0.13780100  4.57902000
   3.98693000  2.96388000  4.53184000
   6.68470000  1.57440000  1.06445000
   9.20140000  0.38645700  1.12742000
  -0.94002005  3.19842000  1.06378000
   7.43082000  0.22950800  6.58933000
   7.68206000  2.90593000  6.63853000
  -0.07062005  1.40852000  6.68842000
   7.35947000  0.43740100 10.17060000
   7.60458000  3.12952000 10.17150000
  -0.04978005  1.54870000 10.24880000
   6.71231000  1.46249000  4.40900000
   9.24787000  0.16461100  4.52809000
  -0.94400005  3.06295000  4.53502000
   4.13078000  5.95354000  0.97708100
   6.56094000  4.66652000  0.96335800
  -3.31994005  7.40031000  1.01599000
   4.80656000  4.49674000  6.77488000
   5.00551000  7.32807000  6.73261000
  -2.63512005  5.79583000  6.81865000
   4.87306000  4.65360000 10.05850000
   5.08459000  7.56655000 10.30370000
  -2.58047005  5.98265000 10.03230000
   4.12210000  5.82665000  4.67704000
   6.58736000  4.56915000  4.72941000
  -3.46411005  7.29219000  4.78655000
  -0.71516800  5.89683000  0.94781000
   1.65494000  4.72038000  0.97706400
   1.53182000  7.41105000  1.04745000
  -0.04979500  4.60394000  6.66711000
   0.17345500  7.32458000  6.75051000
   2.47157000  5.68849000  6.69274000
  -0.16716200  4.66082000 10.08820000
   0.03379240  7.52108000 10.09930000
   2.36980000  5.91903000  9.99587000
  -0.78437000  5.79141000  4.63765000
   1.69956000  4.54078000  4.62452000
   1.55573000  7.28211000  4.53952000
 


--------------------------------------------------------------------------------------------------------


 k-point  1 :   0.0000 0.0000 0.0000  plane waves:   17725
 k-point  2 :   0.5000-0.0000-0.0000  plane waves:   17736
 k-point  3 :   0.0000 0.5000 0.0000  plane waves:   17736
 k-point  4 :   0.5000 0.5000-0.0000  plane waves:   17736
 k-point  5 :   0.0000 0.0000 0.5000  plane waves:   17676
 k-point  6 :   0.5000-0.0000 0.5000  plane waves:   17700
 k-point  7 :   0.0000 0.5000 0.5000  plane waves:   17700
 k-point  8 :   0.5000 0.5000 0.5000  plane waves:   17700

 maximum and minimum number of plane-waves per node :     17736    17676

 maximum number of plane-waves:     17736
 maximum index in each direction: 
   IXMAX=   16   IYMAX=   16   IZMAX=   18
   IXMIN=  -16   IYMIN=  -16   IZMIN=  -18


 serial   3D FFT for wavefunctions
 parallel 3D FFT for charge:
    minimum data exchange during FFTs selected (reduces bandwidth)


 total amount of memory used by VASP MPI-rank0    94445. kBytes
=======================================================================

   base      :      30000. kBytes
   nonlr-proj:      13686. kBytes
   fftplans  :       1275. kBytes
   grid      :      22786. kBytes
   one-center:       2737. kBytes
   wavefun   :      23961. kBytes
 
     INWAV:  cpu time    0.0000: real time    0.0001
 Broyden mixing: mesh for mixing (old mesh)
   NGX = 33   NGY = 33   NGZ = 37
  (NGX  =100   NGY  =100   NGZ  =112)
  gives a total of  40293 points

 initial charge density was supplied:
 charge density of overlapping atoms calculated
 number of electron     672.0000000 magnetization      48.0000000
 keeping initial charge density in first step


--------------------------------------------------------------------------------------------------------


 Maximum index for non-local projection operator         1553
 Maximum index for augmentation-charges          503 (set IRDMAX)


--------------------------------------------------------------------------------------------------------


 First call to EWALD:  gamma=   0.179
 Maximum number of real-space cells 3x 3x 2
 Maximum number of reciprocal cells 3x 3x 3

    FEWALD:  cpu time    0.0037: real time    0.0037


--------------------------------------- Iteration      1(   1)  ---------------------------------------


    POTLOK:  cpu time    0.1898: real time    0.1919
    SETDIJ:  cpu time    4.6429: real time    4.6474
    EDDIAG:  cpu time    4.4470: real time    4.7903
  RMM-DIIS:  cpu time    9.1862: real time    9.1959
    ORTHCH:  cpu time    1.1429: real time    1.2302
       DOS:  cpu time    0.0024: real time    0.0025
    --------------------------------------------
      LOOP:  cpu time   19.6112: real time   20.0583

 eigenvalue-minimisations  :  7680
 total energy-change (2. order) : 0.1595627E+04  (-0.3495403E+05)
 number of electron     672.0000000 magnetization      48.0000000
 augmentation part      672.0000000 magnetization      48.0000000

 Free energy of the ion-electron system (eV)
  ---------------------------------------------------
  alpha Z        PSCENC =      2652.81237852
  Ewald energy   TEWEN  =    -41961.08708505
  -Hartree energ DENC   =    -25661.16652734
  -exchange      EXHF   =         0.00000000
  -V(xc)+E(xc)   XCENC  =      3605.51180659
  PAW double counting   =     55594.23204139   -59034.67079123
  entropy T*S    EENTRO =        -0.05736530
  eigenvalues    EBANDS =     -7462.14583158
  atomic energy  EATOM  =     73862.19814772
  Solvation  Ediel_sol  =         0.00000000
  ---------------------------------------------------
  free energy    TOTEN  =      1595.62677372 eV

  energy without entropy =     1595.68413902  energy(sigma->0) =     1595.65545637


--------------------------------------------------------------------------------------------------------




--------------------------------------- Iteration      1(   2)  ---------------------------------------


    EDDIAG:  cpu time    4.4206: real time    4.7856
  RMM-DIIS:  cpu time    9.1840: real time    9.2138
    ORTHCH:  cpu time    1.1450: real time    1.2304
       DOS:  cpu time    0.0028: real time    0.0028
    --------------------------------------------
      LOOP:  cpu time   14.7525: real time   15.2325

 eigenvalue-minimisations  :  7680
 total energy-change (2. order) :-0.2328768E+04  (-0.8034521E+04)
 number of electron     672.0000000 magnetization      48.0000000
 augmentation part      672.0000000 magnetization      48.0000000

 Free energy of the ion-electron system (eV)
  ---------------------------------------------------
  alpha Z        PSCENC =      2652.81237852
  Ewald energy   TEWEN  =    -41961.08708505
  -Hartree energ DENC   =    -25661.16652734
  -exchange      EXHF   =         0.00000000
  -V(xc)+E(xc)   XCENC  =      3605.51180659
  PAW double counting   =     55594.23204139   -59034.67079123
  entropy T*S    EENTRO =        -0.04417251
  eigenvalues    EBANDS =     -9790.92679329
  atomic energy  EATOM  =     73862.19814772
  Solvation  Ediel_sol  =         0.00000000
  ---------------------------------------------------
  free energy    TOTEN  =      -733.14099520 eV

  energy without entropy =     -733.09682269  energy(sigma->0) =     -733.11890895


--------------------------------------------------------------------------------------------------------




--------------------------------------- Iteration      1(   3)  ---------------------------------------


    EDDIAG:  cpu time    4.4207: real time    4.7912
  RMM-DIIS:  cpu time    9.1852: real time    9.1910
    ORTHCH:  cpu time    1.1505: real time    1.2335
       DOS:  cpu time    0.0018: real time    0.0018
    --------------------------------------------
      LOOP:  cpu time   14.7581: real time   15.2175

 eigenvalue-minimisations  :  7680
 total energy-change (2. order) : 0.8635932E+02  (-0.1422352E+04)
 number of electron     672.0000000 magnetization      48.0000000
 augmentation part      672.0000000 magnetization      48.0000000

 Free energy of the ion-electron system (eV)
  ---------------------------------------------------
  alpha Z        PSCENC =      2652.81237852
  Ewald energy   TEWEN  =    -41961.08708505
  -Hartree energ DENC   =    -25661.16652734
  -exchange      EXHF   =         0.00000000
  -V(xc)+E(xc)   XCENC  =      3605.51180659
  PAW double counting   =     55594.23204139   -59034.67079123
  entropy T*S    EENTRO =        -0.03791124
  eigenvalues    EBANDS =     -9704.57373806
  atomic energy  EATOM  =     73862.19814772
  Solvation  Ediel_sol  =         0.00000000
  ---------------------------------------------------
  free energy    TOTEN  =      -646.78167871 eV

  energy without entropy =     -646.74376747  energy(sigma->0) =     -646.76272309


--------------------------------------------------------------------------------------------------------




--------------------------------------- Iteration      1(   4)  ---------------------------------------


    EDDIAG:  cpu time    4.4376: real time    4.7949
  RMM-DIIS:  cpu time    9.1456: real time    9.1966
    ORTHCH:  cpu time    1.1492: real time    1.2320
       DOS:  cpu time    0.0013: real time    0.0013
    --------------------------------------------
      LOOP:  cpu time   14.7337: real time   15.2247

 eigenvalue-minimisations  :  7680
 total energy-change (2. order) :-0.4647723E+03  (-0.4292552E+03)
 number of electron     672.0000000 magnetization      48.0000000
 augmentation part      672.0000000 magnetization      48.0000000

 Free energy of the ion-electron system (eV)
  ---------------------------------------------------
  alpha Z        PSCENC =      2652.81237852
  Ewald energy   TEWEN  =    -41961.08708505
  -Hartree energ DENC   =    -25661.16652734
  -exchange      EXHF   =         0.00000000
  -V(xc)+E(xc)   XCENC  =      3605.51180659
  PAW double counting   =     55594.23204139   -59034.67079123
  entropy T*S    EENTRO =        -0.00000000
  eigenvalues    EBANDS =    -10169.38393699
  atomic energy  EATOM  =     73862.19814772
  Solvation  Ediel_sol  =         0.00000000
  ---------------------------------------------------
  free energy    TOTEN  =     -1111.55396639 eV

  energy without entropy =    -1111.55396639  energy(sigma->0) =    -1111.55396639


--------------------------------------------------------------------------------------------------------




--------------------------------------- Iteration      1(   5)  ---------------------------------------


    EDDIAG:  cpu time    4.4768: real time    4.8417
  RMM-DIIS:  cpu time    9.1735: real time    9.1945
    ORTHCH:  cpu time    1.1531: real time    1.2408
       DOS:  cpu time    0.0011: real time    0.0011
    --------------------------------------------
      LOOP:  cpu time   14.8045: real time   15.2780

 eigenvalue-minimisations  :  7680
 total energy-change (2. order) :-0.1042257E+03  (-0.1597186E+03)
 number of electron     672.0000000 magnetization      48.0000000
 augmentation part      672.0000000 magnetization      48.0000000

 Free energy of the ion-electron system (eV)
  ---------------------------------------------------
  alpha Z        PSCENC =      2652.81237852
  Ewald energy   TEWEN  =    -41961.08708505
  -Hartree energ DENC   =    -25661.16652734
  -exchange      EXHF   =         0.00000000
  -V(xc)+E(xc)   XCENC  =      3605.51180659
  PAW double counting   =     55594.23204139   -59034.67079123
  entropy T*S    EENTRO =        -0.00000000
  eigenvalues    EBANDS =    -10273.60964450
  atomic energy  EATOM  =     73862.19814772
  Solvation  Ediel_sol  =         0.00000000
  ---------------------------------------------------
  free energy    TOTEN  =     -1215.77967390 eV

  energy without entropy =    -1215.77967390  energy(sigma->0) =    -1215.77967390


--------------------------------------------------------------------------------------------------------




--------------------------------------- Iteration      1(   6)  ---------------------------------------


    EDDIAG:  cpu time    4.4468: real time    4.7904
  RMM-DIIS:  cpu time    9.1117: real time    9.2020
    ORTHCH:  cpu time    1.1518: real time    1.2343
       DOS:  cpu time    0.0011: real time    0.0011
    --------------------------------------------
      LOOP:  cpu time   14.7113: real time   15.2278

 eigenvalue-minimisations  :  7680
 total energy-change (2. order) :-0.9112796E+01  (-0.7929524E+02)
 number of electron     672.0000000 magnetization      48.0000000
 augmentation part      672.0000000 magnetization      48.0000000

 Free energy of the ion-electron system (eV)
  ---------------------------------------------------
  alpha Z        PSCENC =      2652.81237852
  Ewald energy   TEWEN  =    -41961.08708505
  -Hartree energ DENC   =    -25661.16652734
  -exchange      EXHF   =         0.00000000
  -V(xc)+E(xc)   XCENC  =      3605.51180659
  PAW double counting   =     55594.23204139   -59034.67079123
  entropy T*S    EENTRO =        -0.00000000
  eigenvalues    EBANDS =    -10282.72244070
  atomic energy  EATOM  =     73862.19814772
  Solvation  Ediel_sol  =         0.00000000
  ---------------------------------------------------
  free energy    TOTEN  =     -1224.89247010 eV

  energy without entropy =    -1224.89247010  energy(sigma->0) =    -1224.89247010


--------------------------------------------------------------------------------------------------------




--------------------------------------- Iteration      1(   7)  ---------------------------------------


    EDDIAG:  cpu time    4.4310: real time    4.8686
  RMM-DIIS:  cpu time    9.2059: real time    9.2097
    ORTHCH:  cpu time    1.1549: real time    1.2362
       DOS:  cpu time    0.0014: real time    0.0014
    --------------------------------------------
      LOOP:  cpu time   14.7931: real time   15.3158

 eigenvalue-minimisations  :  7680
 total energy-change (2. order) :-0.1715711E+01  (-0.4818226E+02)
 number of electron     672.0000000 magnetization      48.0000000
 augmentation part      672.0000000 magnetization      48.0000000

 Free energy of the ion-electron system (eV)
  ---------------------------------------------------
  alpha Z        PSCENC =      2652.81237852
  Ewald energy   TEWEN  =    -41961.08708505
  -Hartree energ DENC   =    -25661.16652734
  -exchange      EXHF   =         0.00000000
  -V(xc)+E(xc)   XCENC  =      3605.51180659
  PAW double counting   =     55594.23204139   -59034.67079123
  entropy T*S    EENTRO =        -0.00000000
  eigenvalues    EBANDS =    -10284.43815167
  atomic energy  EATOM  =     73862.19814772
  Solvation  Ediel_sol  =         0.00000000
  ---------------------------------------------------
  free energy    TOTEN  =     -1226.60818108 eV

  energy without entropy =    -1226.60818108  energy(sigma->0) =    -1226.60818108


--------------------------------------------------------------------------------------------------------




--------------------------------------- Iteration      1(   8)  ---------------------------------------


    EDDIAG:  cpu time    4.4143: real time    4.7893
  RMM-DIIS:  cpu time    9.1644: real time    9.1979
    ORTHCH:  cpu time    1.1638: real time    1.2503
       DOS:  cpu time    0.0014: real time    0.0014
    --------------------------------------------
      LOOP:  cpu time   14.7439: real time   15.2388

 eigenvalue-minimisations  :  7680
 total energy-change (2. order) : 0.4923181E+01  (-0.2989410E+02)
 number of electron     672.0000000 magnetization      48.0000000
 augmentation part      672.0000000 magnetization      48.0000000

 Free energy of the ion-electron system (eV)
  ---------------------------------------------------
  alpha Z        PSCENC =      2652.81237852
  Ewald energy   TEWEN  =    -41961.08708505
  -Hartree energ DENC   =    -25661.16652734
  -exchange      EXHF   =         0.00000000
  -V(xc)+E(xc)   XCENC  =      3605.51180659
  PAW double counting   =     55594.23204139   -59034.67079123
  entropy T*S    EENTRO =        -0.00000000
  eigenvalues    EBANDS =    -10279.51497033
  atomic energy  EATOM  =     73862.19814772
  Solvation  Ediel_sol  =         0.00000000
  ---------------------------------------------------
  free energy    TOTEN  =     -1221.68499974 eV

  energy without entropy =    -1221.68499974  energy(sigma->0) =    -1221.68499974


--------------------------------------------------------------------------------------------------------




--------------------------------------- Iteration      1(   9)  ---------------------------------------


    EDDIAG:  cpu time    4.4599: real time    4.7937
  RMM-DIIS:  cpu time   19.3448: real time   19.4154
    ORTHCH:  cpu time    1.1512: real time    1.2319
       DOS:  cpu time    0.0013: real time    0.0013
    --------------------------------------------
      LOOP:  cpu time   24.9572: real time   25.4423

 eigenvalue-minimisations  : 21788
 total energy-change (2. order) : 0.9200366E+01  (-0.1317472E+02)
 number of electron     672.0000000 magnetization      48.0000000
 augmentation part      672.0000000 magnetization      48.0000000

 Free energy of the ion-electron system (eV)
  ---------------------------------------------------
  alpha Z        PSCENC =      2652.81237852
  Ewald energy   TEWEN  =    -41961.08708505
  -Hartree energ DENC   =    -25661.16652734
  -exchange      EXHF   =         0.00000000
  -V(xc)+E(xc)   XCENC  =      3605.51180659
  PAW double counting   =     55594.23204139   -59034.67079123
  entropy T*S    EENTRO =        -0.00000001
  eigenvalues    EBANDS =    -10270.31460446
  atomic energy  EATOM  =     73862.19814772
  Solvation  Ediel_sol  =         0.00000000
  ---------------------------------------------------
  free energy    TOTEN  =     -1212.48463388 eV

  energy without entropy =    -1212.48463387  energy(sigma->0) =    -1212.48463387


--------------------------------------------------------------------------------------------------------




--------------------------------------- Iteration      1(  10)  ---------------------------------------


    EDDIAG:  cpu time    4.4726: real time    4.7880
  RMM-DIIS:  cpu time   18.0245: real time   18.0385
    ORTHCH:  cpu time    1.1463: real time    1.2315
       DOS:  cpu time    0.0014: real time    0.0014
    --------------------------------------------
      LOOP:  cpu time   23.6448: real time   24.0594

 eigenvalue-minimisations  : 19641
 total energy-change (2. order) :-0.1913552E+01  (-0.5354368E+00)
 number of electron     672.0000000 magnetization      48.0000000
 augmentation part      672.0000000 magnetization      48.0000000

 Free energy of the ion-electron system (eV)
  ---------------------------------------------------
  alpha Z        PSCENC =      2652.81237852
  Ewald energy   TEWEN  =    -41961.08708505
  -Hartree energ DENC   =    -25661.16652734
  -exchange      EXHF   =         0.00000000
  -V(xc)+E(xc)   XCENC  =      3605.51180659
  PAW double counting   =     55594.23204139   -59034.67079123
  entropy T*S    EENTRO =        -0.00000024
  eigenvalues    EBANDS =    -10272.22815587
  atomic energy  EATOM  =     73862.19814772
  Solvation  Ediel_sol  =         0.00000000
  ---------------------------------------------------
  free energy    TOTEN  =     -1214.39818551 eV

  energy without entropy =    -1214.39818527  energy(sigma->0) =    -1214.39818539


--------------------------------------------------------------------------------------------------------




--------------------------------------- Iteration      1(  11)  ---------------------------------------


    EDDIAG:  cpu time    4.5264: real time    4.8137
  RMM-DIIS:  cpu time   19.6280: real time   19.6705
    ORTHCH:  cpu time    1.1499: real time    1.2329
       DOS:  cpu time    0.0016: real time    0.0016
    --------------------------------------------
      LOOP:  cpu time   25.3059: real time   25.7188

 eigenvalue-minimisations  : 22587
 total energy-change (2. order) : 0.7080610E-01  (-0.4378982E-01)
 number of electron     672.0000000 magnetization      48.0000000
 augmentation part      672.0000000 magnetization      48.0000000

 Free energy of the ion-electron system (eV)
  ---------------------------------------------------
  alpha Z        PSCENC =      2652.81237852
  Ewald energy   TEWEN  =    -41961.08708505
  -Hartree energ DENC   =    -25661.16652734
  -exchange      EXHF   =         0.00000000
  -V(xc)+E(xc)   XCENC  =      3605.51180659
  PAW double counting   =     55594.23204139   -59034.67079123
  entropy T*S    EENTRO =        -0.00000021
  eigenvalues    EBANDS =    -10272.15734980
  atomic energy  EATOM  =     73862.19814772
  Solvation  Ediel_sol  =         0.00000000
  ---------------------------------------------------
  free energy    TOTEN  =     -1214.32737941 eV

  energy without entropy =    -1214.32737920  energy(sigma->0) =    -1214.32737930


--------------------------------------------------------------------------------------------------------




--------------------------------------- Iteration      1(  12)  ---------------------------------------


    EDDIAG:  cpu time    4.4713: real time    4.7746
  RMM-DIIS:  cpu time   21.9114: real time   22.0063
    ORTHCH:  cpu time    1.1476: real time    1.2302
       DOS:  cpu time    0.0012: real time    0.0012
    CHARGE:  cpu time    1.7912: real time    1.7917
    MIXING:  cpu time    0.0010: real time    0.0011
    --------------------------------------------
      LOOP:  cpu time   29.3237: real time   29.8052

 eigenvalue-minimisations  : 24437
 total energy-change (2. order) :-0.8507180E-03  (-0.4346857E-02)
 number of electron     671.9999767 magnetization      47.9999975
 augmentation part      239.0157568 magnetization      29.0333005

 Broyden mixing:
  rms(total) = 0.12494E+02    rms(broyden)= 0.12485E+02
  rms(prec ) = 0.14361E+02
  weight for this iteration     100.00

 Free energy of the ion-electron system (eV)
  ---------------------------------------------------
  alpha Z        PSCENC =      2652.81237852
  Ewald energy   TEWEN  =    -41961.08708505
  -Hartree energ DENC   =    -25661.16652734
  -exchange      EXHF   =         0.00000000
  -V(xc)+E(xc)   XCENC  =      3605.51180659
  PAW double counting   =     55594.23204139   -59034.67079123
  entropy T*S    EENTRO =        -0.00000021
  eigenvalues    EBANDS =    -10272.15820051
  atomic energy  EATOM  =     73862.19814772
  Solvation  Ediel_sol  =         0.00000000
  ---------------------------------------------------
  free energy    TOTEN  =     -1214.32823013 eV

  energy without entropy =    -1214.32822992  energy(sigma->0) =    -1214.32823002


--------------------------------------------------------------------------------------------------------




--------------------------------------- Iteration      1(  13)  ---------------------------------------


    POTLOK:  cpu time    0.1768: real time    0.1777
    SETDIJ:  cpu time    4.9960: real time    4.9979
    EDDIAG:  cpu time    4.4711: real time    4.8135
  RMM-DIIS:  cpu time   17.4087: real time   17.4175
    ORTHCH:  cpu time    1.1495: real time    1.2305
       DOS:  cpu time    0.0026: real time    0.0026
    CHARGE:  cpu time    1.7877: real time    1.7883
    MIXING:  cpu time    0.0009: real time    0.0010
    --------------------------------------------
      LOOP:  cpu time   29.9932: real time   30.4289

 eigenvalue-minimisations  : 18749
 total energy-change (2. order) : 0.2270990E+03  (-0.1228917E+03)
 number of electron     671.9999867 magnetization      47.9999968
 augmentation part      269.2757212 magnetization      26.2442325

 Broyden mixing:
  rms(total) = 0.14045E+02    rms(broyden)= 0.14042E+02
  rms(prec ) = 0.15838E+02
  weight for this iteration     100.00

 eigenvalues of (default mixing * dielectric matrix)
  average eigenvalue GAMMA=   0.3161
  0.3161

 Free energy of the ion-electron system (eV)
  ---------------------------------------------------
  alpha Z        PSCENC =      2652.81237852
  Ewald energy   TEWEN  =    -41961.08708505
  -Hartree energ DENC   =    -24986.51553952
  -exchange      EXHF   =         0.00000000
  -V(xc)+E(xc)   XCENC  =      3695.45839716
  PAW double counting   =     59836.47214295   -63261.29809759
  entropy T*S    EENTRO =        -0.08392777
  eigenvalues    EBANDS =    -10825.18565765
  atomic energy  EATOM  =     73862.19814772
  Solvation  Ediel_sol  =         0.00000000
  ---------------------------------------------------
  free energy    TOTEN  =      -987.22924122 eV

  energy without entropy =     -987.14531345  energy(sigma->0) =     -987.18727734


--------------------------------------------------------------------------------------------------------




--------------------------------------- Iteration      1(  14)  ---------------------------------------


    POTLOK:  cpu time    0.1739: real time    0.1740
    SETDIJ:  cpu time    4.9831: real time    4.9848
    EDDIAG:  cpu time    4.5171: real time    4.7906
  RMM-DIIS:  cpu time   17.7412: real time   17.7834
    ORTHCH:  cpu time    1.1494: real time    1.2328
       DOS:  cpu time    0.0011: real time    0.0011
    CHARGE:  cpu time    1.7917: real time    1.7936
    MIXING:  cpu time    0.0010: real time    0.0010
    --------------------------------------------
      LOOP:  cpu time   30.3585: real time   30.7614

 eigenvalue-minimisations  : 19389
 total energy-change (2. order) : 0.7129276E+02  (-0.1796888E+02)
 number of electron     671.9999802 magnetization      47.9999950
 augmentation part      246.4894043 magnetization      32.1465474

 Broyden mixing:
  rms(total) = 0.52544E+01    rms(broyden)= 0.52500E+01
  rms(prec ) = 0.56998E+01
  weight for this iteration     100.00

 eigenvalues of (default mixing * dielectric matrix)
  average eigenvalue GAMMA=   0.7267
  1.0975  0.3558

 Free energy of the ion-electron system (eV)
  ---------------------------------------------------
  alpha Z        PSCENC =      2652.81237852
  Ewald energy   TEWEN  =    -41961.08708505
  -Hartree energ DENC   =    -25600.69432952
  -exchange      EXHF   =         0.00000000
  -V(xc)+E(xc)   XCENC  =      3672.47903775
  PAW double counting   =     63202.42017338   -66684.38668087
  entropy T*S    EENTRO =        -0.00000000
  eigenvalues    EBANDS =    -10059.67812001
  atomic energy  EATOM  =     73862.19814772
  Solvation  Ediel_sol  =         0.00000000
  ---------------------------------------------------
  free energy    TOTEN  =      -915.93647807 eV

  energy without entropy =     -915.93647807  energy(sigma->0) =     -915.93647807


--------------------------------------------------------------------------------------------------------




--------------------------------------- Iteration      1(  15)  ---------------------------------------


    POTLOK:  cpu time    0.1649: real time    0.1661
    SETDIJ:  cpu time    4.9945: real time    4.9961
    EDDIAG:  cpu time    4.5207: real time    4.8048
  RMM-DIIS:  cpu time   18.2140: real time   18.2370
    ORTHCH:  cpu time    1.1518: real time    1.2345
       DOS:  cpu time    0.0014: real time    0.0014
    CHARGE:  cpu time    1.7867: real time    1.7904
    MIXING:  cpu time    0.0009: real time    0.0009
    --------------------------------------------
      LOOP:  cpu time   30.8349: real time   31.2313

 eigenvalue-minimisations  : 20245
 total energy-change (2. order) : 0.1472524E+02  (-0.2124648E+01)
 number of electron     671.9999817 magnetization      47.9999939
 augmentation part      249.6731103 magnetization      33.8281630

 Broyden mixing:
  rms(total) = 0.21925E+01    rms(broyden)= 0.21922E+01
  rms(prec ) = 0.22731E+01
  weight for this iteration     100.00

 eigenvalues of (default mixing * dielectric matrix)
  average eigenvalue GAMMA=   0.9306
  1.6675  0.3801  0.7442

 Free energy of the ion-electron system (eV)
  ---------------------------------------------------
  alpha Z        PSCENC =      2652.81237852
  Ewald energy   TEWEN  =    -41961.08708505
  -Hartree energ DENC   =    -25517.70165555
  -exchange      EXHF   =         0.00000000
  -V(xc)+E(xc)   XCENC  =      3705.92653873
  PAW double counting   =     67235.29426428   -70757.27023292
  entropy T*S    EENTRO =        -0.00000000
  eigenvalues    EBANDS =    -10121.38359305
  atomic energy  EATOM  =     73862.19814772
  Solvation  Ediel_sol  =         0.00000000
  ---------------------------------------------------
  free energy    TOTEN  =      -901.21123733 eV

  energy without entropy =     -901.21123733  energy(sigma->0) =     -901.21123733


--------------------------------------------------------------------------------------------------------




--------------------------------------- Iteration      1(  16)  ---------------------------------------


    POTLOK:  cpu time    0.1693: real time    0.1702
    SETDIJ:  cpu time    5.0528: real time    5.0545
    EDDIAG:  cpu time    4.5226: real time    4.8725
  RMM-DIIS:  cpu time   17.4257: real time   17.4441
    ORTHCH:  cpu time    1.1472: real time    1.2320
       DOS:  cpu time    0.0015: real time    0.0015
    CHARGE:  cpu time    1.7887: real time    1.7911
    MIXING:  cpu time    0.0010: real time    0.0010
    --------------------------------------------
      LOOP:  cpu time   30.1088: real time   30.5669

 eigenvalue-minimisations  : 19096
 total energy-change (2. order) :-0.1537785E+01  (-0.6405599E+00)
 number of electron     671.9999826 magnetization      47.9999937
 augmentation part      251.1333423 magnetization      33.9323681

 Broyden mixing:
  rms(total) = 0.14879E+01    rms(broyden)= 0.14875E+01
  rms(prec ) = 0.15723E+01
  weight for this iteration     100.00

 eigenvalues of (default mixing * dielectric matrix)
  average eigenvalue GAMMA=   0.9677
  2.0723  0.8983  0.3865  0.5139

 Free energy of the ion-electron system (eV)
  ---------------------------------------------------
  alpha Z        PSCENC =      2652.81237852
  Ewald energy   TEWEN  =    -41961.08708505
  -Hartree energ DENC   =    -25467.33465757
  -exchange      EXHF   =         0.00000000
  -V(xc)+E(xc)   XCENC  =      3706.83700627
  PAW double counting   =     70089.01470908   -73640.01685120
  entropy T*S    EENTRO =        -0.00000000
  eigenvalues    EBANDS =    -10145.17267059
  atomic energy  EATOM  =     73862.19814772
  Solvation  Ediel_sol  =         0.00000000
  ---------------------------------------------------
  free energy    TOTEN  =      -902.74902282 eV

  energy without entropy =     -902.74902282  energy(sigma->0) =     -902.74902282


--------------------------------------------------------------------------------------------------------




--------------------------------------- Iteration      1(  17)  ---------------------------------------


    POTLOK:  cpu time    0.1720: real time    0.1732
    SETDIJ:  cpu time    5.0534: real time    5.0591
    EDDIAG:  cpu time    4.5391: real time    4.7797
  RMM-DIIS:  cpu time   18.5776: real time   18.6161
    ORTHCH:  cpu time    1.1621: real time    1.2477
       DOS:  cpu time    0.0012: real time    0.0012
    CHARGE:  cpu time    1.8110: real time    1.8115
    MIXING:  cpu time    0.0019: real time    0.0019
    --------------------------------------------
      LOOP:  cpu time   31.3183: real time   31.6903

 eigenvalue-minimisations  : 20555
 total energy-change (2. order) : 0.1064476E+00  (-0.6790340E-01)
 number of electron     671.9999824 magnetization      47.9999936
 augmentation part      251.1222160 magnetization      33.9360956

 Broyden mixing:
  rms(total) = 0.79168E+00    rms(broyden)= 0.79155E+00
  rms(prec ) = 0.89537E+00
  weight for this iteration     100.00

 eigenvalues of (default mixing * dielectric matrix)
  average eigenvalue GAMMA=   0.9956
  2.2293  1.1248  0.3767  0.6899  0.5576

 Free energy of the ion-electron system (eV)
  ---------------------------------------------------
  alpha Z        PSCENC =      2652.81237852
  Ewald energy   TEWEN  =    -41961.08708505
  -Hartree energ DENC   =    -25457.44339466
  -exchange      EXHF   =         0.00000000
  -V(xc)+E(xc)   XCENC  =      3704.24421442
  PAW double counting   =     71008.94557142   -74568.95590504
  entropy T*S    EENTRO =        -0.00000000
  eigenvalues    EBANDS =    -10143.35650251
  atomic energy  EATOM  =     73862.19814772
  Solvation  Ediel_sol  =         0.00000000
  ---------------------------------------------------
  free energy    TOTEN  =      -902.64257518 eV

  energy without entropy =     -902.64257518  energy(sigma->0) =     -902.64257518


--------------------------------------------------------------------------------------------------------




--------------------------------------- Iteration      1(  18)  ---------------------------------------


    POTLOK:  cpu time    0.1663: real time    0.1670
    SETDIJ:  cpu time    5.0134: real time    5.0208
    EDDIAG:  cpu time    4.5137: real time    4.7855
  RMM-DIIS:  cpu time   17.8293: real time   17.8380
    ORTHCH:  cpu time    1.1507: real time    1.2325
       DOS:  cpu time    0.0011: real time    0.0012
    CHARGE:  cpu time    1.8046: real time    1.8089
    MIXING:  cpu time    0.0010: real time    0.0010
    --------------------------------------------
      LOOP:  cpu time   30.4801: real time   30.8549

 eigenvalue-minimisations  : 19097
 total energy-change (2. order) : 0.4242228E+00  (-0.7162099E-01)
 number of electron     671.9999821 magnetization      47.9999936
 augmentation part      250.5931569 magnetization      33.8977212

 Broyden mixing:
  rms(total) = 0.28662E+00    rms(broyden)= 0.28634E+00
  rms(prec ) = 0.30203E+00
  weight for this iteration     100.00

 eigenvalues of (default mixing * dielectric matrix)
  average eigenvalue GAMMA=   1.0164
  2.4533  1.3627  0.8476  0.3781  0.5846  0.4723

 Free energy of the ion-electron system (eV)
  ---------------------------------------------------
[...]
   4      -0.631    -0.674     1.305    -0.098    -0.018    -0.075
   5      -0.621    -0.854     1.475     0.122     0.039     0.000
   6      -0.495    -0.372     0.867    -0.037    -0.040     0.140
   7      -1.190    -0.610     1.800    -0.069     0.006     0.040
   8      -0.662    -0.902     1.563     0.131    -0.068     0.069
   9      -0.901    -0.556     1.457    -0.047    -0.011     0.005
  10      -0.997    -0.700     1.697     0.166    -0.015     0.089
  11      -0.804    -0.919     1.723    -0.305    -0.003    -0.107
  12      -0.611    -0.843     1.454    -0.128    -0.025    -0.037
  13      -0.653    -0.946     1.599     0.197    -0.016     0.043
  14      -1.027    -0.833     1.861     0.178    -0.030     0.085
  15      -1.003    -0.889     1.893    -0.092    -0.055     0.056
  16      -0.533    -0.778     1.310     0.182    -0.049    -0.074
  17       1.477     1.441    -2.918     0.116    -0.031    -0.076
  18       1.330     1.528    -2.858     0.294    -0.007     0.073
  19       1.503     1.466    -2.968    -0.066     0.014    -0.181
  20       1.338     1.556    -2.895     0.017     0.021     0.055
  21       1.495     1.382    -2.878     0.005    -0.066     0.192
  22       1.637     1.358    -2.995    -0.063    -0.121    -0.115
  23       1.591     1.244    -2.835    -0.044    -0.042     0.073
  24       1.493     1.505    -2.998    -0.029     0.244    -0.189
  25      -0.640    -0.559     1.199     0.671     0.079     0.157
  26       0.185    -0.692     0.507     0.609     0.296    -0.041
  27      -0.369    -1.127     1.496     1.077     0.357    -0.159
  28      -1.135    -0.582     1.717     0.242     0.059    -0.194
  29      -1.226     1.175     0.051    -0.626    -1.283     0.150
  30      -0.655     0.926    -0.271    -0.533    -0.381     0.589
  31      -0.239     0.030     0.209     1.722     0.577    -0.096
  32       1.309    -0.423    -0.887     0.067     0.233    -0.980
  33      -0.367     0.674    -0.307    -0.299    -0.634    -0.813
  34       0.083    -2.660     2.577     0.562     0.340     0.853
  35       0.978    -0.164    -0.814    -0.047    -0.115     0.073
  36      -0.686    -1.339     2.026     0.350     0.199    -0.761
  37      -1.448     1.423     0.026    -1.537    -0.804     0.738
  38       0.001     1.461    -1.462    -1.572     0.954     1.132
  39      -1.489     0.317     1.172    -0.714     0.795    -0.187
  40       0.338     0.576    -0.914    -0.412     0.511    -0.394
  41      -4.515     1.697     2.818    -4.604     2.888    -4.234
  42      -3.269     0.345     2.924     4.841     3.219     3.342
  43       3.717    -6.845     3.127    -0.673    -4.794    -0.256
  44      -3.102     2.199     0.903    -4.276    -1.486     3.701
  45       5.014    -5.009    -0.006     0.305     4.240    -0.384
  46      -2.907     1.794     1.113     4.249    -2.503    -4.755
  47      -2.181     3.146    -0.965    -3.449     2.850    -2.893
  48       5.841    -4.148    -1.693    -0.060    -3.751     0.827
  49      -1.851     3.173    -1.323     5.551     0.978     3.967
  50      -3.076     1.133     1.943    -5.203    -3.442     4.888
  51      -3.793     1.718     2.075     5.378    -2.554    -4.886
  52       5.405    -5.944     0.540    -1.071     3.702     1.826
  53      -2.907     3.212    -0.305    -6.865     1.709    -4.071
  54      -3.914     1.415     2.499     4.902     3.231     4.340
  55       4.781    -6.529     1.748    -0.815    -5.321    -1.206
  56      -1.685     2.376    -0.691    -5.912    -1.267     3.770
  57       6.690    -6.589    -0.101     0.295     4.066    -0.394
  58      -2.555     3.730    -1.175     4.203    -2.396    -3.792
  59      -3.001     4.339    -1.337    -4.504     3.192    -3.275
  60       6.280    -5.687    -0.594     1.305    -4.112     0.774
  61      -0.749     2.940    -2.191     6.319     1.238     4.242
  62      -3.009     1.854     1.156    -4.746    -2.843     3.072
  63      -3.077     2.202     0.875     5.809    -3.067    -3.199
  64       5.409    -5.728     0.318     0.857     4.792    -0.381
  65      -2.887     2.085     0.802    -5.375     1.694    -3.643
  66      -4.534     3.334     1.200     1.498     1.096     5.245
  67       2.647    -4.547     1.901     0.071    -5.668    -2.568
  68      -2.023     0.776     1.247    -4.710    -2.480     3.550
  69       4.160    -6.196     2.036     2.327     5.888     0.235
  70      -3.475     2.392     1.084     5.144    -1.682    -5.040
  71      -0.949    -0.405     1.353    -4.204     2.859    -3.857
  72       3.531    -7.022     3.491     2.302    -5.216    -1.505
  73      -3.578     3.220     0.358     5.768     1.863     5.225
  74      -2.001     1.701     0.300    -4.252    -2.096     2.680
  75      -4.559     3.374     1.185     3.741    -2.817    -4.435
  76       3.655    -6.528     2.873     1.471     5.273     1.840
  77      -5.158     6.052    -0.893    -7.647     1.953    -2.582
  78      -5.363     3.778     1.585     3.923     3.057     3.569
  79       4.547    -6.068     1.521    -1.945    -6.074    -0.218
  80      -2.799     2.379     0.420    -5.151    -2.870     4.306
  81       7.636    -5.368    -2.268     0.617     3.466     0.459
  82      -1.801     2.220    -0.418     6.193    -0.961    -4.467
  83      -2.178     1.647     0.531    -3.258     4.362    -4.687
  84       5.659    -5.700     0.041    -0.303    -3.828     1.196
  85      -0.571     2.508    -1.937     5.125    -0.741     3.370
  86      -4.065     4.551    -0.486    -5.978    -1.385     4.062
  87      -3.508     2.113     1.395     4.238    -2.067    -3.482
  88       4.378    -6.934     2.555     1.918     6.211     0.779
 ---------------------------------------------------------------------


 Total hyperfine coupling parameters after diagonalization (MHz)
 (convention: |A_zz| > |A_xx| > |A_yy|)
 ----------------------------------------------------------------------
  ion      A_xx      A_yy      A_zz     asymmetry (A_yy - A_xx)/ A_zz 
 ----------------------------------------------------------------------
   1       1.990     1.506     3.971      -0.122
   2      -0.286     0.107     2.632       0.149
   3       0.414    -0.087     2.863      -0.175
   4       1.446     1.243     3.306      -0.061
   5       2.617     2.280     4.662      -0.072
   6       1.892     1.765     3.155      -0.040
   7       0.609     0.013     3.011      -0.198
   8       2.186     1.828     4.358      -0.082
   9       1.604     1.246     3.611      -0.099
  10       1.277     0.833     3.605      -0.123
  11       1.731     1.111     4.013      -0.155
  12       2.099     1.753     4.109      -0.084
  13       2.298     1.807     4.453      -0.110
  14       0.582     0.176     3.174      -0.128
  15      -0.126     0.088     2.823       0.076
  16       1.745     1.310     3.499      -0.124
  17      13.505     9.243    13.740      -0.310
  18      13.729     9.751    14.349      -0.277
  19      14.526    10.131    14.663      -0.300
  20      14.234    10.002    14.455      -0.293
  21      13.436     9.158    13.542      -0.316
  22      15.263    10.914    15.567      -0.279
  23      13.241     9.165    13.599      -0.300
  24      14.887    10.398    14.966      -0.300
  25      97.978    96.657    99.155      -0.013
  26      92.736    91.444    93.222      -0.014
  27      97.866    95.582    99.067      -0.023
  28      97.652    96.923    99.888      -0.007
  29      97.851    95.217    98.837      -0.027
  30      97.694    97.247    99.525      -0.004
  31      96.881    94.688    98.327      -0.022
  32      95.485    93.462    96.475      -0.021
  33      94.249    92.796    95.224      -0.015
  34      97.822    94.839   100.501      -0.030
  35      91.481    90.811    92.627      -0.007
  36      97.791    96.673   100.524      -0.011
  37      99.868    97.940   102.652      -0.019
  38      94.331    91.481    96.688      -0.029
  39     102.117    99.844   103.259      -0.022
  40      96.535    95.355    97.569      -0.012
  41       7.806     2.424    18.056      -0.298
  42       4.832    -0.642    13.988      -0.391
  43       6.911     1.289    16.448      -0.342
  44       5.351     1.392    14.036      -0.282
  45       3.105     0.343    12.872      -0.215
  46       5.313     2.758    16.496      -0.155
  47       3.534     1.026    12.469      -0.201
  48       4.255     2.511    14.486      -0.120
  49       3.945     0.380    14.646      -0.243
  50       3.426    -0.327    15.680      -0.239
  51       5.808     0.843    17.179      -0.289
  52       6.745     0.577    14.765      -0.418
  53       5.887     0.538    17.589      -0.304
  54       6.857     1.988    17.745      -0.274
  55       6.180     1.022    16.798      -0.307
  56       2.394    -1.794    12.653      -0.331
  57       5.954     1.267    16.499      -0.284
  58       3.778     2.237    15.021      -0.103
  59       2.516    -0.788    13.506      -0.245
  60       5.500     1.419    15.843      -0.258
  61       4.893     1.458    16.978      -0.202
  62       3.318    -1.292    12.189      -0.378
  63       7.214     1.807    17.193      -0.314
  64       3.996     0.459    14.693      -0.241
  65       5.996     1.047    15.214      -0.325
  66       5.579     3.842    16.555      -0.105
  67       2.400    -1.473    12.787      -0.303
  68       4.997     1.272    14.170      -0.263
  69       7.702     3.300    19.488      -0.226
  70       5.405     0.940    16.499      -0.271
  71       4.036     1.438    13.758      -0.189
  72       6.896     1.028    17.724      -0.331
  73       5.971     1.580    18.357      -0.239
  74       4.214     0.978    12.166      -0.266
  75       5.377     1.428    16.188      -0.244
  76       6.302     1.397    17.204      -0.285
  77       9.622     2.264    22.139      -0.332
  78       5.219    -0.915    14.503      -0.423
  79       5.632     1.602    17.749      -0.227
  80       4.909     1.705    16.450      -0.195
  81       5.150     3.044    17.246      -0.122
  82       5.262     0.044    15.684      -0.333
  83       2.743     0.444    14.340      -0.160
  84       6.634     2.358    15.967      -0.268
  85       5.999     0.613    13.713      -0.393
  86       5.614     0.658    17.287      -0.287
  87       4.473     0.103    13.096      -0.334
  88       9.354     4.809    22.040      -0.206
 ---------------------------------------------------------------------



--------------------------------------------------------------------------------------------------------


 stress matrix after NEB project (eV)
    -47.99146     -2.82434     -4.13144
     -2.83932    -47.57399      2.35976
     -4.11384      2.37785    -63.91479
  FORCES: max atom, RMS     2.894148    1.127791
  FORCE total and by dimension   10.579619    2.625696
  Stress total and by dimension   93.342480   63.914789
     LOOP+:  cpu time  663.3992: real time  673.9251
    4ORBIT:  cpu time    0.0000: real time    0.0000
 


 total charge     
 
# of ion       s       p       d       tot
------------------------------------------
    1        0.053   5.996   0.000   6.049
    2        0.054   6.000   0.000   6.054
    3        0.053   5.998   0.000   6.051
    4        0.049   5.991   0.000   6.039
    5        0.048   5.989   0.000   6.037
    6        0.038   5.980   0.000   6.018
    7        0.054   5.998   0.000   6.053
    8        0.054   5.999   0.000   6.052
    9        0.043   5.984   0.000   6.027
   10        0.046   5.988   0.000   6.033
   11        0.054   5.998   0.000   6.051
   12        0.051   5.993   0.000   6.045
   13        0.053   5.997   0.000   6.050
   14        0.053   5.998   0.000   6.051
   15        0.050   5.993   0.000   6.043
   16        0.046   5.989   0.000   6.035
   17        0.149   6.128   0.084   6.361
   18        0.145   6.121   0.078   6.343
   19        0.152   6.134   0.088   6.374
   20        0.147   6.125   0.081   6.352
   21        0.152   6.132   0.087   6.372
   22        0.151   6.131   0.086   6.368
   23        0.143   6.118   0.076   6.337
   24        0.151   6.132   0.087   6.370
   25        0.373   6.448   4.827  11.648
   26        0.389   6.482   4.860  11.731
   27        0.384   6.474   4.850  11.708
   28        0.373   6.449   4.820  11.641
   29        0.366   6.431   4.808  11.605
   30        0.369   6.439   4.814  11.622
   31        0.370   6.445   4.821  11.636
   32        0.368   6.439   4.812  11.620
   33        0.375   6.452   4.830  11.657
   34        0.366   6.434   4.810  11.610
   35        0.397   6.499   4.875  11.771
   36        0.379   6.463   4.837  11.679
   37        0.362   6.426   4.803  11.591
   38        0.384   6.466   4.855  11.705
   39        0.359   6.420   4.793  11.572
   40        0.383   6.472   4.846  11.701
   41        1.601   3.513   0.000   5.114
   42        1.596   3.519   0.000   5.115
   43        1.600   3.533   0.000   5.133
   44        1.599   3.508   0.000   5.107
   45        1.598   3.528   0.000   5.125
   46        1.600   3.526   0.000   5.126
   47        1.601   3.499   0.000   5.099
   48        1.599   3.523   0.000   5.122
   49        1.599   3.494   0.000   5.093
   50        1.601   3.508   0.000   5.108
   51        1.599   3.522   0.000   5.121
   52        1.596   3.495   0.000   5.091
   53        1.598   3.473   0.000   5.071
   54        1.598   3.487   0.000   5.085
   55        1.597   3.491   0.000   5.088
   56        1.600   3.482   0.000   5.082
   57        1.599   3.523   0.000   5.122
   58        1.598   3.502   0.000   5.100
   59        1.598   3.497   0.000   5.096
   60        1.598   3.494   0.000   5.092
   61        1.602   3.517   0.000   5.119
   62        1.595   3.460   0.000   5.055
   63        1.598   3.498   0.000   5.097
   64        1.595   3.481   0.000   5.075
   65        1.599   3.503   0.000   5.102
   66        1.598   3.494   0.000   5.092
   67        1.596   3.477   0.000   5.073
   68        1.597   3.491   0.000   5.089
   69        1.600   3.519   0.000   5.119
   70        1.599   3.497   0.000   5.096
   71        1.597   3.503   0.000   5.100
   72        1.601   3.530   0.000   5.131
   73        1.601   3.463   0.000   5.064
   74        1.598   3.525   0.000   5.123
   75        1.599   3.500   0.000   5.099
   76        1.603   3.538   0.000   5.141
   77        1.605   3.529   0.000   5.134
   78        1.599   3.517   0.000   5.116
   79        1.602   3.464   0.000   5.066
   80        1.599   3.509   0.000   5.109
   81        1.600   3.491   0.000   5.091
   82        1.603   3.513   0.000   5.116
   83        1.599   3.491   0.000   5.090
   84        1.599   3.515   0.000   5.114
   85        1.596   3.473   0.000   5.069
   86        1.599   3.497   0.000   5.097
   87        1.598   3.540   0.000   5.137
   88        1.602   3.495   0.000   5.096
--------------------------------------------------
tot         84.740 416.292  77.928 578.960
 


 magnetization (x)
 
# of ion       s       p       d       tot
------------------------------------------
    1        0.002   0.000   0.000   0.002
    2        0.001   0.000   0.000   0.001
    3        0.001   0.000   0.000   0.001
    4        0.002  -0.000   0.000   0.001
    5        0.002   0.001   0.000   0.003
    6        0.002   0.001   0.000   0.003
    7        0.001   0.000   0.000   0.001
    8        0.002   0.000   0.000   0.002
    9        0.002  -0.000   0.000   0.002
   10        0.001   0.001   0.000   0.002
   11        0.002   0.000   0.000   0.002
   12        0.002   0.000   0.000   0.002
   13        0.002   0.000   0.000   0.002
   14        0.001   0.001   0.000   0.001
   15        0.001   0.000   0.000   0.001
   16        0.002   0.000   0.000   0.002
   17        0.007   0.002   0.001   0.010
   18        0.007   0.002   0.001   0.010
   19        0.007   0.002   0.001   0.010
   20        0.007   0.002   0.001   0.011
   21        0.007   0.002   0.001   0.010
   22        0.008   0.002   0.002   0.012
   23        0.007   0.002   0.001   0.010
   24        0.007   0.002   0.001   0.011
   25        0.015   0.030   2.766   2.812
   26        0.014   0.030   2.718   2.762
   27        0.016   0.031   2.736   2.783
   28        0.016   0.030   2.763   2.809
   29        0.015   0.029   2.777   2.822
   30        0.016   0.030   2.762   2.808
   31        0.015   0.030   2.764   2.809
   32        0.014   0.029   2.771   2.815
   33        0.015   0.029   2.747   2.791
   34        0.015   0.029   2.779   2.824
   35        0.014   0.030   2.710   2.754
   36        0.016   0.030   2.752   2.799
   37        0.016   0.030   2.791   2.838
   38        0.014   0.029   2.726   2.769
   39        0.017   0.031   2.803   2.850
   40        0.015   0.031   2.735   2.781
   41        0.002   0.051   0.000   0.053
   42        0.002   0.034   0.000   0.035
   43        0.002   0.049   0.000   0.051
   44        0.002   0.023   0.000   0.025
   45        0.001   0.021   0.000   0.023
   46        0.002   0.040   0.000   0.042
   47        0.002   0.014   0.000   0.016
   48        0.002   0.027   0.000   0.029
   49        0.002   0.020   0.000   0.021
   50        0.002   0.028   0.000   0.030
   51        0.002   0.042   0.000   0.044
   52        0.002   0.038   0.000   0.040
   53        0.002   0.033   0.000   0.035
   54        0.002   0.046   0.000   0.049
   55        0.002   0.033   0.000   0.035
   56        0.002   0.006   0.000   0.007
   57        0.002   0.038   0.000   0.040
   58        0.002   0.027   0.000   0.029
   59        0.002   0.014   0.000   0.015
   60        0.002   0.032   0.000   0.034
   61        0.002   0.030   0.000   0.032
   62        0.002   0.002   0.000   0.004
   63        0.002   0.047   0.000   0.049
   64        0.002   0.018   0.000   0.020
   65        0.002   0.032   0.000   0.034
   66        0.002   0.037   0.000   0.039
   67        0.002   0.005   0.000   0.007
   68        0.002   0.033   0.000   0.035
   69        0.003   0.054   0.000   0.056
   70        0.002   0.027   0.000   0.029
   71        0.002   0.018   0.000   0.020
   72        0.002   0.051   0.000   0.053
   73        0.003   0.026   0.000   0.029
   74        0.002   0.022   0.000   0.023
   75        0.002   0.032   0.000   0.034
   76        0.002   0.050   0.000   0.052
   77        0.003   0.074   0.000   0.076
   78        0.002   0.031   0.000   0.033
   79        0.002   0.031   0.000   0.033
   80        0.002   0.032   0.000   0.034
   81        0.002   0.031   0.000   0.033
   82        0.002   0.034   0.000   0.035
   83        0.002   0.016   0.000   0.018
   84        0.002   0.035   0.000   0.037
   85        0.002   0.018   0.000   0.020
   86        0.002   0.034   0.000   0.037
   87        0.001   0.034   0.000   0.036
   88        0.003   0.072   0.000   0.074
--------------------------------------------------
tot          0.418   2.044  44.110  46.573
 

 total amount of memory used by VASP MPI-rank0    94445. kBytes
=======================================================================

   base      :      30000. kBytes
   nonlr-proj:      13686. kBytes
   fftplans  :       1275. kBytes
   grid      :      22786. kBytes
   one-center:       2737. kBytes
   wavefun   :      23961. kBytes
 
  
  
 General timing and accounting informations for this job:
 ========================================================
  
                  Total CPU time used (sec):      684.318
                            User time (sec):      677.547
                          System time (sec):        6.772
                         Elapsed time (sec):      697.309
  
                   Maximum memory used (kb):      193648.
                   Average memory used (kb):           0.
  
                          Minor page faults:       233299
                          Major page faults:            0
                 Voluntary context switches:       196487
