 vasp.5.4.4.18Apr17-6-g9f103f2a35 (build Dec 02 2020 12:53:39) complex          
  
 executed on             LinuxIFC date 2021.08.02  22:01:03
 running on   96 total cores
 distrk:  each k-point on   96 cores,    1 groups
 distr:  one band on NCORES_PER_BAND=   1 cores,   96 groups


--------------------------------------------------------------------------------------------------------


 INCAR:
 POTCAR:    PAW_PBE Na_pv 19Sep2006               
 POTCAR:    PAW_PBE Mg_pv 13Apr2007               
 POTCAR:    PAW_PBE Mn_pv 02Aug2007               
 POTCAR:    PAW_PBE O 08Apr2002                   

 ----------------------------------------------------------------------------- 
|                                                                             |
|           W    W    AA    RRRRR   N    N  II  N    N   GGGG   !!!           |
|           W    W   A  A   R    R  NN   N  II  NN   N  G    G  !!!           |
|           W    W  A    A  R    R  N N  N  II  N N  N  G       !!!           |
|           W WW W  AAAAAA  RRRRR   N  N N  II  N  N N  G  GGG   !            |
|           WW  WW  A    A  R   R   N   NN  II  N   NN  G    G                |
|           W    W  A    A  R    R  N    N  II  N    N   GGGG   !!!           |
|                                                                             |
|      For optimal performance we recommend to set                            |
|        NCORE= 4 - approx SQRT( number of cores)                             |
|      NCORE specifies how many cores store one orbital (NPAR=cpu/NCORE).     |
|      This setting can  greatly improve the performance of VASP for DFT.     |
|      The default,   NCORE=1            might be grossly inefficient         |
|      on modern multi-core architectures or massively parallel machines.     |
|      Do your own testing !!!!                                               |
|      Unfortunately you need to use the default for GW and RPA calculations. |
|      (for HF NCORE is supported but not extensively tested yet)             |
|                                                                             |
 ----------------------------------------------------------------------------- 

 POTCAR:    PAW_PBE Na_pv 19Sep2006               
   VRHFIN =Na: p6s1                                                             
   LEXCH  = PE                                                                  
   EATOM  =   766.0439 eV,   56.3026 Ry                                         
                                                                                
   TITEL  = PAW_PBE Na_pv 19Sep2006                                             
   LULTRA =        F    use ultrasoft PP ?                                      
   IUNSCR =        1    unscreen: 0-lin 1-nonlin 2-no                           
   RPACOR =    1.800    partial core radius                                     
   POMASS =   22.990; ZVAL   =    7.000    mass and valenz                      
   RCORE  =    2.200    outmost cutoff radius                                   
   RWIGS  =    2.200; RWIGS  =    1.164    wigner-seitz radius (au A)           
   ENMAX  =  259.561; ENMIN  =  194.671 eV                                      
   ICORE  =        2    local potential                                         
   LCOR   =        T    correct aug charges                                     
   LPAW   =        T    paw PP                                                  
   EAUG   =  368.056                                                            
   DEXC   =    0.000                                                            
   RMAX   =    2.245    core radius for proj-oper                               
   RAUG   =    1.300    factor for augmentation sphere                          
   RDEP   =    2.259    radius for radial grids                                 
   RDEPT  =    1.738    core radius for aug-charge                              
                                                                                
   Atomic configuration                                                         
    5 entries                                                                   
     n  l   j            E        occ.                                          
     1  0  0.50     -1033.6933   2.0000                                         
     2  0  0.50       -56.7526   2.0000                                         
     2  1  1.50       -28.6721   6.0000                                         
     3  0  0.50        -2.7440   1.0000                                         
     3  2  1.50        -1.3606   0.0000                                         
   Description                                                                  
     l       E           TYP  RCUT    TYP  RCUT                                 
     1    -28.6720912     23  2.000                                             
     1      6.8029130     23  2.000                                             
     0     -2.7439560     23  2.200                                             
     0     34.0145650     23  2.200                                             
     2     -1.3605826     23  2.200                                             
  local pseudopotential read in
  partial core-charges read in
  partial kinetic energy density read in
  atomic valenz-charges read in
  non local Contribution for L=           1  read in
    real space projection operators read in
  non local Contribution for L=           1  read in
    real space projection operators read in
  non local Contribution for L=           0  read in
    real space projection operators read in
  non local Contribution for L=           0  read in
    real space projection operators read in
    PAW grid and wavefunctions read in
 
   number of l-projection  operators is LMAX  =           4
   number of lm-projection operators is LMMAX =           8
 
 POTCAR:    PAW_PBE Mg_pv 13Apr2007               
   VRHFIN =Mg: p6s2                                                             
   LEXCH  = PE                                                                  
   EATOM  =  1056.7344 eV,   77.6678 Ry                                         
                                                                                
   TITEL  = PAW_PBE Mg_pv 13Apr2007                                             
   LULTRA =        F    use ultrasoft PP ?                                      
   IUNSCR =        1    unscreen: 0-lin 1-nonlin 2-no                           
   RPACOR =    1.500    partial core radius                                     
   POMASS =   24.305; ZVAL   =    8.000    mass and valenz                      
   RCORE  =    2.000    outmost cutoff radius                                   
   RWIGS  =    2.000; RWIGS  =    1.058    wigner-seitz radius (au A)           
   ENMAX  =  403.929; ENMIN  =  302.947 eV                                      
   RCLOC  =    1.506    cutoff for local pot                                    
   LCOR   =        T    correct aug charges                                     
   LPAW   =        T    paw PP                                                  
   EAUG   =  758.780                                                            
   DEXC   =    0.000                                                            
   RMAX   =    2.045    core radius for proj-oper                               
   RAUG   =    1.300    factor for augmentation sphere                          
   RDEP   =    2.025    radius for radial grids                                 
   RDEPT  =    1.557    core radius for aug-charge                              
                                                                                
   Atomic configuration                                                         
    5 entries                                                                   
     n  l   j            E        occ.                                          
     1  0  0.50     -1259.6230   2.0000                                         
     2  0  0.50       -79.8442   2.0000                                         
     2  1  1.50       -46.6121   6.0000                                         
     3  0  0.50        -4.7055   2.0000                                         
     3  2  1.50        -1.3606   0.0000                                         
   Description                                                                  
     l       E           TYP  RCUT    TYP  RCUT                                 
     1    -46.6121073     23  1.600                                             
     1      2.7211652     23  1.600                                             
     0     -4.7054661     23  2.000                                             
     0     61.2262170     23  2.000                                             
     2     -1.3605826     23  2.000                                             
  local pseudopotential read in
  partial core-charges read in
  partial kinetic energy density read in
  atomic valenz-charges read in
  non local Contribution for L=           1  read in
    real space projection operators read in
  non local Contribution for L=           1  read in
    real space projection operators read in
  non local Contribution for L=           0  read in
    real space projection operators read in
  non local Contribution for L=           0  read in
    real space projection operators read in
  non local Contribution for L=           2  read in
    real space projection operators read in
    PAW grid and wavefunctions read in
 
   number of l-projection  operators is LMAX  =           5
   number of lm-projection operators is LMMAX =          13
 
 POTCAR:    PAW_PBE Mn_pv 02Aug2007               
   VRHFIN =Mn: 3p4s3d                                                           
   LEXCH  = PE                                                                  
   EATOM  =  2025.2664 eV,  148.8529 Ry                                         
                                                                                
   TITEL  = PAW_PBE Mn_pv 02Aug2007                                             
   LULTRA =        F    use ultrasoft PP ?                                      
   IUNSCR =        1    unscreen: 0-lin 1-nonlin 2-no                           
   RPACOR =    2.080    partial core radius                                     
   POMASS =   54.938; ZVAL   =   13.000    mass and valenz                      
   RCORE  =    2.300    outmost cutoff radius                                   
   RWIGS  =    2.500; RWIGS  =    1.323    wigner-seitz radius (au A)           
   ENMAX  =  269.864; ENMIN  =  202.398 eV                                      
   ICORE  =        3    local potential                                         
   LCOR   =        T    correct aug charges                                     
   LPAW   =        T    paw PP                                                  
   EAUG   =  569.085                                                            
   DEXC   =    0.000                                                            
   RMAX   =    2.343    core radius for proj-oper                               
   RAUG   =    1.300    factor for augmentation sphere                          
   RDEP   =    2.338    radius for radial grids                                 
   RDEPT  =    1.798    core radius for aug-charge                              
                                                                                
   Atomic configuration                                                         
    8 entries                                                                   
     n  l   j            E        occ.                                          
     1  0  0.50     -6424.8287   2.0000                                         
     2  0  0.50      -739.1154   2.0000                                         
     2  1  1.50      -625.3949   6.0000                                         
     3  0  0.50       -81.6100   2.0000                                         
     3  1  1.50       -50.4667   6.0000                                         
     3  2  2.50        -3.3745   6.0000                                         
     4  0  0.50        -4.1331   1.0000                                         
     4  3  2.50        -1.3606   0.0000                                         
   Description                                                                  
     l       E           TYP  RCUT    TYP  RCUT                                 
     1    -50.4666628     23  2.000                                             
     1     -1.3605826     23  2.000                                             
     2     -3.3744729     23  2.300                                             
     2     -4.7350555     23  2.300                                             
     0     -4.1331431     23  2.300                                             
     0      7.6656591     23  2.300                                             
     3      9.5240782     23  2.300                                             
  local pseudopotential read in
  partial core-charges read in
  partial kinetic energy density read in
  atomic valenz-charges read in
  non local Contribution for L=           1  read in
    real space projection operators read in
  non local Contribution for L=           1  read in
    real space projection operators read in
  non local Contribution for L=           2  read in
    real space projection operators read in
  non local Contribution for L=           2  read in
    real space projection operators read in
  non local Contribution for L=           0  read in
    real space projection operators read in
  non local Contribution for L=           0  read in
    real space projection operators read in
    PAW grid and wavefunctions read in
 
   number of l-projection  operators is LMAX  =           6
   number of lm-projection operators is LMMAX =          18
 
 POTCAR:    PAW_PBE O 08Apr2002                   
   VRHFIN =O: s2p4                                                              
   LEXCH  = PE                                                                  
   EATOM  =   432.3788 eV,   31.7789 Ry                                         
                                                                                
   TITEL  = PAW_PBE O 08Apr2002                                                 
   LULTRA =        F    use ultrasoft PP ?                                      
   IUNSCR =        1    unscreen: 0-lin 1-nonlin 2-no                           
   RPACOR =    1.200    partial core radius                                     
   POMASS =   16.000; ZVAL   =    6.000    mass and valenz                      
   RCORE  =    1.520    outmost cutoff radius                                   
   RWIGS  =    1.550; RWIGS  =    0.820    wigner-seitz radius (au A)           
   ENMAX  =  400.000; ENMIN  =  300.000 eV                                      
   ICORE  =        2    local potential                                         
   LCOR   =        T    correct aug charges                                     
   LPAW   =        T    paw PP                                                  
   EAUG   =  605.392                                                            
   DEXC   =    0.000                                                            
   RMAX   =    1.553    core radius for proj-oper                               
   RAUG   =    1.300    factor for augmentation sphere                          
   RDEP   =    1.550    radius for radial grids                                 
   RDEPT  =    1.329    core radius for aug-charge                              
                                                                                
   Atomic configuration                                                         
    4 entries                                                                   
     n  l   j            E        occ.                                          
     1  0  0.50      -514.6923   2.0000                                         
     2  0  0.50       -23.9615   2.0000                                         
     2  1  0.50        -9.0305   4.0000                                         
     3  2  1.50        -9.5241   0.0000                                         
   Description                                                                  
     l       E           TYP  RCUT    TYP  RCUT                                 
     0    -23.9615318     23  1.200                                             
     0     -9.5240782     23  1.200                                             
     1     -9.0304911     23  1.520                                             
     1      8.1634956     23  1.520                                             
     2     -9.5240782      7  1.500                                             
  local pseudopotential read in
  partial core-charges read in
  partial kinetic energy density read in
  kinetic energy density of atom read in
  atomic valenz-charges read in
  non local Contribution for L=           0  read in
    real space projection operators read in
  non local Contribution for L=           0  read in
    real space projection operators read in
  non local Contribution for L=           1  read in
    real space projection operators read in
  non local Contribution for L=           1  read in
    real space projection operators read in
    PAW grid and wavefunctions read in
 
   number of l-projection  operators is LMAX  =           4
   number of lm-projection operators is LMMAX =           8
 
 Optimization of the real space projectors (new method)

 maximal supplied QI-value         = 17.01
 optimisation between [QCUT,QGAM] = [ 10.20, 20.41] = [ 29.16,116.64] Ry 
 Optimized for a Real-space Cutoff    1.30 Angstroem

   l    n(q)    QCUT    max X(q) W(low)/X(q) W(high)/X(q)  e(spline) 
   1      7    10.205     4.940    0.23E-03    0.84E-03    0.11E-06
   1      7    10.205     6.253    0.40E-03    0.13E-02    0.18E-06
   0      8    10.205    37.438    0.23E-03    0.37E-03    0.42E-07
   0      8    10.205     9.606    0.16E-03    0.26E-03    0.31E-07
 Optimization of the real space projectors (new method)

 maximal supplied QI-value         = 18.90
 optimisation between [QCUT,QGAM] = [ 10.20, 20.41] = [ 29.16,116.64] Ry 
 Optimized for a Real-space Cutoff    1.26 Angstroem

   l    n(q)    QCUT    max X(q) W(low)/X(q) W(high)/X(q)  e(spline) 
   1      7    10.205     2.974    0.63E-04    0.14E-03    0.13E-06
   1      7    10.205     4.279    0.11E-03    0.45E-03    0.24E-06
   0      8    10.205    16.381    0.44E-03    0.15E-03    0.55E-07
   0      8    10.205     5.611    0.31E-03    0.11E-03    0.40E-07
   2      7    10.205     4.652    0.50E-03    0.47E-03    0.57E-07
 Optimization of the real space projectors (new method)

 maximal supplied QI-value         = 16.25
 optimisation between [QCUT,QGAM] = [ 10.24, 20.48] = [ 29.35,117.42] Ry 
 Optimized for a Real-space Cutoff    1.34 Angstroem

   l    n(q)    QCUT    max X(q) W(low)/X(q) W(high)/X(q)  e(spline) 
   1      8    10.239     3.658    0.23E-03    0.30E-03    0.98E-07
   1      8    10.239     5.612    0.32E-03    0.65E-03    0.21E-06
   2      7    10.239    55.373    0.42E-03    0.45E-03    0.65E-07
   2      7    10.239    50.863    0.43E-03    0.48E-03    0.67E-07
   0      8    10.239    79.536    0.11E-03    0.21E-03    0.56E-07
   0      8    10.239    38.668    0.96E-04    0.19E-03    0.52E-07
 Optimization of the real space projectors (new method)

 maximal supplied QI-value         = 24.76
 optimisation between [QCUT,QGAM] = [ 10.15, 20.30] = [ 28.85,115.39] Ry 
 Optimized for a Real-space Cutoff    1.38 Angstroem

   l    n(q)    QCUT    max X(q) W(low)/X(q) W(high)/X(q)  e(spline) 
   0      8    10.150    20.381    0.22E-03    0.32E-03    0.29E-06
   0      8    10.150    15.268    0.23E-03    0.35E-03    0.30E-06
   1      8    10.150     5.964    0.46E-03    0.53E-03    0.21E-06
   1      8    10.150     5.382    0.38E-03    0.45E-03    0.19E-06
  PAW_PBE Na_pv 19Sep2006               :
 energy of atom  1       EATOM= -766.0439
 kinetic energy error for atom=    0.0103 (will be added to EATOM!!)
  PAW_PBE Mg_pv 13Apr2007               :
 energy of atom  2       EATOM=-1056.7344
 kinetic energy error for atom=    0.0820 (will be added to EATOM!!)
  PAW_PBE Mn_pv 02Aug2007               :
 energy of atom  3       EATOM=-2025.2664
 kinetic energy error for atom=    0.0284 (will be added to EATOM!!)
  PAW_PBE O 08Apr2002                   :
 energy of atom  4       EATOM= -432.3788
 kinetic energy error for atom=    0.1156 (will be added to EATOM!!)
 
 
 POSCAR: Na Mg Mn  O                             
  positions in cartesian coordinates
  No initial velocities read in

 METAGGA = SCAN     LMAXTAU =  6    LMIXTAU =  F

 exchange correlation table for  LEXCH =        8
   RHO(1)=    0.500       N(1)  =     2000
   RHO(2)=  100.500       N(2)  =     4000

 VTST: version 3.2, (02/03/18)

 CHAIN: initializing optimizer
 
 OPT: Using VASP Dynamics algorithm
 CHAIN: Read ICHAIN            0
 
 POSCAR: Na Mg Mn  O                             
  positions in cartesian coordinates
  No initial velocities read in
 


--------------------------------------------------------------------------------------------------------


 ion  position               nearest neighbor table
   1  0.053  0.918  0.248-  41 2.29  25 2.87  27 2.90
   2  0.676  0.569  0.751-  71 2.30  82 2.31  85 2.37
   3  0.390  0.582  0.756-  85 2.22  82 2.34  84 2.35  38 2.79  40 2.85
   4  0.398  0.911  0.765-  49 2.23  84 2.27  46 2.37
   5  0.720  0.894  0.254-  63 2.36
   6  0.372  0.758  0.259-  88 2.23  79 2.37
   7  0.015  0.710  0.754-  72 2.31  73 2.34
   8  0.022  0.394  0.751-  60 2.35  37 2.88  39 2.91
   9  0.849  0.251  0.229-  55 2.21  53 2.27  66 2.28
  10  0.543  0.485  0.254-  74 2.25  87 2.27  65 2.30  78 2.33  35 2.84
  11  0.185  0.390  0.256-  64 2.21  55 2.36
  12  0.825  0.978  0.746-  56 2.09  59 2.17
  13  0.206  0.136  0.753-  48 2.31  61 2.36
  14  0.595  0.234  0.750-  46 2.21  49 2.32  71 2.37
  15  0.437  0.099  0.246-  43 2.20  52 2.30  26 2.86
  16  0.955  0.592  0.254-  75 2.24  67 2.24  76 2.30  66 2.32  36 2.87
  17  0.702  0.248  0.003-  66 1.98  60 2.00  49 2.03  43 2.10  53 2.11  71 2.13  34 2.82
  18  0.692  0.240  0.490-  52 1.95  68 2.04  57 2.04  62 2.07  75 2.08  46 2.09  35 2.81  31 2.81
                            28 2.85
  19  0.203  0.249  0.012-  78 1.92  61 2.03  41 2.07  83 2.10  55 2.12  48 2.16
  20  0.204  0.252  0.492-  87 1.91  50 2.07  58 2.08  45 2.09  64 2.10  80 2.17  32 2.85
  21  0.200  0.738  0.989-  73 1.93  42 1.95  84 2.03  67 2.17  77 2.17  47 2.21  38 2.82  37 2.85

  22  0.209  0.747  0.508-  81 1.93  51 2.00  86 2.08  70 2.12  76 2.17  44 2.23  31 2.82  40 2.83

  23  0.694  0.747  0.000-  54 2.03  85 2.03  65 2.03  79 2.06  72 2.13  59 2.13  38 2.80
  24  0.697  0.748  0.488-  63 1.99  88 2.03  74 2.09  56 2.10  82 2.14  69 2.14  40 2.82
  25  0.036  0.910  0.992-  47 1.85  61 1.92  54 1.93  72 1.96  67 1.97  41 2.01  26 2.86   1 2.87
                            30 2.91  34 2.92
  26  0.366  0.079  0.998-  48 1.88  49 1.88  43 1.89  41 1.89  42 1.92  47 1.95  29 2.85  15 2.86
                            25 2.86  33 2.89
  27  0.037  0.914  0.506-  76 1.83  50 1.87  58 1.89  63 1.90  44 1.93  69 1.93  28 2.84   1 2.90
                            32 2.92  36 2.93
  28  0.364  0.081  0.511-  50 1.87  45 1.88  46 1.92  44 1.94  51 1.97  52 2.11  27 2.84  18 2.85
                            31 2.91  35 2.92
  29  0.533  0.917  0.005-  53 1.86  79 1.87  49 1.88  59 1.89  42 1.90  84 2.00  26 2.85  38 2.89
                            30 2.93
  30  0.871  0.080  0.001-  59 1.86  54 1.86  55 1.90  61 1.91  60 1.93  53 2.03  37 2.88  25 2.91
                            29 2.93
  31  0.534  0.916  0.495-  51 1.82  88 1.89  62 1.89  81 1.92  56 1.93  46 1.99  18 2.81  22 2.82
                            40 2.88  28 2.91  32 2.97
  32  0.876  0.089  0.493-  57 1.88  64 1.88  63 1.88  58 1.89  56 1.97  62 2.07  39 2.84  20 2.85
                            27 2.92  31 2.97
  33  0.533  0.411  0.995-  43 1.87  48 1.89  85 1.89  65 1.90  71 1.91  78 1.98  34 2.86  26 2.89
                            38 2.91
  34  0.862  0.573  0.994-  66 1.85  71 1.88  67 1.90  73 1.94  65 1.96  72 1.96  17 2.82  33 2.86
                            37 2.90  25 2.92
  35  0.546  0.417  0.500-  52 1.82  82 1.88  45 1.89  68 1.95  74 1.96  87 2.00  18 2.81  36 2.82
                            10 2.84  28 2.92  40 2.95
  36  0.871  0.577  0.501-  74 1.88  70 1.88  68 1.89  75 1.92  69 1.94  76 1.95  39 2.80  35 2.82
                            16 2.87  27 2.93
  37  0.035  0.411  0.008-  77 1.85  60 1.90  73 1.91  55 1.92  83 1.96  66 2.01  21 2.85  30 2.88
                             8 2.88  34 2.90  38 2.92
  38  0.371  0.585  0.003-  84 1.87  83 1.88  85 1.89  79 1.93  77 1.98  78 1.99   3 2.79  23 2.80
                            21 2.82  29 2.89  33 2.91  37 2.92
  39  0.032  0.416  0.492-  75 1.86  70 1.87  57 1.91  80 1.92  64 1.93  86 1.96  36 2.80  32 2.84
                             8 2.91  40 2.95
  40  0.372  0.584  0.502-  80 1.88  88 1.91  82 1.94  81 1.94  86 1.95  87 2.01  24 2.82  22 2.83
                             3 2.85  31 2.88  39 2.95  35 2.95
  41  0.206  0.067  0.095-  26 1.89  25 2.01  19 2.07   1 2.29
  42  0.359  0.908  0.080-  29 1.90  26 1.92  21 1.95
  43  0.514  0.248  0.087-  33 1.87  26 1.89  17 2.10  15 2.20
  44  0.198  0.932  0.611-  27 1.93  28 1.94  22 2.23
  45  0.385  0.256  0.588-  28 1.88  35 1.89  20 2.09
  46  0.523  0.071  0.599-  28 1.92  31 1.99  18 2.09  14 2.21   4 2.37
  47  0.197  0.932  0.898-  25 1.85  26 1.95  21 2.21
  48  0.381  0.243  0.907-  26 1.88  33 1.89  19 2.16  13 2.31
  49  0.526  0.072  0.914-  29 1.88  26 1.88  17 2.03   4 2.23  14 2.32
  50  0.202  0.062  0.416-  27 1.87  28 1.87  20 2.07
  51  0.377  0.922  0.417-  31 1.82  28 1.97  22 2.00
  52  0.533  0.262  0.407-  35 1.82  18 1.95  28 2.11  15 2.30
  53  0.693  0.063  0.100-  29 1.86  30 2.03  17 2.11   9 2.27
  54  0.879  0.922  0.083-  30 1.86  25 1.93  23 2.03
  55  0.013  0.241  0.102-  30 1.90  37 1.92  19 2.12   9 2.21  11 2.36
  56  0.704  0.929  0.586-  31 1.93  32 1.97  12 2.09  24 2.10
  57  0.873  0.248  0.579-  32 1.88  39 1.91  18 2.04
  58  0.025  0.074  0.587-  27 1.89  32 1.89  20 2.08
  59  0.701  0.939  0.913-  30 1.86  29 1.89  23 2.13  12 2.17
  60  0.877  0.250  0.916-  37 1.90  30 1.93  17 2.00   8 2.35
  61  0.033  0.078  0.914-  30 1.91  25 1.92  19 2.03  13 2.36
  62  0.690  0.062  0.394-  31 1.89  32 2.07  18 2.07
  63  0.882  0.925  0.417-  32 1.88  27 1.90  24 1.99   5 2.36
  64  0.022  0.251  0.398-  32 1.88  39 1.93  20 2.10  11 2.21
  65  0.694  0.569  0.086-  33 1.90  34 1.96  23 2.03  10 2.30
  66  0.865  0.426  0.092-  34 1.85  17 1.98  37 2.01   9 2.28  16 2.32
  67  0.013  0.736  0.089-  34 1.90  25 1.97  21 2.17  16 2.24
  68  0.711  0.418  0.592-  36 1.89  35 1.95  18 2.04
  69  0.874  0.743  0.592-  27 1.93  36 1.94  24 2.14
  70  0.018  0.558  0.592-  39 1.87  36 1.88  22 2.12
  71  0.698  0.425  0.901-  34 1.88  33 1.91  17 2.13   2 2.30  14 2.37
  72  0.871  0.743  0.900-  25 1.96  34 1.96  23 2.13   7 2.31
  73  0.028  0.565  0.912-  37 1.91  21 1.93  34 1.94   7 2.34
  74  0.716  0.572  0.404-  36 1.88  35 1.96  24 2.09  10 2.25
  75  0.879  0.422  0.404-  39 1.86  36 1.92  18 2.08  16 2.24
  76  0.025  0.757  0.415-  27 1.83  36 1.95  22 2.17  16 2.30
  77  0.194  0.558  0.100-  37 1.85  38 1.98  21 2.17
  78  0.372  0.415  0.095-  19 1.92  33 1.98  38 1.99  10 2.33
  79  0.522  0.755  0.096-  29 1.87  38 1.93  23 2.06   6 2.37
  80  0.200  0.438  0.588-  40 1.88  39 1.92  20 2.17
  81  0.381  0.754  0.592-  31 1.92  22 1.93  40 1.94
  82  0.525  0.562  0.593-  35 1.88  40 1.94  24 2.14   2 2.31   3 2.34
  83  0.208  0.430  0.914-  38 1.88  37 1.96  19 2.10
  84  0.381  0.741  0.906-  38 1.87  29 2.00  21 2.03   4 2.27   3 2.35
  85  0.520  0.568  0.911-  33 1.89  38 1.89  23 2.03   3 2.22   2 2.37
  86  0.208  0.575  0.403-  40 1.95  39 1.96  22 2.08
  87  0.374  0.415  0.408-  20 1.91  35 2.00  40 2.01  10 2.27
  88  0.518  0.749  0.405-  31 1.89  40 1.91  24 2.03   6 2.23
 
  LATTYP: Found a hexagonal cell.
 ALAT       =    10.0190000534
 C/A-ratio  =     1.1196726572
  
  Lattice vectors:
  
 A1 = (  10.0190000534,   0.0000000000,   0.0000000000)
 A2 = (  -5.0095000267,   8.6767085668,   0.0000000000)
 A3 = (   0.0000000000,   0.0000000000,  11.2180004120)


Analysis of symmetry for initial positions (statically):
=====================================================================
 Subroutine PRICEL returns:
 Original cell was already a primitive cell.
 

 Routine SETGRP: Setting up the symmetry group for a 
 hexagonal supercell.


 Subroutine GETGRP returns: Found  1 space group operations
 (whereof  1 operations were pure point group operations)
 out of a pool of 24 trial point group operations.


The static configuration has the point symmetry C_1 .


Analysis of symmetry for dynamics (positions and initial velocities):
=====================================================================
 Subroutine PRICEL returns:
 Original cell was already a primitive cell.
 

 Routine SETGRP: Setting up the symmetry group for a 
 hexagonal supercell.


 Subroutine GETGRP returns: Found  1 space group operations
 (whereof  1 operations were pure point group operations)
 out of a pool of 24 trial point group operations.


The dynamic configuration has the point symmetry C_1 .


Analysis of structural, dynamic, and magnetic symmetry:
=====================================================================
 Subroutine PRICEL returns:
 Original cell was already a primitive cell.
 

 Routine SETGRP: Setting up the symmetry group for a 
 hexagonal supercell.


 Subroutine GETGRP returns: Found  1 space group operations
 (whereof  1 operations were pure point group operations)
 out of a pool of 24 trial point group operations.


The magnetic configuration has the point symmetry C_1 .


 Subroutine INISYM returns: Found  1 space group operations
 (whereof  1 operations are pure point group operations),
 and found     1 'primitive' translations

 
 

Automatic generation of k-mesh.
 generate k-points for:    2    2    2
Space group operators:
 irot       det(A)        alpha          n_x          n_y          n_z        tau_x        tau_y        tau_z
    1     1.000000     0.000000     1.000000     0.000000     0.000000     0.000000     0.000000     0.000000
 
 Subroutine IBZKPT returns following result:
 ===========================================
 
 Found      8 irreducible k-points:
 
 Following reciprocal coordinates:
            Coordinates               Weight
  0.000000  0.000000  0.000000      1.000000
  0.500000 -0.000000 -0.000000      1.000000
  0.000000  0.500000  0.000000      1.000000
  0.500000  0.500000 -0.000000      1.000000
  0.000000  0.000000  0.500000      1.000000
  0.500000 -0.000000  0.500000      1.000000
  0.000000  0.500000  0.500000      1.000000
  0.500000  0.500000  0.500000      1.000000
 
 Following cartesian coordinates:
            Coordinates               Weight
  0.000000  0.000000  0.000000      1.000000
  0.049905  0.028813 -0.000000      1.000000
  0.000000  0.057626  0.000000      1.000000
  0.049905  0.086438 -0.000000      1.000000
  0.000000  0.000000  0.044571      1.000000
  0.049905  0.028813  0.044571      1.000000
  0.000000  0.057626  0.044571      1.000000
  0.049905  0.086438  0.044571      1.000000
 


--------------------------------------------------------------------------------------------------------




 Dimension of arrays:
   k-points           NKPTS =      8   k-points in BZ     NKDIM =      8   number of bands    NBANDS=    480
   number of dos      NEDOS =    301   number of ions     NIONS =     88
   non local maximal  LDIM  =      6   non local SUM 2l+1 LMDIM =     18
   total plane-waves  NPLWV = 140000
   max r-space proj   IRMAX =   1632   max aug-charges    IRDMAX=   4555
   dimension x,y,z NGX =    50 NGY =   50 NGZ =   56
   dimension x,y,z NGXF=   100 NGYF=  100 NGZF=  112
   support grid    NGXF=   100 NGYF=  100 NGZF=  112
   ions per type =              16   8  16  48
   NGX,Y,Z   is equivalent  to a cutoff of   8.30,  8.30,  8.30 a.u.
   NGXF,Y,Z  is equivalent  to a cutoff of  16.59, 16.59, 16.60 a.u.

 SYSTEM =  unknown system                          
 POSCAR =  Na Mg Mn  O                             

 Startparameter for this run:
   NWRITE =      2    write-flag & timer
   PREC   = normal    normal or accurate (medium, high low for compatibility)
   ISTART =      0    job   : 0-new  1-cont  2-samecut
   ICHARG =      1    charge: 1-file 2-atom 10-const
   ISPIN  =      2    spin polarized calculation?
   LNONCOLLINEAR =      F non collinear calculations
   LSORBIT =      F    spin-orbit coupling
   INIWAV =      1    electr: 0-lowe 1-rand  2-diag
   LASPH  =      T    aspherical Exc in radial PAW
   METAGGA=      F    non-selfconsistent MetaGGA calc.

 Electronic Relaxation 1
   ENCUT  =  400.0 eV  29.40 Ry    5.42 a.u.  16.34 16.34 18.29*2*pi/ulx,y,z
   ENINI  =  400.0     initial cutoff
   ENAUG  =  758.8 eV  augmentation charge cutoff
   NELM   =    200;   NELMIN=  6; NELMDL=-12     # of ELM steps 
   EDIFF  = 0.1E-04   stopping-criterion for ELM
   LREAL  =      T    real-space projection
   NLSPLINE    = F    spline interpolate recip. space projectors
   LCOMPAT=      F    compatible to vasp.4.4
   GGA_COMPAT  = T    GGA compatible to vasp.4.4-vasp.4.6
   LMAXPAW     = -100 max onsite density
   LMAXMIX     =    4 max onsite mixed and CHGCAR
   VOSKOWN=      0    Vosko Wilk Nusair interpolation
   ROPT   =   -0.00050  -0.00050  -0.00050  -0.00050
 Ionic relaxation
   EDIFFG = 0.1E-03   stopping-criterion for IOM
   NSW    =      1    number of steps for IOM
   NBLOCK =      1;   KBLOCK =      1    inner block; outer block 
   IBRION =     -1    ionic relax: 0-MD 1-quasi-New 2-CG
   NFREE  =      0    steps in history (QN), initial steepest desc. (CG)
   ISIF   =      2    stress and relaxation
   IWAVPR =     10    prediction:  0-non 1-charg 2-wave 3-comb
   ISYM   =      2    0-nonsym 1-usesym 2-fastsym
   LCORR  =      T    Harris-Foulkes like correction to forces

   POTIM  = 0.5000    time-step for ionic-motion
   TEIN   =    0.0    initial temperature
   TEBEG  =    0.0;   TEEND  =   0.0 temperature during run
   SMASS  =  -3.00    Nose mass-parameter (am)
   estimated Nose-frequenzy (Omega)   =  0.10E-29 period in steps =****** mass=  -0.229E-26a.u.
   SCALEE = 1.0000    scale energy and forces
   NPACO  =    256;   APACO  = 16.0  distance and # of slots for P.C.
   PSTRESS=    0.0 pullay stress

  Mass of Ions in am
   POMASS =  22.99 24.30 54.94 16.00
  Ionic Valenz
   ZVAL   =   7.00  8.00 13.00  6.00
  Atomic Wigner-Seitz radii
   RWIGS  =  -1.00 -1.00 -1.00 -1.00
  virtual crystal weights 
   VCA    =   1.00  1.00  1.00  1.00
   NELECT =     672.0000    total number of electrons
   NUPDOWN=      48.0000    fix difference up-down

 DOS related values:
   EMIN   =  10.00;   EMAX   =-10.00  energy-range for DOS
   EFERMI =   0.00
   ISMEAR =     0;   SIGMA  =   0.05  broadening in eV -4-tet -1-fermi 0-gaus

 Electronic relaxation 2 (details)
   IALGO  =     48    algorithm
   LDIAG  =      T    sub-space diagonalisation (order eigenvalues)
   LSUBROT=      F    optimize rotation matrix (better conditioning)
   TURBO    =      0    0=normal 1=particle mesh
   IRESTART =      0    0=no restart 2=restart with 2 vectors
   NREBOOT  =      0    no. of reboots
   NMIN     =      0    reboot dimension
   EREF     =   0.00    reference energy to select bands
   IMIX   =      4    mixing-type and parameters
     AMIX     =   0.40;   BMIX     =  1.00
     AMIX_MAG =   1.60;   BMIX_MAG =  1.00
     AMIN     =   0.10
     WC   =   100.;   INIMIX=   1;  MIXPRE=   1;  MAXMIX= -45

 Intra band minimization:
   WEIMIN = 0.0000     energy-eigenvalue tresh-hold
   EBREAK =  0.52E-08  absolut break condition
   DEPER  =   0.30     relativ break condition  

   TIME   =   0.40     timestep for ELM

  volume/ion in A,a.u.               =      11.08        74.78
  Fermi-wavevector in a.u.,A,eV,Ry     =   1.445993  2.732531 28.448379  2.090897
  Thomas-Fermi vector in A             =   2.564112
 
 Write flags
   LWAVE        =      F    write WAVECAR
   LDOWNSAMPLE  =      F    k-point downsampling of WAVECAR
   LCHARG       =      F    write CHGCAR
   LVTOT        =      F    write LOCPOT, total local potential
   LVHAR        =      F    write LOCPOT, Hartree potential only
   LELF         =      F    write electronic localiz. function (ELF)
   LORBIT       =     11    0 simple, 1 ext, 2 COOP (PROOUT), +10 PAW based schemes


 Dipole corrections
   LMONO  =      F    monopole corrections only (constant potential shift)
   LDIPOL =      F    correct potential (dipole corrections)
   IDIPOL =      0    1-x, 2-y, 3-z, 4-all directions 
   EPSILON=  1.0000000 bulk dielectric constant

 Exchange correlation treatment:
   GGA     =    --    GGA type
   LEXCH   =     8    internal setting for exchange type
   VOSKOWN=      0    Vosko Wilk Nusair interpolation
   LHFCALC =     F    Hartree Fock is set to
   LHFONE  =     F    Hartree Fock one center treatment
   AEXX    =    0.0000 exact exchange contribution

 Linear response parameters
   LEPSILON=     F    determine dielectric tensor
   LRPA    =     F    only Hartree local field effects (RPA)
   LNABLA  =     F    use nabla operator in PAW spheres
   LVEL    =     F    velocity operator in full k-point grid
   LINTERFAST=   F  fast interpolation
   KINTER  =     0    interpolate to denser k-point grid
   CSHIFT  =0.1000    complex shift for real part using Kramers Kronig
   OMEGAMAX=  -1.0    maximum frequency
   DEG_THRESHOLD= 0.2000000E-02 threshold for treating states as degnerate
   RTIME   =   -0.100 relaxation time in fs
  (WPLASMAI=    0.000 imaginary part of plasma frequency in eV, 0.658/RTIME)
   DFIELD  = 0.0000000 0.0000000 0.0000000 field for delta impulse in time
 
 Orbital magnetization related:
   ORBITALMAG=     F  switch on orbital magnetization
   LCHIMAG   =     F  perturbation theory with respect to B field
   DQ        =  0.001000  dq finite difference perturbation B field
   LLRAUG    =     F  two centre corrections for induced B field



--------------------------------------------------------------------------------------------------------


 Static calculation
 charge density and potential will be updated during run
 spin polarized calculation
 RMM-DIIS sequential band-by-band
 perform sub-space diagonalisation
    before iterative eigenvector-optimisation
 modified Broyden-mixing scheme, WC =      100.0
 initial mixing is a Kerker type mixing with AMIX =  0.4000 and BMIX =      1.0000
 Hartree-type preconditioning will be used
 using additional bands          144
 real space projection scheme for non local part
 use partial core corrections
 calculate Harris-corrections to forces 
   (improved forces if not selfconsistent)
 use gradient corrections 
 use of overlap-Matrix (Vanderbilt PP)
 Gauss-broadening in eV      SIGMA  =   0.05


--------------------------------------------------------------------------------------------------------


  energy-cutoff  :      400.00
  volume of cell :      975.20
      direct lattice vectors                 reciprocal lattice vectors
    10.019000053  0.000000000  0.000000000     0.099810360  0.057625538 -0.000000000
    -5.009500027  8.676708567  0.000000000     0.000000000  0.115251076  0.000000000
     0.000000000  0.000000000 11.218000412     0.000000000  0.000000000  0.089142446

  length of vectors
    10.019000053 10.019000053 11.218000412     0.115251076  0.115251076  0.089142446


 
 k-points in units of 2pi/SCALE and weight: read from INCAR                         
   0.00000000  0.00000000  0.00000000       0.125
   0.04990518  0.02881277 -0.00000000       0.125
   0.00000000  0.05762554  0.00000000       0.125
   0.04990518  0.08643831 -0.00000000       0.125
   0.00000000  0.00000000  0.04457122       0.125
   0.04990518  0.02881277  0.04457122       0.125
   0.00000000  0.05762554  0.04457122       0.125
   0.04990518  0.08643831  0.04457122       0.125
 
 k-points in reciprocal lattice and weights: read from INCAR                         
   0.00000000  0.00000000  0.00000000       0.125
   0.50000000 -0.00000000 -0.00000000       0.125
   0.00000000  0.50000000  0.00000000       0.125
   0.50000000  0.50000000 -0.00000000       0.125
   0.00000000  0.00000000  0.50000000       0.125
   0.50000000 -0.00000000  0.50000000       0.125
   0.00000000  0.50000000  0.50000000       0.125
   0.50000000  0.50000000  0.50000000       0.125
 
 position of ions in fractional coordinates (direct lattice) 
   0.05306471  0.91838610  0.24809413
   0.67556879  0.56922721  0.75149043
   0.39023854  0.58244535  0.75578799
   0.39794060  0.91056332  0.76502047
   0.71962101  0.89399799  0.25423515
   0.37191358  0.75820785  0.25891424
   0.01452756  0.71022093  0.75405774
   0.02176649  0.39440631  0.75105007
   0.84865972  0.25102738  0.22904617
   0.54254691  0.48460476  0.25431359
   0.18532258  0.38981075  0.25595292
   0.82476654  0.97758977  0.74610712
   0.20600932  0.13643225  0.75284183
   0.59539111  0.23382040  0.74996342
   0.43716374  0.09945970  0.24594758
   0.95504326  0.59217057  0.25441611
   0.70200080  0.24818167  0.00316466
   0.69184232  0.24016135  0.48970849
   0.20259513  0.24921201  0.01199777
   0.20422958  0.25219586  0.49199232
   0.19972106  0.73814857  0.98865213
   0.20932422  0.74715429  0.50839274
   0.69359479  0.74734330  0.00025753
   0.69704864  0.74761760  0.48830360
   0.03636270  0.90977701  0.99231165
   0.36628621  0.07866485  0.99760961
   0.03699796  0.91434326  0.50618825
   0.36410823  0.08093830  0.51088962
   0.53345409  0.91746772  0.00521480
   0.87073825  0.07980768  0.00139950
   0.53400236  0.91585420  0.49464698
   0.87600818  0.08920572  0.49280797
   0.53321993  0.41136451  0.99474925
   0.86242655  0.57292578  0.99406597
   0.54581588  0.41737486  0.50014707
   0.87059967  0.57663801  0.50092171
   0.03451424  0.41115245  0.00781442
   0.37078009  0.58456268  0.00345697
   0.03249963  0.41640560  0.49211712
   0.37236949  0.58443475  0.50232571
   0.20642993  0.06692515  0.09504011
   0.35912159  0.90780502  0.08045409
   0.51447524  0.24762500  0.08691264
   0.19843527  0.93237309  0.61100550
   0.38512152  0.25645324  0.58834460
   0.52290066  0.07056028  0.59911568
   0.19721649  0.93210939  0.89790512
   0.38059181  0.24304608  0.90739879
   0.52619912  0.07190918  0.91435190
   0.20164909  0.06245179  0.41636297
   0.37749632  0.92187556  0.41722765
   0.53321661  0.26241287  0.40681403
   0.69261477  0.06250873  0.09969691
   0.87862058  0.92203207  0.08303512
   0.01293343  0.24128159  0.10244963
   0.70366917  0.92931260  0.58571847
   0.87320569  0.24824390  0.57905863
   0.02471389  0.07378950  0.58652164
   0.70123407  0.93943591  0.91281865
   0.87708338  0.24975715  0.91601886
   0.03348812  0.07829674  0.91365659
   0.69008766  0.06241906  0.39362184
   0.88211048  0.92517716  0.41687108
   0.02244724  0.25051781  0.39802102
   0.69422211  0.56899917  0.08621581
   0.86527070  0.42645318  0.09209930
   0.01331910  0.73565108  0.08868069
   0.71132030  0.41776786  0.59157156
   0.87411627  0.74301447  0.59241841
   0.01845136  0.55823818  0.59215812
   0.69830103  0.42510590  0.90107859
   0.87126224  0.74262031  0.90009802
   0.02827070  0.56518897  0.91158848
   0.71575640  0.57215360  0.40372168
   0.87862539  0.42226727  0.40405775
   0.02502150  0.75729523  0.41473612
   0.19352400  0.55761352  0.09955874
   0.37159079  0.41465378  0.09492779
   0.52224791  0.75548694  0.09641201
   0.20018351  0.43778813  0.58810214
   0.38072057  0.75397369  0.59233997
   0.52503839  0.56220973  0.59273754
   0.20791269  0.43034752  0.91427167
   0.38068377  0.74068524  0.90594577
   0.52024104  0.56831919  0.91113386
   0.20825799  0.57526076  0.40337759
   0.37378791  0.41462842  0.40832143
   0.51843555  0.74897410  0.40497859
 
 position of ions in cartesian coordinates  (Angst):
  -4.06899992  7.96856857  2.78312000
   3.91698003  4.93901857  8.43022000
   0.99203997  5.05370857  8.47843000
  -0.57450008  7.90069257  8.58200000
   2.73139995  7.75696000  2.85201000
  -0.07204003  6.57874857  2.90450000
  -3.41230016  6.16238000  8.45902000
  -1.75769992  3.42214857  8.42528000
   7.24520008  2.17809143  2.56944000
   3.00814997  4.20477430  2.85289000
  -0.09601003  3.38227430  2.87128000
   3.36610003  8.48226157  8.36983000
   1.38055000  1.18378287  8.44538000
   4.79390029  2.02879143  8.41309000
   3.88170011  0.86298287  2.75904000
   6.60209997  5.13809143  2.85404000
   5.79008000  2.15340000  0.03550120
   5.72848000  2.08381000  5.49355000
   0.78137300  2.16234000  0.13459100
   0.78280100  2.18823000  5.51917000
  -1.69675000  6.40470000 11.09070000
  -1.64565000  6.48284000  5.70315000
   3.20531000  6.48448000  0.00288894
   3.23854000  6.48686000  5.47779000
  -4.19321005  7.89387000 11.13175251
   3.27575000  0.68255200 11.19118501
  -4.20972005  7.93349000  5.67842000
   3.24254000  0.70227800  5.73116000
   0.74862200  7.96060000  0.05849959
   8.32413000  0.69246800  0.01569959
   0.76219800  7.94660000  5.54895000
   8.32985000  0.77401200  5.52832000
   3.28160000  3.56929000 11.15909751
   5.77058000  4.97111000 11.15143251
   3.37769000  3.62144000  5.61065000
   5.83387000  5.00332000  5.61934000
  -1.71387005  3.56745000  0.08766220
   0.78647900  5.07208000  0.03878030
  -1.76037005  3.61303000  5.52057000
   0.80304400  5.07097000  5.63509000
   1.73296000  0.58069000  1.06616000
  -0.94961003  7.87675957  0.90253400
   3.91405000  2.14857000  0.97498600
  -2.68260003  8.08992957  6.85426000
   2.57383000  2.22517000  6.60005000
   4.88547000  0.61223100  6.72088000
  -2.69349003  8.08764157 10.07270000
   2.59561000  2.10884000 10.17920000
   4.91176000  0.62393500 10.25720000
   1.70747000  0.54187600  4.67076000
  -0.83600003  7.99884557  4.68046000
   4.02774000  2.27688000  4.56364000
   6.62617000  0.54237000  1.11840000
   4.18397997  8.00020357  0.93148800
  -1.07912005  2.09353000  1.14928000
   2.39466997  8.06337457  6.57059000
   7.50507000  2.15394000  6.49588000
  -0.12204005  0.64025000  6.57960000
   2.31955997  8.15121157 10.24000000
   7.53634000  2.16707000 10.27590000
  -0.05671005  0.67935800 10.24940000
   6.60130000  0.54159200  4.41565000
   4.20318997  8.02749257  4.67646000
  -1.03007005  2.17367000  4.46500000
   4.10501000  4.93704000  0.96716900
   6.53283000  3.70021000  1.03317000
  -3.55180005  6.38303000  0.99482000
   5.03391000  3.62485000  6.63625000
   5.03564000  6.44692000  6.64575000
  -2.61163005  4.84367000  6.64283000
   4.86671000  3.68852000 10.10830000
   5.00902000  6.44350000 10.09730000
  -2.54807005  4.90398000 10.22620000
   4.30496000  4.96441000  4.52895000
   6.68760000  3.66389000  4.53272000
  -3.54298005  6.57083000  4.65251000
  -0.85444800  4.83825000  1.11685000
   1.64576000  3.59783000  1.06490000
   1.44779000  6.55514000  1.08155000
  -0.18746100  3.79856000  6.59733000
   0.03740820  6.54201000  6.64487000
   2.44397000  4.87813000  6.64933000
  -0.07274870  3.73400000 10.25630000
   0.10360800  6.42671000 10.16290000
   2.36530000  4.93114000 10.22110000
  -0.79523200  4.99137000  4.52509000
   1.66790000  3.59761000  4.58055000
   1.44222000  6.49863000  4.54305000
 


--------------------------------------------------------------------------------------------------------


 k-point  1 :   0.0000 0.0000 0.0000  plane waves:   17725
 k-point  2 :   0.5000-0.0000-0.0000  plane waves:   17736
 k-point  3 :   0.0000 0.5000 0.0000  plane waves:   17736
 k-point  4 :   0.5000 0.5000-0.0000  plane waves:   17736
 k-point  5 :   0.0000 0.0000 0.5000  plane waves:   17676
 k-point  6 :   0.5000-0.0000 0.5000  plane waves:   17700
 k-point  7 :   0.0000 0.5000 0.5000  plane waves:   17700
 k-point  8 :   0.5000 0.5000 0.5000  plane waves:   17700

 maximum and minimum number of plane-waves per node :     17736    17676

 maximum number of plane-waves:     17736
 maximum index in each direction: 
   IXMAX=   16   IYMAX=   16   IZMAX=   18
   IXMIN=  -16   IYMIN=  -16   IZMIN=  -18


 serial   3D FFT for wavefunctions
 parallel 3D FFT for charge:
    minimum data exchange during FFTs selected (reduces bandwidth)


 total amount of memory used by VASP MPI-rank0    94426. kBytes
=======================================================================

   base      :      30000. kBytes
   nonlr-proj:      13667. kBytes
   fftplans  :       1275. kBytes
   grid      :      22786. kBytes
   one-center:       2737. kBytes
   wavefun   :      23961. kBytes
 
     INWAV:  cpu time    0.0000: real time    0.0001
 Broyden mixing: mesh for mixing (old mesh)
   NGX = 33   NGY = 33   NGZ = 37
  (NGX  =100   NGY  =100   NGZ  =112)
  gives a total of  40293 points

 initial charge density was supplied:
 charge density of overlapping atoms calculated
 number of electron     672.0000000 magnetization      48.0000000
 keeping initial charge density in first step


--------------------------------------------------------------------------------------------------------


 Maximum index for non-local projection operator         1548
 Maximum index for augmentation-charges          483 (set IRDMAX)


--------------------------------------------------------------------------------------------------------


 First call to EWALD:  gamma=   0.179
 Maximum number of real-space cells 3x 3x 2
 Maximum number of reciprocal cells 3x 3x 3

    FEWALD:  cpu time    0.0027: real time    0.0027


--------------------------------------- Iteration      1(   1)  ---------------------------------------


    POTLOK:  cpu time    0.1980: real time    0.2002
    SETDIJ:  cpu time    4.6127: real time    4.6159
    EDDIAG:  cpu time    4.4744: real time    4.8441
  RMM-DIIS:  cpu time    8.9867: real time    9.0438
    ORTHCH:  cpu time    1.1623: real time    1.2397
       DOS:  cpu time    0.0025: real time    0.0026
    --------------------------------------------
      LOOP:  cpu time   19.4365: real time   19.9463

 eigenvalue-minimisations  :  7680
 total energy-change (2. order) : 0.1611823E+04  (-0.3498077E+05)
 number of electron     672.0000000 magnetization      48.0000000
 augmentation part      672.0000000 magnetization      48.0000000

 Free energy of the ion-electron system (eV)
  ---------------------------------------------------
  alpha Z        PSCENC =      2652.81237852
  Ewald energy   TEWEN  =    -41571.02622090
  -Hartree energ DENC   =    -26027.30735747
  -exchange      EXHF   =         0.00000000
  -V(xc)+E(xc)   XCENC  =      3607.22898821
  PAW double counting   =     55594.23204139   -59034.67079123
  entropy T*S    EENTRO =        -0.05412240
  eigenvalues    EBANDS =     -7471.59029310
  atomic energy  EATOM  =     73862.19814772
  Solvation  Ediel_sol  =         0.00000000
  ---------------------------------------------------
  free energy    TOTEN  =      1611.82277073 eV

  energy without entropy =     1611.87689313  energy(sigma->0) =     1611.84983193


--------------------------------------------------------------------------------------------------------




--------------------------------------- Iteration      1(   2)  ---------------------------------------


    EDDIAG:  cpu time    4.4158: real time    4.8007
  RMM-DIIS:  cpu time    9.0562: real time    9.0644
    ORTHCH:  cpu time    1.1624: real time    1.2430
       DOS:  cpu time    0.0020: real time    0.0020
    --------------------------------------------
      LOOP:  cpu time   14.6363: real time   15.1101

 eigenvalue-minimisations  :  7680
 total energy-change (2. order) :-0.2339753E+04  (-0.8042969E+04)
 number of electron     672.0000000 magnetization      48.0000000
 augmentation part      672.0000000 magnetization      48.0000000

 Free energy of the ion-electron system (eV)
  ---------------------------------------------------
  alpha Z        PSCENC =      2652.81237852
  Ewald energy   TEWEN  =    -41571.02622090
  -Hartree energ DENC   =    -26027.30735747
  -exchange      EXHF   =         0.00000000
  -V(xc)+E(xc)   XCENC  =      3607.22898821
  PAW double counting   =     55594.23204139   -59034.67079123
  entropy T*S    EENTRO =        -0.05474441
  eigenvalues    EBANDS =     -9811.34308480
  atomic energy  EATOM  =     73862.19814772
  Solvation  Ediel_sol  =         0.00000000
  ---------------------------------------------------
  free energy    TOTEN  =      -727.93064297 eV

  energy without entropy =     -727.87589856  energy(sigma->0) =     -727.90327077


--------------------------------------------------------------------------------------------------------




--------------------------------------- Iteration      1(   3)  ---------------------------------------


    EDDIAG:  cpu time    4.4458: real time    4.8171
  RMM-DIIS:  cpu time    8.9930: real time    9.0455
    ORTHCH:  cpu time    1.1617: real time    1.2407
       DOS:  cpu time    0.0023: real time    0.0023
    --------------------------------------------
      LOOP:  cpu time   14.6028: real time   15.1056

 eigenvalue-minimisations  :  7680
 total energy-change (2. order) : 0.8795086E+02  (-0.1422400E+04)
 number of electron     672.0000000 magnetization      48.0000000
 augmentation part      672.0000000 magnetization      48.0000000

 Free energy of the ion-electron system (eV)
  ---------------------------------------------------
  alpha Z        PSCENC =      2652.81237852
  Ewald energy   TEWEN  =    -41571.02622090
  -Hartree energ DENC   =    -26027.30735747
  -exchange      EXHF   =         0.00000000
  -V(xc)+E(xc)   XCENC  =      3607.22898821
  PAW double counting   =     55594.23204139   -59034.67079123
  entropy T*S    EENTRO =        -0.04840208
  eigenvalues    EBANDS =     -9723.39857208
  atomic energy  EATOM  =     73862.19814772
  Solvation  Ediel_sol  =         0.00000000
  ---------------------------------------------------
  free energy    TOTEN  =      -639.97978792 eV

  energy without entropy =     -639.93138584  energy(sigma->0) =     -639.95558688


--------------------------------------------------------------------------------------------------------




--------------------------------------- Iteration      1(   4)  ---------------------------------------


    EDDIAG:  cpu time    4.4311: real time    4.8150
  RMM-DIIS:  cpu time    9.0428: real time    9.0513
    ORTHCH:  cpu time    1.1635: real time    1.2385
       DOS:  cpu time    0.0012: real time    0.0012
    --------------------------------------------
      LOOP:  cpu time   14.6386: real time   15.1060

 eigenvalue-minimisations  :  7680
 total energy-change (2. order) :-0.4693361E+03  (-0.4307702E+03)
 number of electron     672.0000000 magnetization      48.0000000
 augmentation part      672.0000000 magnetization      48.0000000

 Free energy of the ion-electron system (eV)
  ---------------------------------------------------
  alpha Z        PSCENC =      2652.81237852
  Ewald energy   TEWEN  =    -41571.02622090
  -Hartree energ DENC   =    -26027.30735747
  -exchange      EXHF   =         0.00000000
  -V(xc)+E(xc)   XCENC  =      3607.22898821
  PAW double counting   =     55594.23204139   -59034.67079123
  entropy T*S    EENTRO =        -0.00000000
  eigenvalues    EBANDS =    -10192.78308807
  atomic energy  EATOM  =     73862.19814772
  Solvation  Ediel_sol  =         0.00000000
  ---------------------------------------------------
  free energy    TOTEN  =     -1109.31590183 eV

  energy without entropy =    -1109.31590183  energy(sigma->0) =    -1109.31590183


--------------------------------------------------------------------------------------------------------




--------------------------------------- Iteration      1(   5)  ---------------------------------------


    EDDIAG:  cpu time    4.4630: real time    4.8412
  RMM-DIIS:  cpu time    9.0106: real time    9.0520
    ORTHCH:  cpu time    1.2246: real time    1.3059
       DOS:  cpu time    0.0014: real time    0.0014
    --------------------------------------------
      LOOP:  cpu time   14.6996: real time   15.2005

 eigenvalue-minimisations  :  7680
 total energy-change (2. order) :-0.1052905E+03  (-0.1605817E+03)
 number of electron     672.0000000 magnetization      48.0000000
 augmentation part      672.0000000 magnetization      48.0000000

 Free energy of the ion-electron system (eV)
  ---------------------------------------------------
  alpha Z        PSCENC =      2652.81237852
  Ewald energy   TEWEN  =    -41571.02622090
  -Hartree energ DENC   =    -26027.30735747
  -exchange      EXHF   =         0.00000000
  -V(xc)+E(xc)   XCENC  =      3607.22898821
  PAW double counting   =     55594.23204139   -59034.67079123
  entropy T*S    EENTRO =        -0.00000000
  eigenvalues    EBANDS =    -10298.07360296
  atomic energy  EATOM  =     73862.19814772
  Solvation  Ediel_sol  =         0.00000000
  ---------------------------------------------------
  free energy    TOTEN  =     -1214.60641672 eV

  energy without entropy =    -1214.60641672  energy(sigma->0) =    -1214.60641672


--------------------------------------------------------------------------------------------------------




--------------------------------------- Iteration      1(   6)  ---------------------------------------


    EDDIAG:  cpu time    4.4177: real time    4.7862
  RMM-DIIS:  cpu time    9.0241: real time    9.0350
    ORTHCH:  cpu time    1.1981: real time    1.2774
       DOS:  cpu time    0.0127: real time    0.0127
    --------------------------------------------
      LOOP:  cpu time   14.6525: real time   15.1114

 eigenvalue-minimisations  :  7680
 total energy-change (2. order) :-0.9046876E+01  (-0.7978375E+02)
 number of electron     672.0000000 magnetization      48.0000000
 augmentation part      672.0000000 magnetization      48.0000000

 Free energy of the ion-electron system (eV)
  ---------------------------------------------------
  alpha Z        PSCENC =      2652.81237852
  Ewald energy   TEWEN  =    -41571.02622090
  -Hartree energ DENC   =    -26027.30735747
  -exchange      EXHF   =         0.00000000
  -V(xc)+E(xc)   XCENC  =      3607.22898821
  PAW double counting   =     55594.23204139   -59034.67079123
  entropy T*S    EENTRO =        -0.00000000
  eigenvalues    EBANDS =    -10307.12047857
  atomic energy  EATOM  =     73862.19814772
  Solvation  Ediel_sol  =         0.00000000
  ---------------------------------------------------
  free energy    TOTEN  =     -1223.65329233 eV

  energy without entropy =    -1223.65329233  energy(sigma->0) =    -1223.65329233


--------------------------------------------------------------------------------------------------------




--------------------------------------- Iteration      1(   7)  ---------------------------------------


    EDDIAG:  cpu time    4.4250: real time    4.7971
  RMM-DIIS:  cpu time    9.0265: real time    9.0579
    ORTHCH:  cpu time    1.2060: real time    1.2852
       DOS:  cpu time    0.0014: real time    0.0014
    --------------------------------------------
      LOOP:  cpu time   14.6589: real time   15.1416

 eigenvalue-minimisations  :  7680
 total energy-change (2. order) :-0.1864855E+01  (-0.4871830E+02)
 number of electron     672.0000000 magnetization      48.0000000
 augmentation part      672.0000000 magnetization      48.0000000

 Free energy of the ion-electron system (eV)
  ---------------------------------------------------
  alpha Z        PSCENC =      2652.81237852
  Ewald energy   TEWEN  =    -41571.02622090
  -Hartree energ DENC   =    -26027.30735747
  -exchange      EXHF   =         0.00000000
  -V(xc)+E(xc)   XCENC  =      3607.22898821
  PAW double counting   =     55594.23204139   -59034.67079123
  entropy T*S    EENTRO =        -0.00000000
  eigenvalues    EBANDS =    -10308.98533350
  atomic energy  EATOM  =     73862.19814772
  Solvation  Ediel_sol  =         0.00000000
  ---------------------------------------------------
  free energy    TOTEN  =     -1225.51814726 eV

  energy without entropy =    -1225.51814726  energy(sigma->0) =    -1225.51814726


--------------------------------------------------------------------------------------------------------




--------------------------------------- Iteration      1(   8)  ---------------------------------------


    EDDIAG:  cpu time    4.3973: real time    4.7802
  RMM-DIIS:  cpu time    9.0347: real time    9.0452
    ORTHCH:  cpu time    1.1928: real time    1.2703
       DOS:  cpu time    0.0013: real time    0.0013
    --------------------------------------------
      LOOP:  cpu time   14.6261: real time   15.0969

 eigenvalue-minimisations  :  7680
 total energy-change (2. order) : 0.5015354E+01  (-0.3034158E+02)
 number of electron     672.0000000 magnetization      48.0000000
 augmentation part      672.0000000 magnetization      48.0000000

 Free energy of the ion-electron system (eV)
  ---------------------------------------------------
  alpha Z        PSCENC =      2652.81237852
  Ewald energy   TEWEN  =    -41571.02622090
  -Hartree energ DENC   =    -26027.30735747
  -exchange      EXHF   =         0.00000000
  -V(xc)+E(xc)   XCENC  =      3607.22898821
  PAW double counting   =     55594.23204139   -59034.67079123
  entropy T*S    EENTRO =        -0.00000000
  eigenvalues    EBANDS =    -10303.96997992
  atomic energy  EATOM  =     73862.19814772
  Solvation  Ediel_sol  =         0.00000000
  ---------------------------------------------------
  free energy    TOTEN  =     -1220.50279368 eV

  energy without entropy =    -1220.50279368  energy(sigma->0) =    -1220.50279368


--------------------------------------------------------------------------------------------------------




--------------------------------------- Iteration      1(   9)  ---------------------------------------


    EDDIAG:  cpu time    4.4522: real time    4.8339
  RMM-DIIS:  cpu time   18.6629: real time   18.7358
    ORTHCH:  cpu time    1.1623: real time    1.2409
       DOS:  cpu time    0.0014: real time    0.0014
    --------------------------------------------
      LOOP:  cpu time   24.2787: real time   24.8121

 eigenvalue-minimisations  : 21747
 total energy-change (2. order) : 0.9440963E+01  (-0.1341999E+02)
 number of electron     672.0000000 magnetization      48.0000000
 augmentation part      672.0000000 magnetization      48.0000000

 Free energy of the ion-electron system (eV)
  ---------------------------------------------------
  alpha Z        PSCENC =      2652.81237852
  Ewald energy   TEWEN  =    -41571.02622090
  -Hartree energ DENC   =    -26027.30735747
  -exchange      EXHF   =         0.00000000
  -V(xc)+E(xc)   XCENC  =      3607.22898821
  PAW double counting   =     55594.23204139   -59034.67079123
  entropy T*S    EENTRO =        -0.00000000
  eigenvalues    EBANDS =    -10294.52901691
  atomic energy  EATOM  =     73862.19814772
  Solvation  Ediel_sol  =         0.00000000
  ---------------------------------------------------
  free energy    TOTEN  =     -1211.06183067 eV

  energy without entropy =    -1211.06183067  energy(sigma->0) =    -1211.06183067


--------------------------------------------------------------------------------------------------------




--------------------------------------- Iteration      1(  10)  ---------------------------------------


    EDDIAG:  cpu time    4.3806: real time    4.7775
  RMM-DIIS:  cpu time   17.6981: real time   17.7584
    ORTHCH:  cpu time    1.1650: real time    1.2421
       DOS:  cpu time    0.0015: real time    0.0015
    --------------------------------------------
      LOOP:  cpu time   23.2452: real time   23.7795

 eigenvalue-minimisations  : 19653
 total energy-change (2. order) :-0.1920080E+01  (-0.5361580E+00)
 number of electron     672.0000000 magnetization      48.0000000
 augmentation part      672.0000000 magnetization      48.0000000

 Free energy of the ion-electron system (eV)
  ---------------------------------------------------
  alpha Z        PSCENC =      2652.81237852
  Ewald energy   TEWEN  =    -41571.02622090
  -Hartree energ DENC   =    -26027.30735747
  -exchange      EXHF   =         0.00000000
  -V(xc)+E(xc)   XCENC  =      3607.22898821
  PAW double counting   =     55594.23204139   -59034.67079123
  entropy T*S    EENTRO =        -0.00000002
  eigenvalues    EBANDS =    -10296.44909654
  atomic energy  EATOM  =     73862.19814772
  Solvation  Ediel_sol  =         0.00000000
  ---------------------------------------------------
  free energy    TOTEN  =     -1212.98191032 eV

  energy without entropy =    -1212.98191030  energy(sigma->0) =    -1212.98191031


--------------------------------------------------------------------------------------------------------




--------------------------------------- Iteration      1(  11)  ---------------------------------------


    EDDIAG:  cpu time    4.4166: real time    4.8001
  RMM-DIIS:  cpu time   19.7720: real time   19.8193
    ORTHCH:  cpu time    1.1659: real time    1.2431
       DOS:  cpu time    0.0015: real time    0.0015
    --------------------------------------------
      LOOP:  cpu time   25.3559: real time   25.8641

 eigenvalue-minimisations  : 22552
 total energy-change (2. order) : 0.7168534E-01  (-0.4384237E-01)
 number of electron     672.0000000 magnetization      48.0000000
 augmentation part      672.0000000 magnetization      48.0000000

 Free energy of the ion-electron system (eV)
  ---------------------------------------------------
  alpha Z        PSCENC =      2652.81237852
  Ewald energy   TEWEN  =    -41571.02622090
  -Hartree energ DENC   =    -26027.30735747
  -exchange      EXHF   =         0.00000000
  -V(xc)+E(xc)   XCENC  =      3607.22898821
  PAW double counting   =     55594.23204139   -59034.67079123
  entropy T*S    EENTRO =        -0.00000002
  eigenvalues    EBANDS =    -10296.37741121
  atomic energy  EATOM  =     73862.19814772
  Solvation  Ediel_sol  =         0.00000000
  ---------------------------------------------------
  free energy    TOTEN  =     -1212.91022499 eV

  energy without entropy =    -1212.91022497  energy(sigma->0) =    -1212.91022498


--------------------------------------------------------------------------------------------------------




--------------------------------------- Iteration      1(  12)  ---------------------------------------


    EDDIAG:  cpu time    4.4437: real time    4.8318
  RMM-DIIS:  cpu time   21.2993: real time   21.4350
    ORTHCH:  cpu time    1.1780: real time    1.2567
       DOS:  cpu time    0.0013: real time    0.0013
    CHARGE:  cpu time    1.7795: real time    1.7820
    MIXING:  cpu time    0.0044: real time    0.0046
    --------------------------------------------
      LOOP:  cpu time   28.7062: real time   29.3113

 eigenvalue-minimisations  : 24407
 total energy-change (2. order) :-0.7379332E-03  (-0.4330605E-02)
 number of electron     671.9999607 magnetization      47.9999985
 augmentation part      239.2414584 magnetization      29.0536699

 Broyden mixing:
  rms(total) = 0.12810E+02    rms(broyden)= 0.12801E+02
  rms(prec ) = 0.14609E+02
  weight for this iteration     100.00

 Free energy of the ion-electron system (eV)
  ---------------------------------------------------
  alpha Z        PSCENC =      2652.81237852
  Ewald energy   TEWEN  =    -41571.02622090
  -Hartree energ DENC   =    -26027.30735747
  -exchange      EXHF   =         0.00000000
  -V(xc)+E(xc)   XCENC  =      3607.22898821
  PAW double counting   =     55594.23204139   -59034.67079123
  entropy T*S    EENTRO =        -0.00000002
  eigenvalues    EBANDS =    -10296.37814914
  atomic energy  EATOM  =     73862.19814772
  Solvation  Ediel_sol  =         0.00000000
  ---------------------------------------------------
  free energy    TOTEN  =     -1212.91096292 eV

  energy without entropy =    -1212.91096290  energy(sigma->0) =    -1212.91096291


--------------------------------------------------------------------------------------------------------




--------------------------------------- Iteration      1(  13)  ---------------------------------------


    POTLOK:  cpu time    0.1745: real time    0.1753
    SETDIJ:  cpu time    4.9611: real time    4.9632
    EDDIAG:  cpu time    4.3968: real time    4.7830
  RMM-DIIS:  cpu time   17.5306: real time   17.5618
    ORTHCH:  cpu time    1.1646: real time    1.2406
       DOS:  cpu time    0.0017: real time    0.0017
    CHARGE:  cpu time    1.7762: real time    1.7786
    MIXING:  cpu time    0.0008: real time    0.0009
    --------------------------------------------
      LOOP:  cpu time   30.0064: real time   30.5052

 eigenvalue-minimisations  : 18791
 total energy-change (2. order) : 0.2304795E+03  (-0.1202819E+03)
 number of electron     671.9999691 magnetization      47.9999978
 augmentation part      268.3122069 magnetization      26.8897752

 Broyden mixing:
  rms(total) = 0.13728E+02    rms(broyden)= 0.13725E+02
  rms(prec ) = 0.15366E+02
  weight for this iteration     100.00

 eigenvalues of (default mixing * dielectric matrix)
  average eigenvalue GAMMA=   0.3245
  0.3245

 Free energy of the ion-electron system (eV)
  ---------------------------------------------------
  alpha Z        PSCENC =      2652.81237852
  Ewald energy   TEWEN  =    -41571.02622090
  -Hartree energ DENC   =    -25373.90927863
  -exchange      EXHF   =         0.00000000
  -V(xc)+E(xc)   XCENC  =      3698.08941531
  PAW double counting   =     60095.20664909   -63521.25481919
  entropy T*S    EENTRO =        -0.07448133
  eigenvalues    EBANDS =    -10824.47322829
  atomic energy  EATOM  =     73862.19814772
  Solvation  Ediel_sol  =         0.00000000
  ---------------------------------------------------
  free energy    TOTEN  =      -982.43143770 eV

  energy without entropy =     -982.35695637  energy(sigma->0) =     -982.39419704


--------------------------------------------------------------------------------------------------------




--------------------------------------- Iteration      1(  14)  ---------------------------------------


    POTLOK:  cpu time    0.1758: real time    0.1758
    SETDIJ:  cpu time    4.9460: real time    4.9482
    EDDIAG:  cpu time    4.3915: real time    4.7751
  RMM-DIIS:  cpu time   17.8411: real time   17.8933
    ORTHCH:  cpu time    1.1749: real time    1.2533
       DOS:  cpu time    0.0011: real time    0.0011
    CHARGE:  cpu time    1.7786: real time    1.7828
    MIXING:  cpu time    0.0009: real time    0.0009
    --------------------------------------------
      LOOP:  cpu time   30.3098: real time   30.8304

 eigenvalue-minimisations  : 19386
 total energy-change (2. order) : 0.6734829E+02  (-0.1715908E+02)
 number of electron     671.9999634 magnetization      47.9999965
 augmentation part      246.7431839 magnetization      32.2055994

 Broyden mixing:
  rms(total) = 0.54196E+01    rms(broyden)= 0.54156E+01
  rms(prec ) = 0.58217E+01
  weight for this iteration     100.00

 eigenvalues of (default mixing * dielectric matrix)
  average eigenvalue GAMMA=   0.7406
  1.1200  0.3612

 Free energy of the ion-electron system (eV)
  ---------------------------------------------------
  alpha Z        PSCENC =      2652.81237852
  Ewald energy   TEWEN  =    -41571.02622090
  -Hartree energ DENC   =    -25983.99707295
  -exchange      EXHF   =         0.00000000
  -V(xc)+E(xc)   XCENC  =      3676.44670774
  PAW double counting   =     63561.29884243   -67045.09083750
  entropy T*S    EENTRO =        -0.00000000
  eigenvalues    EBANDS =    -10067.72509082
  atomic energy  EATOM  =     73862.19814772
  Solvation  Ediel_sol  =         0.00000000
  ---------------------------------------------------
  free energy    TOTEN  =      -915.08314575 eV

  energy without entropy =     -915.08314575  energy(sigma->0) =     -915.08314575


--------------------------------------------------------------------------------------------------------




--------------------------------------- Iteration      1(  15)  ---------------------------------------


    POTLOK:  cpu time    0.1890: real time    0.1903
    SETDIJ:  cpu time    4.9603: real time    4.9632
    EDDIAG:  cpu time    4.4056: real time    4.7914
  RMM-DIIS:  cpu time   17.9886: real time   18.0557
    ORTHCH:  cpu time    1.1582: real time    1.2405
       DOS:  cpu time    0.0011: real time    0.0011
    CHARGE:  cpu time    1.8156: real time    1.8183
    MIXING:  cpu time    0.0014: real time    0.0014
    --------------------------------------------
      LOOP:  cpu time   30.5199: real time   31.0619

 eigenvalue-minimisations  : 20295
 total energy-change (2. order) : 0.1380948E+02  (-0.1799888E+01)
 number of electron     671.9999646 magnetization      47.9999958
 augmentation part      249.5954267 magnetization      33.7543767

 Broyden mixing:
  rms(total) = 0.22028E+01    rms(broyden)= 0.22026E+01
  rms(prec ) = 0.22928E+01
  weight for this iteration     100.00

 eigenvalues of (default mixing * dielectric matrix)
  average eigenvalue GAMMA=   0.9631
  1.7519  0.3913  0.7459

 Free energy of the ion-electron system (eV)
  ---------------------------------------------------
  alpha Z        PSCENC =      2652.81237852
  Ewald energy   TEWEN  =    -41571.02622090
  -Hartree energ DENC   =    -25917.91132676
  -exchange      EXHF   =         0.00000000
  -V(xc)+E(xc)   XCENC  =      3708.89642921
  PAW double counting   =     67779.44044442   -71304.04761473
  entropy T*S    EENTRO =        -0.00000000
  eigenvalues    EBANDS =    -10111.63590746
  atomic energy  EATOM  =     73862.19814772
  Solvation  Ediel_sol  =         0.00000000
  ---------------------------------------------------
  free energy    TOTEN  =      -901.27366996 eV

  energy without entropy =     -901.27366996  energy(sigma->0) =     -901.27366996


--------------------------------------------------------------------------------------------------------




--------------------------------------- Iteration      1(  16)  ---------------------------------------


    POTLOK:  cpu time    0.1722: real time    0.1728
    SETDIJ:  cpu time    5.0176: real time    5.0205
    EDDIAG:  cpu time    4.3764: real time    4.7820
  RMM-DIIS:  cpu time   17.5130: real time   17.5519
    ORTHCH:  cpu time    1.1847: real time    1.2639
       DOS:  cpu time    0.0012: real time    0.0012
    CHARGE:  cpu time    1.7780: real time    1.7807
    MIXING:  cpu time    0.0010: real time    0.0010
    --------------------------------------------
      LOOP:  cpu time   30.0440: real time   30.5740

 eigenvalue-minimisations  : 19032
 total energy-change (2. order) :-0.1470095E+01  (-0.6817837E+00)
 number of electron     671.9999652 magnetization      47.9999957
 augmentation part      251.1957062 magnetization      33.8206404

 Broyden mixing:
  rms(total) = 0.14205E+01    rms(broyden)= 0.14200E+01
  rms(prec ) = 0.15053E+01
  weight for this iteration     100.00

 eigenvalues of (default mixing * dielectric matrix)
  average eigenvalue GAMMA=   0.9813
  2.1109  0.8952  0.3996  0.5196

 Free energy of the ion-electron system (eV)
  ---------------------------------------------------
  alpha Z        PSCENC =      2652.81237852
  Ewald energy   TEWEN  =    -41571.02622090
  -Hartree energ DENC   =    -25864.95838770
  -exchange      EXHF   =         0.00000000
  -V(xc)+E(xc)   XCENC  =      3710.32114164
  PAW double counting   =     70884.22897457   -74439.41440280
  entropy T*S    EENTRO =        -0.00000000
  eigenvalues    EBANDS =    -10136.90539571
  atomic energy  EATOM  =     73862.19814772
  Solvation  Ediel_sol  =         0.00000000
  ---------------------------------------------------
  free energy    TOTEN  =      -902.74376465 eV

  energy without entropy =     -902.74376465  energy(sigma->0) =     -902.74376465


--------------------------------------------------------------------------------------------------------




--------------------------------------- Iteration      1(  17)  ---------------------------------------


    POTLOK:  cpu time    0.1785: real time    0.1797
    SETDIJ:  cpu time    5.0245: real time    5.0274
    EDDIAG:  cpu time    4.4024: real time    4.7844
  RMM-DIIS:  cpu time   18.5878: real time   18.6392
    ORTHCH:  cpu time    1.1610: real time    1.2395
       DOS:  cpu time    0.0011: real time    0.0011
    CHARGE:  cpu time    1.7787: real time    1.7835
    MIXING:  cpu time    0.0022: real time    0.0022
    --------------------------------------------
      LOOP:  cpu time   31.1362: real time   31.6570

 eigenvalue-minimisations  : 20533
 total energy-change (2. order) : 0.1520818E+00  (-0.5920434E-01)
 number of electron     671.9999652 magnetization      47.9999957
 augmentation part      251.1291555 magnetization      33.8088039

 Broyden mixing:
  rms(total) = 0.75927E+00    rms(broyden)= 0.75917E+00
  rms(prec ) = 0.85309E+00
  weight for this iteration     100.00

 eigenvalues of (default mixing * dielectric matrix)
  average eigenvalue GAMMA=   1.0066
  2.2541  1.1358  0.3878  0.6875  0.5678

 Free energy of the ion-electron system (eV)
  ---------------------------------------------------
  alpha Z        PSCENC =      2652.81237852
  Ewald energy   TEWEN  =    -41571.02622090
  -Hartree energ DENC   =    -25855.59202358
  -exchange      EXHF   =         0.00000000
  -V(xc)+E(xc)   XCENC  =      3707.05810143
  PAW double counting   =     71702.44537618   -75265.47828513
  entropy T*S    EENTRO =        -0.00000000
  eigenvalues    EBANDS =    -10135.00915711
  atomic energy  EATOM  =     73862.19814772
  Solvation  Ediel_sol  =         0.00000000
  ---------------------------------------------------
  free energy    TOTEN  =      -902.59168287 eV

  energy without entropy =     -902.59168287  energy(sigma->0) =     -902.59168287


--------------------------------------------------------------------------------------------------------




--------------------------------------- Iteration      1(  18)  ---------------------------------------


    POTLOK:  cpu time    0.1704: real time    0.1713
    SETDIJ:  cpu time    4.9855: real time    4.9874
    EDDIAG:  cpu time    4.4883: real time    4.8792
  RMM-DIIS:  cpu time   17.7309: real time   17.7977
    ORTHCH:  cpu time    1.1593: real time    1.2395
       DOS:  cpu time    0.0015: real time    0.0015
    CHARGE:  cpu time    1.7711: real time    1.7731
    MIXING:  cpu time    0.0011: real time    0.0011
    --------------------------------------------
      LOOP:  cpu time   30.3080: real time   30.8508

 eigenvalue-minimisations  : 19039
 total energy-change (2. order) : 0.3919554E+00  (-0.6988676E-01)
 number of electron     671.9999649 magnetization      47.9999957
 augmentation part      250.6303589 magnetization      33.7733536

 Broyden mixing:
  rms(total) = 0.25979E+00    rms(broyden)= 0.25949E+00
  rms(prec ) = 0.27208E+00
  weight for this iteration     100.00

 eigenvalues of (default mixing * dielectric matrix)
  average eigenvalue GAMMA=   1.0238
  2.4670  1.3820  0.8337  0.3896  0.5912  0.4795

 Free energy of the ion-electron system (eV)
  ---------------------------------------------------
  alpha Z        PSCENC =      2652.81237852
[...]
   4      -0.745    -0.933     1.678    -0.237     0.053     0.103
   5      -0.527    -0.822     1.350     0.140    -0.020     0.044
   6      -1.069    -0.604     1.673    -0.020     0.045    -0.026
   7      -1.063    -0.532     1.595    -0.019    -0.058     0.048
   8      -1.020    -0.800     1.821    -0.031     0.026    -0.037
   9      -0.853    -0.633     1.485     0.007    -0.189     0.063
  10      -0.659    -1.103     1.762    -0.201     0.056    -0.045
  11      -0.713    -0.778     1.491     0.176    -0.013    -0.010
  12      -0.504    -0.978     1.482    -0.079    -0.014    -0.029
  13      -0.559    -0.658     1.216     0.119    -0.008    -0.021
  14      -0.689    -0.434     1.123     0.024    -0.007    -0.006
  15      -0.910    -0.796     1.706    -0.251     0.057     0.012
  16      -0.848    -0.931     1.778    -0.290    -0.063    -0.053
  17       1.491     1.487    -2.979     0.163     0.040    -0.029
  18       1.615     1.328    -2.943     0.052    -0.065    -0.005
  19       1.401     1.549    -2.950     0.059    -0.105     0.098
  20       1.482     1.532    -3.014     0.049     0.172    -0.077
  21       1.326     1.597    -2.923     0.313     0.141     0.036
  22       1.509     1.400    -2.909     0.223    -0.034     0.006
  23       1.355     1.617    -2.972     0.004    -0.116     0.048
  24       1.480     1.435    -2.915    -0.043     0.040    -0.048
  25      -0.380    -0.346     0.726    -0.894     1.568     1.400
  26       0.988    -2.320     1.332    -0.563     1.478     0.839
  27       0.346    -1.098     0.752    -0.695    -0.747    -1.163
  28      -0.437    -0.415     0.852     0.186    -0.986    -0.624
  29      -1.055    -0.230     1.285    -2.007    -1.181     1.484
  30      -1.426    -0.394     1.819    -0.391    -0.954    -0.524
  31      -1.560     1.401     0.159    -0.373     0.826    -0.323
  32      -0.047    -1.933     1.980     1.648    -0.048     0.879
  33       1.526    -2.633     1.107    -0.282     0.682     0.519
  34      -0.647     0.295     0.351    -0.028    -1.416    -0.076
  35      -0.980     0.341     0.639    -0.167     1.209    -1.442
  36       0.968    -0.883    -0.085     1.086    -1.361     0.746
  37      -0.006    -0.603     0.608    -1.776    -1.273     1.007
  38       1.235    -1.167    -0.068    -0.723     0.277     0.083
  39      -0.465     0.680    -0.215    -1.440     0.606    -1.502
  40      -0.506    -0.575     1.081    -0.304     0.385     0.671
  41      -1.115     2.639    -1.524    -5.153     2.369    -4.030
  42      -5.070     0.263     4.807     2.691     2.218     4.391
  43       7.249    -6.654    -0.596    -0.969    -3.696     0.144
  44      -1.031     1.965    -0.933    -6.376    -1.600     4.450
  45       4.772    -7.736     2.964    -0.121     5.667    -0.533
  46      -4.431     4.059     0.372     4.532    -1.757    -3.945
  47      -3.466     4.016    -0.550    -5.392     2.886    -1.778
  48       5.903    -5.960     0.057     0.093    -5.962     0.937
  49      -4.366     2.369     1.997     4.016     1.398     4.372
  50      -2.409     2.800    -0.391    -5.803    -2.586     2.547
  51      -5.653     5.217     0.436     3.474    -1.467    -3.540
  52       5.728    -5.575    -0.153    -0.860     4.650    -1.522
  53      -2.388     2.434    -0.046    -4.948     0.485    -4.416
  54      -2.364     0.527     1.837     5.301     1.760     4.647
  55       7.451    -6.356    -1.095     1.706    -3.499     0.396
  56      -2.322     1.913     0.409    -5.400    -2.450     3.525
  57       4.857    -6.323     1.466     0.656     6.446     0.534
  58      -3.304     2.056     1.248     5.199    -4.734    -3.000
  59      -3.686     4.000    -0.314    -5.572     1.831    -2.960
  60       4.677    -6.512     1.835    -0.177    -5.944    -0.755
  61      -4.516     1.081     3.435     4.268     4.059     4.848
  62      -2.050     2.123    -0.073    -5.402    -1.153     4.408
  63      -2.745    -0.423     3.168     4.256    -2.851    -4.187
  64       5.278    -6.048     0.770     1.010     4.075     1.314
  65      -3.210     2.076     1.134    -4.176     2.674    -4.752
  66      -2.955     2.153     0.802     3.806     0.667     4.311
  67       6.960    -5.728    -1.231    -0.871    -4.146     0.712
  68      -4.115     2.986     1.128    -3.671    -2.592     4.478
  69       4.566    -6.103     1.537     1.139     4.649    -0.690
  70      -3.551     3.598    -0.047     4.860    -1.530    -4.077
  71      -3.983     3.323     0.660    -4.671     1.811    -3.390
  72       3.663    -6.055     2.392    -0.953    -4.619    -0.333
  73      -3.850     2.436     1.414     2.808     1.093     3.592
  74      -2.166     2.023     0.143    -4.452    -2.224     3.248
  75      -3.723     3.122     0.601     4.877    -2.739    -3.884
  76       6.445    -5.712    -0.732    -0.686     4.438    -0.885
  77      -1.585     2.264    -0.679    -6.801     1.677    -3.794
  78      -1.687     0.179     1.508     4.235     2.510     3.897
  79       5.902    -6.331     0.429     0.670    -4.167    -0.262
  80      -3.085     3.153    -0.069    -6.805    -1.142     3.350
  81       3.925    -5.458     1.532     0.984     4.861    -0.456
  82      -4.902     3.755     1.147     5.271    -1.933    -2.929
  83      -2.077     2.752    -0.675    -5.997     3.085    -3.784
  84       5.290    -4.846    -0.444     1.027    -4.148     1.390
  85      -3.279     2.002     1.276     5.229     2.894     2.646
  86      -2.646     3.560    -0.914    -4.864    -3.314     3.361
  87      -2.318     1.044     1.274     3.538    -1.618    -5.088
  88       5.356    -5.781     0.426     1.892     3.100     0.881
 ---------------------------------------------------------------------


 Total hyperfine coupling parameters after diagonalization (MHz)
 (convention: |A_zz| > |A_xx| > |A_yy|)
 ----------------------------------------------------------------------
  ion      A_xx      A_yy      A_zz     asymmetry (A_yy - A_xx)/ A_zz 
 ----------------------------------------------------------------------
   1       0.251     0.052     2.875      -0.069
   2       2.381     1.922     4.491      -0.102
   3      -0.289     0.024     2.690       0.116
   4       2.128     1.615     4.396      -0.117
   5       2.816     2.408     4.638      -0.088
   6       2.581     2.113     4.857      -0.096
   7       2.043     1.510     4.172      -0.128
   8       0.805     0.576     3.423      -0.067
   9       1.557     1.323     3.694      -0.063
  10       0.530    -0.067     2.877      -0.207
  11       1.937     1.579     3.995      -0.090
  12       0.837     0.337     2.810      -0.178
  13       2.215     1.958     3.911      -0.066
  14       2.039     1.779     3.593      -0.072
  15       0.331    -0.184     2.634      -0.196
  16       1.327     0.739     3.704      -0.159
  17      15.347    11.042    15.673      -0.275
  18      14.128     9.865    14.435      -0.295
  19      14.300     9.960    14.486      -0.300
  20      15.728    11.247    15.830      -0.283
  21      14.093    10.042    14.775      -0.274
  22      14.445    10.310    14.904      -0.277
  23      15.555    11.222    15.815      -0.274
  24      14.511    10.187    14.609      -0.296
  25      99.898    96.781   101.431      -0.031
  26      98.950    96.151   101.543      -0.028
  27      97.520    94.909    98.428      -0.027
  28     100.444   100.009   102.610      -0.004
  29      94.584    92.444    98.379      -0.022
  30      97.333    95.737    99.752      -0.016
  31      91.061    88.836    92.336      -0.024
  32      98.588    94.784   100.019      -0.038
  33      97.998    94.556    99.324      -0.035
  34      94.985    93.038    96.045      -0.020
  35      94.896    93.551    97.626      -0.014
  36      98.483    96.062   100.266      -0.024
  37      97.516    96.038   100.879      -0.015
  38      96.200    94.903    97.765      -0.013
  39      97.133    96.454   100.645      -0.007
  40      96.416    95.551    98.019      -0.009
  41       4.032     2.812    16.067      -0.076
  42       5.748     1.629    16.136      -0.255
  43       6.157     1.485    16.984      -0.275
  44       5.911     1.723    17.403      -0.241
  45       5.849    -0.063    17.319      -0.341
  46       4.960     0.526    15.280      -0.290
  47       9.639     3.872    18.562      -0.311
  48       5.196     2.334    18.212      -0.157
  49       6.565     1.798    15.910      -0.300
  50       8.330     3.799    18.141      -0.250
  51       7.473     2.202    17.022      -0.310
  52       4.095     0.568    15.003      -0.235
  53       4.411    -0.409    13.519      -0.357
  54       6.215     0.982    15.916      -0.329
  55       7.694     3.132    18.680      -0.244
  56       4.470     0.478    14.501      -0.275
  57       5.568     2.705    18.943      -0.151
  58       4.975    -1.052    15.120      -0.399
  59       7.848     2.925    17.870      -0.276
  60       5.544     1.620    17.644      -0.222
  61       3.661    -0.797    15.914      -0.280
  62       4.879     0.471    14.854      -0.297
  63       3.444    -0.510    13.559      -0.292
  64       7.947     3.201    17.352      -0.274
  65       3.480     0.903    14.856      -0.174
  66       4.813     0.918    13.362      -0.292
  67       4.070     1.154    15.770      -0.185
  68       5.310     2.037    16.058      -0.204
  69       5.039     0.102    14.512      -0.340
  70       6.682     2.867    17.230      -0.221
  71       7.267     2.437    16.396      -0.295
  72       5.202     0.431    14.380      -0.332
  73       5.054     1.534    12.823      -0.275
  74       6.748     3.835    15.911      -0.183
  75       6.710     2.516    17.336      -0.242
  76       4.609     1.511    16.010      -0.194
  77       8.121     3.395    19.389      -0.244
  78       2.641    -0.372    12.051      -0.250
  79       6.855     2.306    16.859      -0.270
  80       6.940     0.674    17.082      -0.367
  81       4.371     0.635    14.134      -0.264
  82       7.873     1.030    16.467      -0.416
  83       3.116    -0.043    15.335      -0.206
  84       5.977     1.897    15.143      -0.269
  85       6.306     0.495    14.688      -0.396
  86       3.947     0.739    15.026      -0.214
  87      -1.803     0.839    10.918       0.242
  88       5.964     0.916    14.220      -0.355
 ---------------------------------------------------------------------



--------------------------------------------------------------------------------------------------------


 stress matrix after NEB project (eV)
    -40.56875      0.12848      7.20250
      0.13065    -36.42072      4.88341
      7.17799      4.84657    -46.13257
  FORCES: max atom, RMS     2.179460    1.070300
  FORCE total and by dimension   10.040305    2.049988
  Stress total and by dimension   72.465693   46.132570
     LOOP+:  cpu time  835.5636: real time  852.0297
    4ORBIT:  cpu time    0.0000: real time    0.0000
 


 total charge     
 
# of ion       s       p       d       tot
------------------------------------------
    1        0.047   5.990   0.000   6.037
    2        0.051   5.992   0.000   6.043
    3        0.052   5.996   0.000   6.048
    4        0.052   5.995   0.000   6.046
    5        0.047   5.988   0.000   6.035
    6        0.050   5.992   0.000   6.042
    7        0.050   5.991   0.000   6.042
    8        0.045   5.988   0.000   6.033
    9        0.054   5.998   0.000   6.052
   10        0.053   5.997   0.000   6.050
   11        0.053   5.996   0.000   6.048
   12        0.053   5.998   0.000   6.051
   13        0.044   5.986   0.000   6.031
   14        0.050   5.992   0.000   6.042
   15        0.046   5.990   0.000   6.036
   16        0.054   5.998   0.000   6.052
   17        0.150   6.130   0.085   6.366
   18        0.152   6.133   0.089   6.374
   19        0.149   6.128   0.084   6.362
   20        0.148   6.126   0.083   6.358
   21        0.152   6.131   0.085   6.367
   22        0.147   6.124   0.081   6.352
   23        0.146   6.124   0.081   6.352
   24        0.146   6.122   0.079   6.347
   25        0.368   6.439   4.814  11.621
   26        0.390   6.486   4.866  11.742
   27        0.394   6.496   4.868  11.758
   28        0.368   6.436   4.825  11.629
   29        0.391   6.486   4.862  11.739
   30        0.383   6.469   4.848  11.699
   31        0.388   6.483   4.854  11.725
   32        0.378   6.459   4.835  11.672
   33        0.387   6.481   4.852  11.720
   34        0.382   6.470   4.839  11.691
   35        0.384   6.474   4.851  11.709
   36        0.383   6.473   4.847  11.702
   37        0.378   6.463   4.845  11.686
   38        0.379   6.461   4.840  11.680
   39        0.388   6.482   4.861  11.731
   40        0.370   6.443   4.820  11.633
   41        1.600   3.484   0.000   5.084
   42        1.599   3.533   0.000   5.132
   43        1.602   3.521   0.000   5.123
   44        1.598   3.465   0.000   5.063
   45        1.602   3.503   0.000   5.104
   46        1.597   3.504   0.000   5.101
   47        1.598   3.499   0.000   5.098
   48        1.601   3.508   0.000   5.109
   49        1.599   3.553   0.000   5.152
   50        1.603   3.516   0.000   5.119
   51        1.600   3.538   0.000   5.138
   52        1.601   3.509   0.000   5.110
   53        1.598   3.497   0.000   5.095
   54        1.598   3.523   0.000   5.122
   55        1.599   3.516   0.000   5.114
   56        1.600   3.499   0.000   5.100
   57        1.603   3.503   0.000   5.106
   58        1.599   3.515   0.000   5.114
   59        1.602   3.520   0.000   5.122
   60        1.601   3.513   0.000   5.113
   61        1.599   3.506   0.000   5.105
   62        1.596   3.481   0.000   5.077
   63        1.598   3.542   0.000   5.140
   64        1.599   3.518   0.000   5.117
   65        1.601   3.496   0.000   5.097
   66        1.599   3.531   0.000   5.130
   67        1.598   3.496   0.000   5.094
   68        1.601   3.502   0.000   5.103
   69        1.597   3.486   0.000   5.084
   70        1.600   3.522   0.000   5.122
   71        1.599   3.521   0.000   5.119
   72        1.596   3.487   0.000   5.082
   73        1.597   3.538   0.000   5.135
   74        1.600   3.501   0.000   5.101
   75        1.601   3.525   0.000   5.126
   76        1.599   3.522   0.000   5.121
   77        1.599   3.495   0.000   5.094
   78        1.598   3.506   0.000   5.104
   79        1.598   3.521   0.000   5.119
   80        1.599   3.502   0.000   5.100
   81        1.599   3.520   0.000   5.119
   82        1.596   3.517   0.000   5.114
   83        1.600   3.492   0.000   5.093
   84        1.598   3.524   0.000   5.122
   85        1.598   3.543   0.000   5.142
   86        1.597   3.496   0.000   5.093
   87        1.598   3.506   0.000   5.104
   88        1.598   3.537   0.000   5.135
--------------------------------------------------
tot         84.861 416.956  78.196 580.013
 


 magnetization (x)
 
# of ion       s       p       d       tot
------------------------------------------
    1        0.001   0.000   0.000   0.001
    2        0.002   0.000   0.000   0.002
    3        0.001   0.000   0.000   0.001
    4        0.002   0.000   0.000   0.002
    5        0.003   0.001   0.000   0.003
    6        0.002   0.000   0.000   0.003
    7        0.002  -0.000   0.000   0.002
    8        0.001   0.001   0.000   0.002
    9        0.002  -0.000   0.000   0.001
   10        0.001   0.000   0.000   0.001
   11        0.002   0.000   0.000   0.002
   12        0.001   0.000   0.000   0.001
   13        0.002   0.001   0.000   0.003
   14        0.002   0.001   0.000   0.002
   15        0.001   0.000   0.000   0.001
   16        0.001   0.000   0.000   0.002
   17        0.008   0.003   0.001   0.012
   18        0.007   0.003   0.001   0.011
   19        0.007   0.002   0.001   0.011
   20        0.008   0.003   0.001   0.012
   21        0.007   0.002   0.001   0.011
   22        0.007   0.002   0.001   0.011
   23        0.008   0.003   0.001   0.012
   24        0.007   0.002   0.001   0.011
   25        0.016   0.030   2.768   2.815
   26        0.016   0.032   2.728   2.777
   27        0.016   0.032   2.714   2.762
   28        0.017   0.030   2.767   2.814
   29        0.015   0.030   2.723   2.768
   30        0.016   0.031   2.735   2.783
   31        0.014   0.030   2.723   2.766
   32        0.016   0.030   2.755   2.801
   33        0.016   0.031   2.731   2.778
   34        0.015   0.030   2.740   2.785
   35        0.015   0.030   2.736   2.781
   36        0.016   0.031   2.740   2.786
   37        0.016   0.031   2.744   2.790
   38        0.015   0.031   2.746   2.792
   39        0.016   0.031   2.732   2.779
   40        0.015   0.031   2.767   2.813
   41        0.002   0.022   0.000   0.024
   42        0.002   0.046   0.000   0.047
   43        0.002   0.042   0.000   0.044
   44        0.002   0.030   0.000   0.032
   45        0.002   0.038   0.000   0.040
   46        0.002   0.032   0.000   0.034
   47        0.003   0.057   0.000   0.060
   48        0.002   0.045   0.000   0.047
   49        0.002   0.047   0.000   0.049
   50        0.003   0.053   0.000   0.055
   51        0.002   0.049   0.000   0.051
   52        0.002   0.025   0.000   0.027
   53        0.002   0.021   0.000   0.022
   54        0.002   0.041   0.000   0.043
   55        0.003   0.046   0.000   0.049
   56        0.002   0.027   0.000   0.029
   57        0.002   0.043   0.000   0.045
   58        0.002   0.031   0.000   0.033
   59        0.002   0.050   0.000   0.053
   60        0.002   0.045   0.000   0.047
   61        0.002   0.026   0.000   0.028
   62        0.002   0.025   0.000   0.027
   63        0.001   0.033   0.000   0.034
   64        0.002   0.051   0.000   0.053
   65        0.002   0.026   0.000   0.028
   66        0.002   0.027   0.000   0.029
   67        0.002   0.031   0.000   0.033
   68        0.002   0.031   0.000   0.033
   69        0.002   0.027   0.000   0.029
   70        0.002   0.053   0.000   0.055
   71        0.002   0.046   0.000   0.049
   72        0.002   0.025   0.000   0.027
   73        0.002   0.028   0.000   0.029
   74        0.002   0.043   0.000   0.045
   75        0.002   0.048   0.000   0.050
   76        0.002   0.043   0.000   0.045
   77        0.003   0.053   0.000   0.055
   78        0.001   0.006   0.000   0.007
   79        0.002   0.048   0.000   0.050
   80        0.002   0.047   0.000   0.049
   81        0.002   0.024   0.000   0.026
   82        0.002   0.056   0.000   0.058
   83        0.002   0.021   0.000   0.022
   84        0.002   0.036   0.000   0.038
   85        0.002   0.041   0.000   0.043
   86        0.002   0.018   0.000   0.020
   87        0.001  -0.007   0.000  -0.006
   88        0.002   0.037   0.000   0.038
--------------------------------------------------
tot          0.428   2.249  43.860  46.537
 

 total amount of memory used by VASP MPI-rank0    94426. kBytes
=======================================================================

   base      :      30000. kBytes
   nonlr-proj:      13667. kBytes
   fftplans  :       1275. kBytes
   grid      :      22786. kBytes
   one-center:       2737. kBytes
   wavefun   :      23961. kBytes
 
  
  
 General timing and accounting informations for this job:
 ========================================================
  
                  Total CPU time used (sec):      856.276
                            User time (sec):      847.212
                          System time (sec):        9.064
                         Elapsed time (sec):      875.183
  
                   Maximum memory used (kb):      193656.
                   Average memory used (kb):           0.
  
                          Minor page faults:       313608
                          Major page faults:            0
                 Voluntary context switches:       295663
