 vasp.5.4.4.18Apr17-6-g9f103f2a35 (build Dec 02 2020 12:53:39) complex          
  
 executed on             LinuxIFC date 2021.08.04  05:15:10
 running on   96 total cores
 distrk:  each k-point on   96 cores,    1 groups
 distr:  one band on NCORES_PER_BAND=   1 cores,   96 groups


--------------------------------------------------------------------------------------------------------


 INCAR:
 POTCAR:    PAW_PBE Na_pv 19Sep2006               
 POTCAR:    PAW_PBE Mg_pv 13Apr2007               
 POTCAR:    PAW_PBE Mn_pv 02Aug2007               
 POTCAR:    PAW_PBE O 08Apr2002                   

 ----------------------------------------------------------------------------- 
|                                                                             |
|           W    W    AA    RRRRR   N    N  II  N    N   GGGG   !!!           |
|           W    W   A  A   R    R  NN   N  II  NN   N  G    G  !!!           |
|           W    W  A    A  R    R  N N  N  II  N N  N  G       !!!           |
|           W WW W  AAAAAA  RRRRR   N  N N  II  N  N N  G  GGG   !            |
|           WW  WW  A    A  R   R   N   NN  II  N   NN  G    G                |
|           W    W  A    A  R    R  N    N  II  N    N   GGGG   !!!           |
|                                                                             |
|      For optimal performance we recommend to set                            |
|        NCORE= 4 - approx SQRT( number of cores)                             |
|      NCORE specifies how many cores store one orbital (NPAR=cpu/NCORE).     |
|      This setting can  greatly improve the performance of VASP for DFT.     |
|      The default,   NCORE=1            might be grossly inefficient         |
|      on modern multi-core architectures or massively parallel machines.     |
|      Do your own testing !!!!                                               |
|      Unfortunately you need to use the default for GW and RPA calculations. |
|      (for HF NCORE is supported but not extensively tested yet)             |
|                                                                             |
 ----------------------------------------------------------------------------- 

 POTCAR:    PAW_PBE Na_pv 19Sep2006               
   VRHFIN =Na: p6s1                                                             
   LEXCH  = PE                                                                  
   EATOM  =   766.0439 eV,   56.3026 Ry                                         
                                                                                
   TITEL  = PAW_PBE Na_pv 19Sep2006                                             
   LULTRA =        F    use ultrasoft PP ?                                      
   IUNSCR =        1    unscreen: 0-lin 1-nonlin 2-no                           
   RPACOR =    1.800    partial core radius                                     
   POMASS =   22.990; ZVAL   =    7.000    mass and valenz                      
   RCORE  =    2.200    outmost cutoff radius                                   
   RWIGS  =    2.200; RWIGS  =    1.164    wigner-seitz radius (au A)           
   ENMAX  =  259.561; ENMIN  =  194.671 eV                                      
   ICORE  =        2    local potential                                         
   LCOR   =        T    correct aug charges                                     
   LPAW   =        T    paw PP                                                  
   EAUG   =  368.056                                                            
   DEXC   =    0.000                                                            
   RMAX   =    2.245    core radius for proj-oper                               
   RAUG   =    1.300    factor for augmentation sphere                          
   RDEP   =    2.259    radius for radial grids                                 
   RDEPT  =    1.738    core radius for aug-charge                              
                                                                                
   Atomic configuration                                                         
    5 entries                                                                   
     n  l   j            E        occ.                                          
     1  0  0.50     -1033.6933   2.0000                                         
     2  0  0.50       -56.7526   2.0000                                         
     2  1  1.50       -28.6721   6.0000                                         
     3  0  0.50        -2.7440   1.0000                                         
     3  2  1.50        -1.3606   0.0000                                         
   Description                                                                  
     l       E           TYP  RCUT    TYP  RCUT                                 
     1    -28.6720912     23  2.000                                             
     1      6.8029130     23  2.000                                             
     0     -2.7439560     23  2.200                                             
     0     34.0145650     23  2.200                                             
     2     -1.3605826     23  2.200                                             
  local pseudopotential read in
  partial core-charges read in
  partial kinetic energy density read in
  atomic valenz-charges read in
  non local Contribution for L=           1  read in
    real space projection operators read in
  non local Contribution for L=           1  read in
    real space projection operators read in
  non local Contribution for L=           0  read in
    real space projection operators read in
  non local Contribution for L=           0  read in
    real space projection operators read in
    PAW grid and wavefunctions read in
 
   number of l-projection  operators is LMAX  =           4
   number of lm-projection operators is LMMAX =           8
 
 POTCAR:    PAW_PBE Mg_pv 13Apr2007               
   VRHFIN =Mg: p6s2                                                             
   LEXCH  = PE                                                                  
   EATOM  =  1056.7344 eV,   77.6678 Ry                                         
                                                                                
   TITEL  = PAW_PBE Mg_pv 13Apr2007                                             
   LULTRA =        F    use ultrasoft PP ?                                      
   IUNSCR =        1    unscreen: 0-lin 1-nonlin 2-no                           
   RPACOR =    1.500    partial core radius                                     
   POMASS =   24.305; ZVAL   =    8.000    mass and valenz                      
   RCORE  =    2.000    outmost cutoff radius                                   
   RWIGS  =    2.000; RWIGS  =    1.058    wigner-seitz radius (au A)           
   ENMAX  =  403.929; ENMIN  =  302.947 eV                                      
   RCLOC  =    1.506    cutoff for local pot                                    
   LCOR   =        T    correct aug charges                                     
   LPAW   =        T    paw PP                                                  
   EAUG   =  758.780                                                            
   DEXC   =    0.000                                                            
   RMAX   =    2.045    core radius for proj-oper                               
   RAUG   =    1.300    factor for augmentation sphere                          
   RDEP   =    2.025    radius for radial grids                                 
   RDEPT  =    1.557    core radius for aug-charge                              
                                                                                
   Atomic configuration                                                         
    5 entries                                                                   
     n  l   j            E        occ.                                          
     1  0  0.50     -1259.6230   2.0000                                         
     2  0  0.50       -79.8442   2.0000                                         
     2  1  1.50       -46.6121   6.0000                                         
     3  0  0.50        -4.7055   2.0000                                         
     3  2  1.50        -1.3606   0.0000                                         
   Description                                                                  
     l       E           TYP  RCUT    TYP  RCUT                                 
     1    -46.6121073     23  1.600                                             
     1      2.7211652     23  1.600                                             
     0     -4.7054661     23  2.000                                             
     0     61.2262170     23  2.000                                             
     2     -1.3605826     23  2.000                                             
  local pseudopotential read in
  partial core-charges read in
  partial kinetic energy density read in
  atomic valenz-charges read in
  non local Contribution for L=           1  read in
    real space projection operators read in
  non local Contribution for L=           1  read in
    real space projection operators read in
  non local Contribution for L=           0  read in
    real space projection operators read in
  non local Contribution for L=           0  read in
    real space projection operators read in
  non local Contribution for L=           2  read in
    real space projection operators read in
    PAW grid and wavefunctions read in
 
   number of l-projection  operators is LMAX  =           5
   number of lm-projection operators is LMMAX =          13
 
 POTCAR:    PAW_PBE Mn_pv 02Aug2007               
   VRHFIN =Mn: 3p4s3d                                                           
   LEXCH  = PE                                                                  
   EATOM  =  2025.2664 eV,  148.8529 Ry                                         
                                                                                
   TITEL  = PAW_PBE Mn_pv 02Aug2007                                             
   LULTRA =        F    use ultrasoft PP ?                                      
   IUNSCR =        1    unscreen: 0-lin 1-nonlin 2-no                           
   RPACOR =    2.080    partial core radius                                     
   POMASS =   54.938; ZVAL   =   13.000    mass and valenz                      
   RCORE  =    2.300    outmost cutoff radius                                   
   RWIGS  =    2.500; RWIGS  =    1.323    wigner-seitz radius (au A)           
   ENMAX  =  269.864; ENMIN  =  202.398 eV                                      
   ICORE  =        3    local potential                                         
   LCOR   =        T    correct aug charges                                     
   LPAW   =        T    paw PP                                                  
   EAUG   =  569.085                                                            
   DEXC   =    0.000                                                            
   RMAX   =    2.343    core radius for proj-oper                               
   RAUG   =    1.300    factor for augmentation sphere                          
   RDEP   =    2.338    radius for radial grids                                 
   RDEPT  =    1.798    core radius for aug-charge                              
                                                                                
   Atomic configuration                                                         
    8 entries                                                                   
     n  l   j            E        occ.                                          
     1  0  0.50     -6424.8287   2.0000                                         
     2  0  0.50      -739.1154   2.0000                                         
     2  1  1.50      -625.3949   6.0000                                         
     3  0  0.50       -81.6100   2.0000                                         
     3  1  1.50       -50.4667   6.0000                                         
     3  2  2.50        -3.3745   6.0000                                         
     4  0  0.50        -4.1331   1.0000                                         
     4  3  2.50        -1.3606   0.0000                                         
   Description                                                                  
     l       E           TYP  RCUT    TYP  RCUT                                 
     1    -50.4666628     23  2.000                                             
     1     -1.3605826     23  2.000                                             
     2     -3.3744729     23  2.300                                             
     2     -4.7350555     23  2.300                                             
     0     -4.1331431     23  2.300                                             
     0      7.6656591     23  2.300                                             
     3      9.5240782     23  2.300                                             
  local pseudopotential read in
  partial core-charges read in
  partial kinetic energy density read in
  atomic valenz-charges read in
  non local Contribution for L=           1  read in
    real space projection operators read in
  non local Contribution for L=           1  read in
    real space projection operators read in
  non local Contribution for L=           2  read in
    real space projection operators read in
  non local Contribution for L=           2  read in
    real space projection operators read in
  non local Contribution for L=           0  read in
    real space projection operators read in
  non local Contribution for L=           0  read in
    real space projection operators read in
    PAW grid and wavefunctions read in
 
   number of l-projection  operators is LMAX  =           6
   number of lm-projection operators is LMMAX =          18
 
 POTCAR:    PAW_PBE O 08Apr2002                   
   VRHFIN =O: s2p4                                                              
   LEXCH  = PE                                                                  
   EATOM  =   432.3788 eV,   31.7789 Ry                                         
                                                                                
   TITEL  = PAW_PBE O 08Apr2002                                                 
   LULTRA =        F    use ultrasoft PP ?                                      
   IUNSCR =        1    unscreen: 0-lin 1-nonlin 2-no                           
   RPACOR =    1.200    partial core radius                                     
   POMASS =   16.000; ZVAL   =    6.000    mass and valenz                      
   RCORE  =    1.520    outmost cutoff radius                                   
   RWIGS  =    1.550; RWIGS  =    0.820    wigner-seitz radius (au A)           
   ENMAX  =  400.000; ENMIN  =  300.000 eV                                      
   ICORE  =        2    local potential                                         
   LCOR   =        T    correct aug charges                                     
   LPAW   =        T    paw PP                                                  
   EAUG   =  605.392                                                            
   DEXC   =    0.000                                                            
   RMAX   =    1.553    core radius for proj-oper                               
   RAUG   =    1.300    factor for augmentation sphere                          
   RDEP   =    1.550    radius for radial grids                                 
   RDEPT  =    1.329    core radius for aug-charge                              
                                                                                
   Atomic configuration                                                         
    4 entries                                                                   
     n  l   j            E        occ.                                          
     1  0  0.50      -514.6923   2.0000                                         
     2  0  0.50       -23.9615   2.0000                                         
     2  1  0.50        -9.0305   4.0000                                         
     3  2  1.50        -9.5241   0.0000                                         
   Description                                                                  
     l       E           TYP  RCUT    TYP  RCUT                                 
     0    -23.9615318     23  1.200                                             
     0     -9.5240782     23  1.200                                             
     1     -9.0304911     23  1.520                                             
     1      8.1634956     23  1.520                                             
     2     -9.5240782      7  1.500                                             
  local pseudopotential read in
  partial core-charges read in
  partial kinetic energy density read in
  kinetic energy density of atom read in
  atomic valenz-charges read in
  non local Contribution for L=           0  read in
    real space projection operators read in
  non local Contribution for L=           0  read in
    real space projection operators read in
  non local Contribution for L=           1  read in
    real space projection operators read in
  non local Contribution for L=           1  read in
    real space projection operators read in
    PAW grid and wavefunctions read in
 
   number of l-projection  operators is LMAX  =           4
   number of lm-projection operators is LMMAX =           8
 
 Optimization of the real space projectors (new method)

 maximal supplied QI-value         = 17.01
 optimisation between [QCUT,QGAM] = [ 10.20, 20.41] = [ 29.16,116.64] Ry 
 Optimized for a Real-space Cutoff    1.30 Angstroem

   l    n(q)    QCUT    max X(q) W(low)/X(q) W(high)/X(q)  e(spline) 
   1      7    10.205     4.940    0.23E-03    0.84E-03    0.11E-06
   1      7    10.205     6.253    0.40E-03    0.13E-02    0.18E-06
   0      8    10.205    37.438    0.23E-03    0.37E-03    0.42E-07
   0      8    10.205     9.606    0.16E-03    0.26E-03    0.31E-07
 Optimization of the real space projectors (new method)

 maximal supplied QI-value         = 18.90
 optimisation between [QCUT,QGAM] = [ 10.20, 20.41] = [ 29.16,116.64] Ry 
 Optimized for a Real-space Cutoff    1.26 Angstroem

   l    n(q)    QCUT    max X(q) W(low)/X(q) W(high)/X(q)  e(spline) 
   1      7    10.205     2.974    0.63E-04    0.14E-03    0.13E-06
   1      7    10.205     4.279    0.11E-03    0.45E-03    0.24E-06
   0      8    10.205    16.381    0.44E-03    0.15E-03    0.55E-07
   0      8    10.205     5.611    0.31E-03    0.11E-03    0.40E-07
   2      7    10.205     4.652    0.50E-03    0.47E-03    0.57E-07
 Optimization of the real space projectors (new method)

 maximal supplied QI-value         = 16.25
 optimisation between [QCUT,QGAM] = [ 10.24, 20.48] = [ 29.35,117.42] Ry 
 Optimized for a Real-space Cutoff    1.34 Angstroem

   l    n(q)    QCUT    max X(q) W(low)/X(q) W(high)/X(q)  e(spline) 
   1      8    10.239     3.658    0.23E-03    0.30E-03    0.98E-07
   1      8    10.239     5.612    0.32E-03    0.65E-03    0.21E-06
   2      7    10.239    55.373    0.42E-03    0.45E-03    0.65E-07
   2      7    10.239    50.863    0.43E-03    0.48E-03    0.67E-07
   0      8    10.239    79.536    0.11E-03    0.21E-03    0.56E-07
   0      8    10.239    38.668    0.96E-04    0.19E-03    0.52E-07
 Optimization of the real space projectors (new method)

 maximal supplied QI-value         = 24.76
 optimisation between [QCUT,QGAM] = [ 10.15, 20.30] = [ 28.85,115.39] Ry 
 Optimized for a Real-space Cutoff    1.38 Angstroem

   l    n(q)    QCUT    max X(q) W(low)/X(q) W(high)/X(q)  e(spline) 
   0      8    10.150    20.381    0.22E-03    0.32E-03    0.29E-06
   0      8    10.150    15.268    0.23E-03    0.35E-03    0.30E-06
   1      8    10.150     5.964    0.46E-03    0.53E-03    0.21E-06
   1      8    10.150     5.382    0.38E-03    0.45E-03    0.19E-06
  PAW_PBE Na_pv 19Sep2006               :
 energy of atom  1       EATOM= -766.0439
 kinetic energy error for atom=    0.0103 (will be added to EATOM!!)
  PAW_PBE Mg_pv 13Apr2007               :
 energy of atom  2       EATOM=-1056.7344
 kinetic energy error for atom=    0.0820 (will be added to EATOM!!)
  PAW_PBE Mn_pv 02Aug2007               :
 energy of atom  3       EATOM=-2025.2664
 kinetic energy error for atom=    0.0284 (will be added to EATOM!!)
  PAW_PBE O 08Apr2002                   :
 energy of atom  4       EATOM= -432.3788
 kinetic energy error for atom=    0.1156 (will be added to EATOM!!)
 
 
 POSCAR: Na Mg Mn  O                             
  positions in cartesian coordinates
  No initial velocities read in

 METAGGA = SCAN     LMAXTAU =  6    LMIXTAU =  F

 exchange correlation table for  LEXCH =        8
   RHO(1)=    0.500       N(1)  =     2000
   RHO(2)=  100.500       N(2)  =     4000

 VTST: version 3.2, (02/03/18)

 CHAIN: initializing optimizer
 
 OPT: Using VASP Dynamics algorithm
 CHAIN: Read ICHAIN            0
 
 POSCAR: Na Mg Mn  O                             
  positions in cartesian coordinates
  No initial velocities read in
 


--------------------------------------------------------------------------------------------------------


 ion  position               nearest neighbor table
   1  0.864  0.339  0.236-  53 2.25  66 2.29  62 2.34
   2  0.763  0.709  0.745-  69 2.28  72 2.29
   3  0.399  0.607  0.757-  83 2.14  85 2.23  80 2.32  82 2.35  38 2.91
   4  0.233  0.188  0.747-  44 2.32  48 2.36
   5  0.055  0.016  0.244-  54 2.24  63 2.37  25 2.77  27 2.93
   6  0.432  0.205  0.246-  43 2.30  52 2.34  42 2.35  26 2.86  28 2.94
   7  0.066  0.512  0.756-  60 2.35  73 2.36  70 2.37  37 2.75  39 2.90
   8  0.892  0.153  0.753-  59 2.24  56 2.32  61 2.36  58 2.36  30 2.77  32 2.95
   9  0.741  0.998  0.251-  88 2.33
  10  0.044  0.710  0.250-  67 2.16  76 2.27  75 2.29
  11  0.243  0.482  0.244-  64 2.35  78 2.36
  12  0.601  0.357  0.757-  71 2.30  49 2.33
  13  0.562  0.017  0.754-  81 2.28  49 2.28  84 2.35  29 2.76  31 2.86
  14  0.096  0.845  0.755-  73 2.32  70 2.37
  15  0.389  0.854  0.264-  86 2.22  88 2.29  51 2.36
  16  0.619  0.530  0.259-  74 2.23  65 2.27  52 2.32  35 2.74
  17  0.742  0.357  0.996-  43 1.98  66 1.99  53 2.06  71 2.07  60 2.08  49 2.10  33 2.80  34 2.84

  18  0.740  0.351  0.504-  46 1.98  57 2.01  68 2.03  52 2.04  62 2.07  75 2.22  32 2.85  31 2.86

  19  0.236  0.348  0.998-  55 1.96  48 1.99  41 2.06  83 2.06  61 2.07  78 2.15  26 2.84
  20  0.243  0.350  0.498-  64 1.94  80 2.03  45 2.04  50 2.05  58 2.11  87 2.12  28 2.81
  21  0.234  0.850  0.007-  47 2.01  67 2.02  77 2.09  42 2.10  73 2.12  84 2.14  34 2.83
  22  0.246  0.848  0.498-  51 2.03  81 2.04  76 2.07  86 2.10  70 2.12  44 2.16  39 2.83  31 2.84
                            40 2.84  36 2.85
  23  0.735  0.846  0.004-  79 1.96  54 2.03  85 2.05  59 2.06  65 2.11  72 2.18  38 2.83
  24  0.744  0.860  0.501-  56 1.97  63 1.99  82 2.02  74 2.08  69 2.09  88 2.14  32 2.85  27 2.86

  25  0.065  0.011  0.998-  47 1.84  54 1.89  61 1.90  72 1.90  67 1.96  41 2.02   5 2.77  34 2.84
                            26 2.87  30 2.89
  26  0.396  0.180  0.992-  41 1.86  48 1.87  47 1.88  43 1.97  42 1.99  49 2.00  19 2.84   6 2.86
                            25 2.87  33 2.88  29 2.93
  27  0.073  0.019  0.505-  69 1.89  76 1.89  58 1.91  63 1.92  50 1.95  44 2.00  24 2.86  36 2.89
                            28 2.89  32 2.92   5 2.93
  28  0.406  0.189  0.506-  50 1.87  44 1.89  45 1.90  51 1.93  46 1.94  52 1.95  20 2.81  27 2.89
                            31 2.91   6 2.94  35 2.94
  29  0.569  0.016  0.999-  84 1.88  53 1.88  42 1.94  49 1.95  79 1.96  59 1.98  13 2.76  30 2.91
                            38 2.91  26 2.93
  30  0.904  0.183  0.998-  60 1.84  59 1.85  55 1.90  61 1.94  54 1.95  53 2.01   8 2.77  25 2.89
                            29 2.91  37 2.92
  31  0.574  0.022  0.499-  81 1.84  56 1.91  88 1.93  51 1.95  62 1.97  46 1.99  22 2.84  18 2.86
                            13 2.86  32 2.88  40 2.91  28 2.91
  32  0.906  0.188  0.491-  63 1.89  57 1.91  62 1.93  56 1.95  58 1.96  64 1.99  24 2.85  18 2.85
                            31 2.88  39 2.90  27 2.92   8 2.95
  33  0.575  0.512  0.992-  65 1.87  43 1.89  85 1.89  71 1.93  78 1.96  48 2.02  17 2.80  26 2.88
                            34 2.89  38 2.91
  34  0.908  0.684  0.000-  73 1.86  67 1.88  65 1.89  71 1.92  72 1.93  66 1.96  21 2.83  17 2.84
                            25 2.84  37 2.85  33 2.89
  35  0.587  0.528  0.502-  74 1.83  87 1.87  52 1.93  45 2.00  82 2.00  68 2.03  16 2.74  36 2.88
                            40 2.89  28 2.94
  36  0.918  0.687  0.503-  70 1.90  68 1.90  69 1.91  75 1.93  74 1.95  76 2.00  22 2.85  39 2.86
                            35 2.88  27 2.89
  37  0.072  0.519  0.001-  66 1.89  55 1.93  73 1.93  83 1.99  77 2.00  60 2.02   7 2.75  34 2.85
                            30 2.92  38 2.92
  38  0.409  0.680  0.010-  78 1.82  79 1.92  83 1.92  77 1.94  85 1.94  84 2.00  23 2.83  33 2.91
                             3 2.91  29 2.91  37 2.92
  39  0.083  0.522  0.498-  64 1.87  75 1.89  80 1.90  57 1.96  86 1.96  70 1.96  22 2.83  36 2.86
                            40 2.86  32 2.90   7 2.90
  40  0.413  0.687  0.499-  82 1.88  80 1.91  87 1.92  86 1.93  88 1.97  81 2.04  22 2.84  39 2.86
                            35 2.89  31 2.91
  41  0.244  0.175  0.091-  26 1.86  25 2.02  19 2.06
  42  0.419  0.033  0.098-  29 1.94  26 1.99  21 2.10   6 2.35
  43  0.566  0.349  0.083-  33 1.89  26 1.97  17 1.98   6 2.30
  44  0.248  0.033  0.600-  28 1.89  27 2.00  22 2.16   4 2.32
  45  0.418  0.357  0.595-  28 1.90  35 2.00  20 2.04
  46  0.569  0.186  0.597-  28 1.94  18 1.98  31 1.99
  47  0.227  0.018  0.915-  25 1.84  26 1.88  21 2.01
  48  0.399  0.339  0.902-  26 1.87  19 1.99  33 2.02   4 2.36
  49  0.564  0.174  0.901-  29 1.95  26 2.00  17 2.10  13 2.28  12 2.33
  50  0.245  0.171  0.411-  28 1.87  27 1.95  20 2.05
  51  0.413  0.034  0.410-  28 1.93  31 1.95  22 2.03  15 2.36
  52  0.566  0.354  0.411-  35 1.93  28 1.95  18 2.04  16 2.32   6 2.34
  53  0.727  0.173  0.090-  29 1.88  30 2.01  17 2.06   1 2.25
  54  0.915  0.024  0.091-  25 1.89  30 1.95  23 2.03   5 2.24
  55  0.066  0.347  0.084-  30 1.90  37 1.93  19 1.96
  56  0.740  0.030  0.587-  31 1.91  32 1.95  24 1.97   8 2.32
  57  0.918  0.351  0.587-  32 1.91  39 1.96  18 2.01
  58  0.057  0.173  0.594-  27 1.91  32 1.96  20 2.11   8 2.36
  59  0.745  0.028  0.911-  30 1.85  29 1.98  23 2.06   8 2.24
  60  0.913  0.339  0.905-  30 1.84  37 2.02  17 2.08   7 2.35
  61  0.059  0.167  0.906-  25 1.90  30 1.94  19 2.07   8 2.36
  62  0.739  0.180  0.400-  32 1.93  31 1.97  18 2.07   1 2.34
  63  0.917  0.028  0.411-  32 1.89  27 1.92  24 1.99   5 2.37
  64  0.083  0.363  0.410-  39 1.87  20 1.94  32 1.99  11 2.35
  65  0.735  0.657  0.088-  33 1.87  34 1.89  23 2.11  16 2.27
  66  0.914  0.520  0.092-  37 1.89  34 1.96  17 1.99   1 2.29
  67  0.056  0.844  0.096-  34 1.88  25 1.96  21 2.02  10 2.16
  68  0.760  0.532  0.599-  36 1.90  18 2.03  35 2.03
  69  0.921  0.851  0.592-  27 1.89  36 1.91  24 2.09   2 2.28
  70  0.065  0.671  0.600-  36 1.90  39 1.96  22 2.12  14 2.37   7 2.37
  71  0.748  0.536  0.899-  34 1.92  33 1.93  17 2.07  12 2.30
  72  0.919  0.847  0.901-  25 1.90  34 1.93  23 2.18   2 2.29
  73  0.055  0.672  0.907-  34 1.86  37 1.93  21 2.12  14 2.32   7 2.36
  74  0.746  0.677  0.415-  35 1.83  36 1.95  24 2.08  16 2.23
  75  0.935  0.538  0.404-  39 1.89  36 1.93  18 2.22  10 2.29
  76  0.076  0.865  0.408-  27 1.89  36 2.00  22 2.07  10 2.27
  77  0.243  0.675  0.103-  38 1.94  37 2.00  21 2.09
  78  0.426  0.533  0.092-  38 1.82  33 1.96  19 2.15  11 2.36
  79  0.570  0.852  0.094-  38 1.92  29 1.96  23 1.96
  80  0.246  0.527  0.588-  39 1.90  40 1.91  20 2.03   3 2.32
  81  0.429  0.868  0.594-  31 1.84  40 2.04  22 2.04  13 2.28
  82  0.568  0.689  0.594-  40 1.88  35 2.00  24 2.02   3 2.35
  83  0.248  0.533  0.908-  38 1.92  37 1.99  19 2.06   3 2.14
  84  0.418  0.851  0.910-  29 1.88  38 2.00  21 2.14  13 2.35
  85  0.562  0.670  0.910-  33 1.89  38 1.94  23 2.05   3 2.23
  86  0.251  0.673  0.398-  40 1.93  39 1.96  22 2.10  15 2.22
  87  0.434  0.534  0.411-  35 1.87  40 1.92  20 2.12
  88  0.562  0.859  0.400-  31 1.93  40 1.97  24 2.14  15 2.29   9 2.33
 
  LATTYP: Found a hexagonal cell.
 ALAT       =    10.0190000534
 C/A-ratio  =     1.1196726572
  
  Lattice vectors:
  
 A1 = (  10.0190000534,   0.0000000000,   0.0000000000)
 A2 = (  -5.0095000267,   8.6767085668,   0.0000000000)
 A3 = (   0.0000000000,   0.0000000000,  11.2180004120)


Analysis of symmetry for initial positions (statically):
=====================================================================
 Subroutine PRICEL returns:
 Original cell was already a primitive cell.
 

 Routine SETGRP: Setting up the symmetry group for a 
 hexagonal supercell.


 Subroutine GETGRP returns: Found  1 space group operations
 (whereof  1 operations were pure point group operations)
 out of a pool of 24 trial point group operations.


The static configuration has the point symmetry C_1 .


Analysis of symmetry for dynamics (positions and initial velocities):
=====================================================================
 Subroutine PRICEL returns:
 Original cell was already a primitive cell.
 

 Routine SETGRP: Setting up the symmetry group for a 
 hexagonal supercell.


 Subroutine GETGRP returns: Found  1 space group operations
 (whereof  1 operations were pure point group operations)
 out of a pool of 24 trial point group operations.


The dynamic configuration has the point symmetry C_1 .


Analysis of structural, dynamic, and magnetic symmetry:
=====================================================================
 Subroutine PRICEL returns:
 Original cell was already a primitive cell.
 

 Routine SETGRP: Setting up the symmetry group for a 
 hexagonal supercell.


 Subroutine GETGRP returns: Found  1 space group operations
 (whereof  1 operations were pure point group operations)
 out of a pool of 24 trial point group operations.


The magnetic configuration has the point symmetry C_1 .


 Subroutine INISYM returns: Found  1 space group operations
 (whereof  1 operations are pure point group operations),
 and found     1 'primitive' translations

 
 

Automatic generation of k-mesh.
 generate k-points for:    2    2    2
Space group operators:
 irot       det(A)        alpha          n_x          n_y          n_z        tau_x        tau_y        tau_z
    1     1.000000     0.000000     1.000000     0.000000     0.000000     0.000000     0.000000     0.000000
 
 Subroutine IBZKPT returns following result:
 ===========================================
 
 Found      8 irreducible k-points:
 
 Following reciprocal coordinates:
            Coordinates               Weight
  0.000000  0.000000  0.000000      1.000000
  0.500000 -0.000000 -0.000000      1.000000
  0.000000  0.500000  0.000000      1.000000
  0.500000  0.500000 -0.000000      1.000000
  0.000000  0.000000  0.500000      1.000000
  0.500000 -0.000000  0.500000      1.000000
  0.000000  0.500000  0.500000      1.000000
  0.500000  0.500000  0.500000      1.000000
 
 Following cartesian coordinates:
            Coordinates               Weight
  0.000000  0.000000  0.000000      1.000000
  0.049905  0.028813 -0.000000      1.000000
  0.000000  0.057626  0.000000      1.000000
  0.049905  0.086438 -0.000000      1.000000
  0.000000  0.000000  0.044571      1.000000
  0.049905  0.028813  0.044571      1.000000
  0.000000  0.057626  0.044571      1.000000
  0.049905  0.086438  0.044571      1.000000
 


--------------------------------------------------------------------------------------------------------




 Dimension of arrays:
   k-points           NKPTS =      8   k-points in BZ     NKDIM =      8   number of bands    NBANDS=    480
   number of dos      NEDOS =    301   number of ions     NIONS =     88
   non local maximal  LDIM  =      6   non local SUM 2l+1 LMDIM =     18
   total plane-waves  NPLWV = 140000
   max r-space proj   IRMAX =   1632   max aug-charges    IRDMAX=   4555
   dimension x,y,z NGX =    50 NGY =   50 NGZ =   56
   dimension x,y,z NGXF=   100 NGYF=  100 NGZF=  112
   support grid    NGXF=   100 NGYF=  100 NGZF=  112
   ions per type =              16   8  16  48
   NGX,Y,Z   is equivalent  to a cutoff of   8.30,  8.30,  8.30 a.u.
   NGXF,Y,Z  is equivalent  to a cutoff of  16.59, 16.59, 16.60 a.u.

 SYSTEM =  unknown system                          
 POSCAR =  Na Mg Mn  O                             

 Startparameter for this run:
   NWRITE =      2    write-flag & timer
   PREC   = normal    normal or accurate (medium, high low for compatibility)
   ISTART =      0    job   : 0-new  1-cont  2-samecut
   ICHARG =      1    charge: 1-file 2-atom 10-const
   ISPIN  =      2    spin polarized calculation?
   LNONCOLLINEAR =      F non collinear calculations
   LSORBIT =      F    spin-orbit coupling
   INIWAV =      1    electr: 0-lowe 1-rand  2-diag
   LASPH  =      T    aspherical Exc in radial PAW
   METAGGA=      F    non-selfconsistent MetaGGA calc.

 Electronic Relaxation 1
   ENCUT  =  400.0 eV  29.40 Ry    5.42 a.u.  16.34 16.34 18.29*2*pi/ulx,y,z
   ENINI  =  400.0     initial cutoff
   ENAUG  =  758.8 eV  augmentation charge cutoff
   NELM   =    200;   NELMIN=  6; NELMDL=-12     # of ELM steps 
   EDIFF  = 0.1E-04   stopping-criterion for ELM
   LREAL  =      T    real-space projection
   NLSPLINE    = F    spline interpolate recip. space projectors
   LCOMPAT=      F    compatible to vasp.4.4
   GGA_COMPAT  = T    GGA compatible to vasp.4.4-vasp.4.6
   LMAXPAW     = -100 max onsite density
   LMAXMIX     =    4 max onsite mixed and CHGCAR
   VOSKOWN=      0    Vosko Wilk Nusair interpolation
   ROPT   =   -0.00050  -0.00050  -0.00050  -0.00050
 Ionic relaxation
   EDIFFG = 0.1E-03   stopping-criterion for IOM
   NSW    =      1    number of steps for IOM
   NBLOCK =      1;   KBLOCK =      1    inner block; outer block 
   IBRION =     -1    ionic relax: 0-MD 1-quasi-New 2-CG
   NFREE  =      0    steps in history (QN), initial steepest desc. (CG)
   ISIF   =      2    stress and relaxation
   IWAVPR =     10    prediction:  0-non 1-charg 2-wave 3-comb
   ISYM   =      2    0-nonsym 1-usesym 2-fastsym
   LCORR  =      T    Harris-Foulkes like correction to forces

   POTIM  = 0.5000    time-step for ionic-motion
   TEIN   =    0.0    initial temperature
   TEBEG  =    0.0;   TEEND  =   0.0 temperature during run
   SMASS  =  -3.00    Nose mass-parameter (am)
   estimated Nose-frequenzy (Omega)   =  0.10E-29 period in steps =****** mass=  -0.229E-26a.u.
   SCALEE = 1.0000    scale energy and forces
   NPACO  =    256;   APACO  = 16.0  distance and # of slots for P.C.
   PSTRESS=    0.0 pullay stress

  Mass of Ions in am
   POMASS =  22.99 24.30 54.94 16.00
  Ionic Valenz
   ZVAL   =   7.00  8.00 13.00  6.00
  Atomic Wigner-Seitz radii
   RWIGS  =  -1.00 -1.00 -1.00 -1.00
  virtual crystal weights 
   VCA    =   1.00  1.00  1.00  1.00
   NELECT =     672.0000    total number of electrons
   NUPDOWN=      48.0000    fix difference up-down

 DOS related values:
   EMIN   =  10.00;   EMAX   =-10.00  energy-range for DOS
   EFERMI =   0.00
   ISMEAR =     0;   SIGMA  =   0.05  broadening in eV -4-tet -1-fermi 0-gaus

 Electronic relaxation 2 (details)
   IALGO  =     48    algorithm
   LDIAG  =      T    sub-space diagonalisation (order eigenvalues)
   LSUBROT=      F    optimize rotation matrix (better conditioning)
   TURBO    =      0    0=normal 1=particle mesh
   IRESTART =      0    0=no restart 2=restart with 2 vectors
   NREBOOT  =      0    no. of reboots
   NMIN     =      0    reboot dimension
   EREF     =   0.00    reference energy to select bands
   IMIX   =      4    mixing-type and parameters
     AMIX     =   0.40;   BMIX     =  1.00
     AMIX_MAG =   1.60;   BMIX_MAG =  1.00
     AMIN     =   0.10
     WC   =   100.;   INIMIX=   1;  MIXPRE=   1;  MAXMIX= -45

 Intra band minimization:
   WEIMIN = 0.0000     energy-eigenvalue tresh-hold
   EBREAK =  0.52E-08  absolut break condition
   DEPER  =   0.30     relativ break condition  

   TIME   =   0.40     timestep for ELM

  volume/ion in A,a.u.               =      11.08        74.78
  Fermi-wavevector in a.u.,A,eV,Ry     =   1.445993  2.732531 28.448379  2.090897
  Thomas-Fermi vector in A             =   2.564112
 
 Write flags
   LWAVE        =      F    write WAVECAR
   LDOWNSAMPLE  =      F    k-point downsampling of WAVECAR
   LCHARG       =      F    write CHGCAR
   LVTOT        =      F    write LOCPOT, total local potential
   LVHAR        =      F    write LOCPOT, Hartree potential only
   LELF         =      F    write electronic localiz. function (ELF)
   LORBIT       =     11    0 simple, 1 ext, 2 COOP (PROOUT), +10 PAW based schemes


 Dipole corrections
   LMONO  =      F    monopole corrections only (constant potential shift)
   LDIPOL =      F    correct potential (dipole corrections)
   IDIPOL =      0    1-x, 2-y, 3-z, 4-all directions 
   EPSILON=  1.0000000 bulk dielectric constant

 Exchange correlation treatment:
   GGA     =    --    GGA type
   LEXCH   =     8    internal setting for exchange type
   VOSKOWN=      0    Vosko Wilk Nusair interpolation
   LHFCALC =     F    Hartree Fock is set to
   LHFONE  =     F    Hartree Fock one center treatment
   AEXX    =    0.0000 exact exchange contribution

 Linear response parameters
   LEPSILON=     F    determine dielectric tensor
   LRPA    =     F    only Hartree local field effects (RPA)
   LNABLA  =     F    use nabla operator in PAW spheres
   LVEL    =     F    velocity operator in full k-point grid
   LINTERFAST=   F  fast interpolation
   KINTER  =     0    interpolate to denser k-point grid
   CSHIFT  =0.1000    complex shift for real part using Kramers Kronig
   OMEGAMAX=  -1.0    maximum frequency
   DEG_THRESHOLD= 0.2000000E-02 threshold for treating states as degnerate
   RTIME   =   -0.100 relaxation time in fs
  (WPLASMAI=    0.000 imaginary part of plasma frequency in eV, 0.658/RTIME)
   DFIELD  = 0.0000000 0.0000000 0.0000000 field for delta impulse in time
 
 Orbital magnetization related:
   ORBITALMAG=     F  switch on orbital magnetization
   LCHIMAG   =     F  perturbation theory with respect to B field
   DQ        =  0.001000  dq finite difference perturbation B field
   LLRAUG    =     F  two centre corrections for induced B field



--------------------------------------------------------------------------------------------------------


 Static calculation
 charge density and potential will be updated during run
 spin polarized calculation
 RMM-DIIS sequential band-by-band
 perform sub-space diagonalisation
    before iterative eigenvector-optimisation
 modified Broyden-mixing scheme, WC =      100.0
 initial mixing is a Kerker type mixing with AMIX =  0.4000 and BMIX =      1.0000
 Hartree-type preconditioning will be used
 using additional bands          144
 real space projection scheme for non local part
 use partial core corrections
 calculate Harris-corrections to forces 
   (improved forces if not selfconsistent)
 use gradient corrections 
 use of overlap-Matrix (Vanderbilt PP)
 Gauss-broadening in eV      SIGMA  =   0.05


--------------------------------------------------------------------------------------------------------


  energy-cutoff  :      400.00
  volume of cell :      975.20
      direct lattice vectors                 reciprocal lattice vectors
    10.019000053  0.000000000  0.000000000     0.099810360  0.057625538 -0.000000000
    -5.009500027  8.676708567  0.000000000     0.000000000  0.115251076  0.000000000
     0.000000000  0.000000000 11.218000412     0.000000000  0.000000000  0.089142446

  length of vectors
    10.019000053 10.019000053 11.218000412     0.115251076  0.115251076  0.089142446


 
 k-points in units of 2pi/SCALE and weight: read from INCAR                         
   0.00000000  0.00000000  0.00000000       0.125
   0.04990518  0.02881277 -0.00000000       0.125
   0.00000000  0.05762554  0.00000000       0.125
   0.04990518  0.08643831 -0.00000000       0.125
   0.00000000  0.00000000  0.04457122       0.125
   0.04990518  0.02881277  0.04457122       0.125
   0.00000000  0.05762554  0.04457122       0.125
   0.04990518  0.08643831  0.04457122       0.125
 
 k-points in reciprocal lattice and weights: read from INCAR                         
   0.00000000  0.00000000  0.00000000       0.125
   0.50000000 -0.00000000 -0.00000000       0.125
   0.00000000  0.50000000  0.00000000       0.125
   0.50000000  0.50000000 -0.00000000       0.125
   0.00000000  0.00000000  0.50000000       0.125
   0.50000000 -0.00000000  0.50000000       0.125
   0.00000000  0.50000000  0.50000000       0.125
   0.50000000  0.50000000  0.50000000       0.125
 
 position of ions in fractional coordinates (direct lattice) 
   0.86355323  0.33914358  0.23624175
   0.76279738  0.70867689  0.74509981
   0.39928527  0.60739375  0.75733372
   0.23346756  0.18826461  0.74651361
   0.05462210  0.01606123  0.24408717
   0.43160553  0.20526118  0.24561775
   0.06588329  0.51242341  0.75618913
   0.89177779  0.15259440  0.75263770
   0.74063832  0.99755569  0.25142984
   0.04373751  0.71023179  0.25028792
   0.24338266  0.48181470  0.24350240
   0.60138618  0.35711912  0.75709571
   0.56213744  0.01651963  0.75351932
   0.09610073  0.84544024  0.75455337
   0.38882523  0.85389160  0.26417364
   0.61883697  0.53015824  0.25865661
   0.74203977  0.35704092  0.99610552
   0.73998611  0.35064794  0.50360401
   0.23619857  0.34768829  0.99782293
   0.24282568  0.35001867  0.49819930
   0.23400146  0.84999513  0.00732747
   0.24647754  0.84817416  0.49847743
   0.73536221  0.84614113  0.00426378
   0.74351036  0.86008190  0.50140754
   0.06513034  0.01070584  0.99775595
   0.39614203  0.18047051  0.99236360
   0.07270548  0.01909496  0.50477534
   0.40573186  0.18921000  0.50647975
   0.56866300  0.01581607  0.99909071
   0.90401904  0.18280204  0.99811014
   0.57373427  0.02160628  0.49884737
   0.90586302  0.18815084  0.49140576
   0.57500005  0.51211009  0.99197850
   0.90811509  0.68373392  0.00016998
   0.58685756  0.52768858  0.50163396
   0.91818824  0.68679269  0.50311551
   0.07227719  0.51908278  0.00083422
   0.40872465  0.68035937  0.00952211
   0.08276992  0.52171511  0.49773131
   0.41294077  0.68680998  0.49913263
   0.24431332  0.17498456  0.09079515
   0.41904178  0.03293334  0.09759493
   0.56558832  0.34911856  0.08261517
   0.24838400  0.03279953  0.59961488
   0.41829067  0.35705244  0.59495541
   0.56946848  0.18557037  0.59654927
   0.22720204  0.01798528  0.91465499
   0.39852646  0.33880359  0.90175607
   0.56438708  0.17410404  0.90145299
   0.24496976  0.17144865  0.41073808
   0.41297531  0.03358612  0.41039667
   0.56648394  0.35424147  0.41137902
   0.72697793  0.17308752  0.08976377
   0.91498916  0.02363039  0.09054466
   0.06581604  0.34745203  0.08360260
   0.73998720  0.02973985  0.58733908
   0.91780192  0.35138785  0.58699677
   0.05661069  0.17323735  0.59413797
   0.74528100  0.02816056  0.91100014
   0.91338719  0.33893728  0.90538417
   0.05940199  0.16698844  0.90585663
   0.73931861  0.17995073  0.39950524
   0.91665945  0.02816471  0.41104206
   0.08347640  0.36319994  0.40954536
   0.73499505  0.65693690  0.08817659
   0.91391419  0.52010506  0.09188982
   0.05592357  0.84427752  0.09593599
   0.76032856  0.53208541  0.59866552
   0.92098141  0.85059443  0.59245942
   0.06530803  0.67148043  0.59978604
   0.74783995  0.53605120  0.89940271
   0.91949467  0.84686837  0.90075768
   0.05497407  0.67153114  0.90671239
   0.74593578  0.67733518  0.41477000
   0.93493583  0.53837350  0.40401942
   0.07575097  0.86545145  0.40828043
   0.24277510  0.67502440  0.10253966
   0.42554680  0.53261671  0.09153770
   0.57006582  0.85208693  0.09385273
   0.24637130  0.52735204  0.58776607
   0.42881686  0.86788209  0.59418611
   0.56815709  0.68850301  0.59396503
   0.24786851  0.53278383  0.90827239
   0.41767951  0.85077653  0.90994826
   0.56171457  0.66964333  0.90993044
   0.25130277  0.67333136  0.39804509
   0.43353946  0.53394786  0.41115260
   0.56203643  0.85852140  0.39964342
 
 position of ions in cartesian coordinates  (Angst):
   6.95300011  2.94265000  2.65016000
   4.09235005  6.14898287  8.35853000
   0.95770008  5.27017857  8.49577000
   1.39599995  1.63351713  8.37439000
   0.46680008  0.13935857  2.73817000
   3.29599992  1.78099143  2.75534000
  -1.90690035  4.44614857  8.48293000
   8.17030011  1.32401713  8.44309000
   2.42320016  8.65550000  2.82054000
  -3.11970013  6.16247430  2.80773000
   0.02480011  4.18056573  2.73161000
   4.23629992  3.09861857  8.49310000
   5.54929995  0.14333600  8.45298000
  -3.27239965  7.33563857  8.46458000
  -0.38192997  7.40896857  2.96350000
   3.54429992  4.60002857  2.90161000
   5.64590000  3.09794000 11.17431211
   5.65735000  3.04247000  5.64943000
   0.62472900  3.01679000 11.19357801
   0.67945200  3.03701000  5.58880000
  -1.91359000  7.37516000  0.08219959
  -1.77947000  7.35936000  5.59192000
   3.12885000  7.34172000  0.04783110
   3.14065000  7.46268000  5.62479000
   0.59890997  0.09289143 11.19282671
   3.06488000  1.56589000 11.13233531
   0.63277997  0.16568143  5.66257000
   3.11718000  1.64172000  5.68169000
   5.61820403  0.13723143 11.20780000
   8.14162000  1.58612000 11.19680000
   5.64000703  0.18747143  5.59607000
   8.13330000  1.63253000  5.51259000
   3.19551000  4.44343000 11.12801521
   5.67324000  5.93256000  0.00190685
   3.23627000  4.57860000  5.62733000
   5.75884000  5.95910000  5.64395000
  -1.87620005  4.50393000  0.00935826
   0.68675200  5.90328000  0.10681900
  -1.78426005  4.52677000  5.58355000
   0.69667900  5.95925000  5.59927000
   1.57119000  1.51829000  1.01854000
   4.03340000  0.28575300  1.09482000
   3.91772000  3.02920000  0.92677700
   2.32425000  0.28459200  6.72648000
   2.40220000  3.09804000  6.67421000
   4.77589000  1.61014000  6.69209000
   2.18624000  0.15605300 10.26060000
   2.29560000  2.93970000 10.11590000
   4.78242000  1.51065000 10.11250000
   1.59548000  1.48761000  4.60766000
   3.96935000  0.29141700  4.60383000
   3.90103000  3.07365000  4.61485000
   6.41651000  1.50183000  1.00697000
   9.04890000  0.20503400  1.01573000
  -1.08115005  3.01474000  0.93785400
   7.26495000  0.25804400  6.58877000
   7.43518000  3.04889000  6.58493000
  -0.30065005  1.50313000  6.66504000
   7.32590000  0.24434100 10.21960000
   7.45332000  2.94086000 10.15660000
  -0.24138005  1.44891000 10.16190000
   6.50577000  1.56138000  4.48165000
   9.04292000  0.24437700  4.61107000
  -0.98310005  3.15138000  4.59428000
   4.07299000  5.70005000  0.98916500
   6.55104000  4.51280000  1.03082000
  -3.66911005  7.32555000  1.07621000
   4.95225000  4.61675000  6.71583000
   4.96626000  7.38036000  6.64621000
  -2.70946005  5.82624000  6.72840000
   4.80726000  4.65116000 10.08950000
   4.97003000  7.34803000 10.10470000
  -2.81325005  5.82668000 10.17150000
   4.08042000  5.87704000  4.65289000
   6.67014000  4.67131000  4.53229000
  -3.57653005  7.50927000  4.58009000
  -0.94917100  5.85699000  1.15029000
   1.59541000  4.62136000  1.02687000
   1.44296000  7.39331000  1.05284000
  -0.17337600  4.57568000  6.59356000
  -0.05133920  7.53036000  6.66558000
   2.24331000  5.97394000  6.66310000
  -0.18558600  4.62281000 10.18900000
  -0.07723400  7.38194000 10.20780000
   2.27324000  5.81030000 10.20760000
  -0.85525100  5.84230000  4.46527000
   1.66882000  4.63291000  4.61231000
   1.33028000  7.44914000  4.48320000
 


--------------------------------------------------------------------------------------------------------


 k-point  1 :   0.0000 0.0000 0.0000  plane waves:   17725
 k-point  2 :   0.5000-0.0000-0.0000  plane waves:   17736
 k-point  3 :   0.0000 0.5000 0.0000  plane waves:   17736
 k-point  4 :   0.5000 0.5000-0.0000  plane waves:   17736
 k-point  5 :   0.0000 0.0000 0.5000  plane waves:   17676
 k-point  6 :   0.5000-0.0000 0.5000  plane waves:   17700
 k-point  7 :   0.0000 0.5000 0.5000  plane waves:   17700
 k-point  8 :   0.5000 0.5000 0.5000  plane waves:   17700

 maximum and minimum number of plane-waves per node :     17736    17676

 maximum number of plane-waves:     17736
 maximum index in each direction: 
   IXMAX=   16   IYMAX=   16   IZMAX=   18
   IXMIN=  -16   IYMIN=  -16   IZMIN=  -18


 serial   3D FFT for wavefunctions
 parallel 3D FFT for charge:
    minimum data exchange during FFTs selected (reduces bandwidth)


 total amount of memory used by VASP MPI-rank0    94440. kBytes
=======================================================================

   base      :      30000. kBytes
   nonlr-proj:      13681. kBytes
   fftplans  :       1275. kBytes
   grid      :      22786. kBytes
   one-center:       2737. kBytes
   wavefun   :      23961. kBytes
 
     INWAV:  cpu time    0.0000: real time    0.0001
 Broyden mixing: mesh for mixing (old mesh)
   NGX = 33   NGY = 33   NGZ = 37
  (NGX  =100   NGY  =100   NGZ  =112)
  gives a total of  40293 points

 initial charge density was supplied:
 charge density of overlapping atoms calculated
 number of electron     672.0000000 magnetization      48.0000000
 keeping initial charge density in first step


--------------------------------------------------------------------------------------------------------


 Maximum index for non-local projection operator         1551
 Maximum index for augmentation-charges          377 (set IRDMAX)


--------------------------------------------------------------------------------------------------------


 First call to EWALD:  gamma=   0.179
 Maximum number of real-space cells 3x 3x 2
 Maximum number of reciprocal cells 3x 3x 3

    FEWALD:  cpu time    0.0028: real time    0.0032


--------------------------------------- Iteration      1(   1)  ---------------------------------------


    POTLOK:  cpu time    0.1882: real time    0.1900
    SETDIJ:  cpu time    4.6111: real time    4.6124
    EDDIAG:  cpu time    4.4370: real time    4.8034
  RMM-DIIS:  cpu time    9.1009: real time    9.1085
    ORTHCH:  cpu time    1.1525: real time    1.2314
       DOS:  cpu time    0.0025: real time    0.0026
    --------------------------------------------
      LOOP:  cpu time   19.4923: real time   19.9483

 eigenvalue-minimisations  :  7680
 total energy-change (2. order) : 0.1485128E+04  (-0.3500070E+05)
 number of electron     672.0000000 magnetization      48.0000000
 augmentation part      672.0000000 magnetization      48.0000000

 Free energy of the ion-electron system (eV)
  ---------------------------------------------------
  alpha Z        PSCENC =      2652.81237852
  Ewald energy   TEWEN  =    -41834.86193791
  -Hartree energ DENC   =    -25776.29859444
  -exchange      EXHF   =         0.00000000
  -V(xc)+E(xc)   XCENC  =      3606.00049418
  PAW double counting   =     55594.23204139   -59034.67079123
  entropy T*S    EENTRO =        -0.06516463
  eigenvalues    EBANDS =     -7584.21866152
  atomic energy  EATOM  =     73862.19814772
  Solvation  Ediel_sol  =         0.00000000
  ---------------------------------------------------
  free energy    TOTEN  =      1485.12791208 eV

  energy without entropy =     1485.19307671  energy(sigma->0) =     1485.16049439


--------------------------------------------------------------------------------------------------------




--------------------------------------- Iteration      1(   2)  ---------------------------------------


    EDDIAG:  cpu time    4.4142: real time    4.8300
  RMM-DIIS:  cpu time    9.0865: real time    9.1141
    ORTHCH:  cpu time    1.1467: real time    1.2302
       DOS:  cpu time    0.0024: real time    0.0024
    --------------------------------------------
      LOOP:  cpu time   14.6498: real time   15.1769

 eigenvalue-minimisations  :  7680
 total energy-change (2. order) :-0.2196600E+04  (-0.7993282E+04)
 number of electron     672.0000000 magnetization      48.0000000
 augmentation part      672.0000000 magnetization      48.0000000

 Free energy of the ion-electron system (eV)
  ---------------------------------------------------
  alpha Z        PSCENC =      2652.81237852
  Ewald energy   TEWEN  =    -41834.86193791
  -Hartree energ DENC   =    -25776.29859444
  -exchange      EXHF   =         0.00000000
  -V(xc)+E(xc)   XCENC  =      3606.00049418
  PAW double counting   =     55594.23204139   -59034.67079123
  entropy T*S    EENTRO =        -0.05212125
  eigenvalues    EBANDS =     -9780.83125850
  atomic energy  EATOM  =     73862.19814772
  Solvation  Ediel_sol  =         0.00000000
  ---------------------------------------------------
  free energy    TOTEN  =      -711.47164152 eV

  energy without entropy =     -711.41952027  energy(sigma->0) =     -711.44558090


--------------------------------------------------------------------------------------------------------




--------------------------------------- Iteration      1(   3)  ---------------------------------------


    EDDIAG:  cpu time    4.4550: real time    4.8473
  RMM-DIIS:  cpu time    9.0984: real time    9.1043
    ORTHCH:  cpu time    1.1462: real time    1.2324
       DOS:  cpu time    0.0018: real time    0.0018
    --------------------------------------------
      LOOP:  cpu time   14.7015: real time   15.1857

 eigenvalue-minimisations  :  7680
 total energy-change (2. order) : 0.6543689E+02  (-0.1416947E+04)
 number of electron     672.0000000 magnetization      48.0000000
 augmentation part      672.0000000 magnetization      48.0000000

 Free energy of the ion-electron system (eV)
  ---------------------------------------------------
  alpha Z        PSCENC =      2652.81237852
  Ewald energy   TEWEN  =    -41834.86193791
  -Hartree energ DENC   =    -25776.29859444
  -exchange      EXHF   =         0.00000000
  -V(xc)+E(xc)   XCENC  =      3606.00049418
  PAW double counting   =     55594.23204139   -59034.67079123
  entropy T*S    EENTRO =        -0.03713004
  eigenvalues    EBANDS =     -9715.40936291
  atomic energy  EATOM  =     73862.19814772
  Solvation  Ediel_sol  =         0.00000000
  ---------------------------------------------------
  free energy    TOTEN  =      -646.03475473 eV

  energy without entropy =     -645.99762469  energy(sigma->0) =     -646.01618971


--------------------------------------------------------------------------------------------------------




--------------------------------------- Iteration      1(   4)  ---------------------------------------


    EDDIAG:  cpu time    4.3887: real time    4.8154
  RMM-DIIS:  cpu time    9.1083: real time    9.1316
    ORTHCH:  cpu time    1.1449: real time    1.2320
       DOS:  cpu time    0.0012: real time    0.0012
    --------------------------------------------
      LOOP:  cpu time   14.6431: real time   15.1803

 eigenvalue-minimisations  :  7680
 total energy-change (2. order) :-0.4662715E+03  (-0.4276171E+03)
 number of electron     672.0000000 magnetization      48.0000000
 augmentation part      672.0000000 magnetization      48.0000000

 Free energy of the ion-electron system (eV)
  ---------------------------------------------------
  alpha Z        PSCENC =      2652.81237852
  Ewald energy   TEWEN  =    -41834.86193791
  -Hartree energ DENC   =    -25776.29859444
  -exchange      EXHF   =         0.00000000
  -V(xc)+E(xc)   XCENC  =      3606.00049418
  PAW double counting   =     55594.23204139   -59034.67079123
  entropy T*S    EENTRO =        -0.00000000
  eigenvalues    EBANDS =    -10181.71795857
  atomic energy  EATOM  =     73862.19814772
  Solvation  Ediel_sol  =         0.00000000
  ---------------------------------------------------
  free energy    TOTEN  =     -1112.30622035 eV

  energy without entropy =    -1112.30622035  energy(sigma->0) =    -1112.30622035


--------------------------------------------------------------------------------------------------------




--------------------------------------- Iteration      1(   5)  ---------------------------------------


    EDDIAG:  cpu time    4.4563: real time    4.8518
  RMM-DIIS:  cpu time    9.1178: real time    9.1217
    ORTHCH:  cpu time    1.1482: real time    1.2336
       DOS:  cpu time    0.0014: real time    0.0014
    --------------------------------------------
      LOOP:  cpu time   14.7236: real time   15.2085

 eigenvalue-minimisations  :  7680
 total energy-change (2. order) :-0.1037803E+03  (-0.1590307E+03)
 number of electron     672.0000000 magnetization      48.0000000
 augmentation part      672.0000000 magnetization      48.0000000

 Free energy of the ion-electron system (eV)
  ---------------------------------------------------
  alpha Z        PSCENC =      2652.81237852
  Ewald energy   TEWEN  =    -41834.86193791
  -Hartree energ DENC   =    -25776.29859444
  -exchange      EXHF   =         0.00000000
  -V(xc)+E(xc)   XCENC  =      3606.00049418
  PAW double counting   =     55594.23204139   -59034.67079123
  entropy T*S    EENTRO =        -0.00000000
  eigenvalues    EBANDS =    -10285.49825514
  atomic energy  EATOM  =     73862.19814772
  Solvation  Ediel_sol  =         0.00000000
  ---------------------------------------------------
  free energy    TOTEN  =     -1216.08651691 eV

  energy without entropy =    -1216.08651691  energy(sigma->0) =    -1216.08651691


--------------------------------------------------------------------------------------------------------




--------------------------------------- Iteration      1(   6)  ---------------------------------------


    EDDIAG:  cpu time    4.3959: real time    4.8248
  RMM-DIIS:  cpu time    9.0945: real time    9.1114
    ORTHCH:  cpu time    1.1417: real time    1.2309
       DOS:  cpu time    0.0011: real time    0.0011
    --------------------------------------------
      LOOP:  cpu time   14.6332: real time   15.1682

 eigenvalue-minimisations  :  7680
 total energy-change (2. order) :-0.9035449E+01  (-0.7900182E+02)
 number of electron     672.0000000 magnetization      48.0000000
 augmentation part      672.0000000 magnetization      48.0000000

 Free energy of the ion-electron system (eV)
  ---------------------------------------------------
  alpha Z        PSCENC =      2652.81237852
  Ewald energy   TEWEN  =    -41834.86193791
  -Hartree energ DENC   =    -25776.29859444
  -exchange      EXHF   =         0.00000000
  -V(xc)+E(xc)   XCENC  =      3606.00049418
  PAW double counting   =     55594.23204139   -59034.67079123
  entropy T*S    EENTRO =        -0.00000000
  eigenvalues    EBANDS =    -10294.53370454
  atomic energy  EATOM  =     73862.19814772
  Solvation  Ediel_sol  =         0.00000000
  ---------------------------------------------------
  free energy    TOTEN  =     -1225.12196631 eV

  energy without entropy =    -1225.12196631  energy(sigma->0) =    -1225.12196631


--------------------------------------------------------------------------------------------------------




--------------------------------------- Iteration      1(   7)  ---------------------------------------


    EDDIAG:  cpu time    4.3892: real time    4.8126
  RMM-DIIS:  cpu time    9.1026: real time    9.1141
    ORTHCH:  cpu time    1.1598: real time    1.2560
       DOS:  cpu time    0.0014: real time    0.0014
    --------------------------------------------
      LOOP:  cpu time   14.6530: real time   15.1842

 eigenvalue-minimisations  :  7680
 total energy-change (2. order) :-0.1803949E+01  (-0.4828245E+02)
 number of electron     672.0000000 magnetization      48.0000000
 augmentation part      672.0000000 magnetization      48.0000000

 Free energy of the ion-electron system (eV)
  ---------------------------------------------------
  alpha Z        PSCENC =      2652.81237852
  Ewald energy   TEWEN  =    -41834.86193791
  -Hartree energ DENC   =    -25776.29859444
  -exchange      EXHF   =         0.00000000
  -V(xc)+E(xc)   XCENC  =      3606.00049418
  PAW double counting   =     55594.23204139   -59034.67079123
  entropy T*S    EENTRO =        -0.00000000
  eigenvalues    EBANDS =    -10296.33765325
  atomic energy  EATOM  =     73862.19814772
  Solvation  Ediel_sol  =         0.00000000
  ---------------------------------------------------
  free energy    TOTEN  =     -1226.92591503 eV

  energy without entropy =    -1226.92591503  energy(sigma->0) =    -1226.92591503


--------------------------------------------------------------------------------------------------------




--------------------------------------- Iteration      1(   8)  ---------------------------------------


    EDDIAG:  cpu time    4.4597: real time    4.8611
  RMM-DIIS:  cpu time    9.1011: real time    9.1194
    ORTHCH:  cpu time    1.1475: real time    1.2303
       DOS:  cpu time    0.0010: real time    0.0010
    --------------------------------------------
      LOOP:  cpu time   14.7094: real time   15.2119

 eigenvalue-minimisations  :  7680
 total energy-change (2. order) : 0.4990105E+01  (-0.3000971E+02)
 number of electron     672.0000000 magnetization      48.0000000
 augmentation part      672.0000000 magnetization      48.0000000

 Free energy of the ion-electron system (eV)
  ---------------------------------------------------
  alpha Z        PSCENC =      2652.81237852
  Ewald energy   TEWEN  =    -41834.86193791
  -Hartree energ DENC   =    -25776.29859444
  -exchange      EXHF   =         0.00000000
  -V(xc)+E(xc)   XCENC  =      3606.00049418
  PAW double counting   =     55594.23204139   -59034.67079123
  entropy T*S    EENTRO =        -0.00000000
  eigenvalues    EBANDS =    -10291.34754872
  atomic energy  EATOM  =     73862.19814772
  Solvation  Ediel_sol  =         0.00000000
  ---------------------------------------------------
  free energy    TOTEN  =     -1221.93581050 eV

  energy without entropy =    -1221.93581050  energy(sigma->0) =    -1221.93581050


--------------------------------------------------------------------------------------------------------




--------------------------------------- Iteration      1(   9)  ---------------------------------------


    EDDIAG:  cpu time    4.4174: real time    4.8252
  RMM-DIIS:  cpu time   19.2009: real time   19.3331
    ORTHCH:  cpu time    1.1449: real time    1.2308
       DOS:  cpu time    0.0012: real time    0.0012
    --------------------------------------------
      LOOP:  cpu time   24.7644: real time   25.3902

 eigenvalue-minimisations  : 21821
 total energy-change (2. order) : 0.9315214E+01  (-0.1324324E+02)
 number of electron     672.0000000 magnetization      48.0000000
 augmentation part      672.0000000 magnetization      48.0000000

 Free energy of the ion-electron system (eV)
  ---------------------------------------------------
  alpha Z        PSCENC =      2652.81237852
  Ewald energy   TEWEN  =    -41834.86193791
  -Hartree energ DENC   =    -25776.29859444
  -exchange      EXHF   =         0.00000000
  -V(xc)+E(xc)   XCENC  =      3606.00049418
  PAW double counting   =     55594.23204139   -59034.67079123
  entropy T*S    EENTRO =        -0.00000000
  eigenvalues    EBANDS =    -10282.03233519
  atomic energy  EATOM  =     73862.19814772
  Solvation  Ediel_sol  =         0.00000000
  ---------------------------------------------------
  free energy    TOTEN  =     -1212.62059697 eV

  energy without entropy =    -1212.62059697  energy(sigma->0) =    -1212.62059697


--------------------------------------------------------------------------------------------------------




--------------------------------------- Iteration      1(  10)  ---------------------------------------


    EDDIAG:  cpu time    4.3593: real time    4.7745
  RMM-DIIS:  cpu time   17.7809: real time   17.8165
    ORTHCH:  cpu time    1.1649: real time    1.2509
       DOS:  cpu time    0.0015: real time    0.0015
    --------------------------------------------
      LOOP:  cpu time   23.3066: real time   23.8435

 eigenvalue-minimisations  : 19723
 total energy-change (2. order) :-0.1883491E+01  (-0.5273963E+00)
 number of electron     672.0000000 magnetization      48.0000000
 augmentation part      672.0000000 magnetization      48.0000000

 Free energy of the ion-electron system (eV)
  ---------------------------------------------------
  alpha Z        PSCENC =      2652.81237852
  Ewald energy   TEWEN  =    -41834.86193791
  -Hartree energ DENC   =    -25776.29859444
  -exchange      EXHF   =         0.00000000
  -V(xc)+E(xc)   XCENC  =      3606.00049418
  PAW double counting   =     55594.23204139   -59034.67079123
  entropy T*S    EENTRO =        -0.00000000
  eigenvalues    EBANDS =    -10283.91582572
  atomic energy  EATOM  =     73862.19814772
  Solvation  Ediel_sol  =         0.00000000
  ---------------------------------------------------
  free energy    TOTEN  =     -1214.50408749 eV

  energy without entropy =    -1214.50408749  energy(sigma->0) =    -1214.50408749


--------------------------------------------------------------------------------------------------------




--------------------------------------- Iteration      1(  11)  ---------------------------------------


    EDDIAG:  cpu time    4.3538: real time    4.7755
  RMM-DIIS:  cpu time   19.6262: real time   19.6778
    ORTHCH:  cpu time    1.1632: real time    1.2491
       DOS:  cpu time    0.0023: real time    0.0023
    --------------------------------------------
      LOOP:  cpu time   25.1454: real time   25.7047

 eigenvalue-minimisations  : 22557
 total energy-change (2. order) : 0.6943649E-01  (-0.4357615E-01)
 number of electron     672.0000000 magnetization      48.0000000
 augmentation part      672.0000000 magnetization      48.0000000

 Free energy of the ion-electron system (eV)
  ---------------------------------------------------
  alpha Z        PSCENC =      2652.81237852
  Ewald energy   TEWEN  =    -41834.86193791
  -Hartree energ DENC   =    -25776.29859444
  -exchange      EXHF   =         0.00000000
  -V(xc)+E(xc)   XCENC  =      3606.00049418
  PAW double counting   =     55594.23204139   -59034.67079123
  entropy T*S    EENTRO =        -0.00000000
  eigenvalues    EBANDS =    -10283.84638922
  atomic energy  EATOM  =     73862.19814772
  Solvation  Ediel_sol  =         0.00000000
  ---------------------------------------------------
  free energy    TOTEN  =     -1214.43465100 eV

  energy without entropy =    -1214.43465100  energy(sigma->0) =    -1214.43465100


--------------------------------------------------------------------------------------------------------




--------------------------------------- Iteration      1(  12)  ---------------------------------------


    EDDIAG:  cpu time    4.3898: real time    4.7941
  RMM-DIIS:  cpu time   21.6153: real time   21.6733
    ORTHCH:  cpu time    1.1455: real time    1.2302
       DOS:  cpu time    0.0016: real time    0.0016
    CHARGE:  cpu time    1.7882: real time    1.7957
    MIXING:  cpu time    0.0021: real time    0.0023
    --------------------------------------------
      LOOP:  cpu time   28.9424: real time   29.4972

 eigenvalue-minimisations  : 24373
 total energy-change (2. order) :-0.8353611E-03  (-0.4393569E-02)
 number of electron     671.9999808 magnetization      47.9999948
 augmentation part      239.0513198 magnetization      29.0378971

 Broyden mixing:
  rms(total) = 0.12511E+02    rms(broyden)= 0.12502E+02
  rms(prec ) = 0.14372E+02
  weight for this iteration     100.00

 Free energy of the ion-electron system (eV)
  ---------------------------------------------------
  alpha Z        PSCENC =      2652.81237852
  Ewald energy   TEWEN  =    -41834.86193791
  -Hartree energ DENC   =    -25776.29859444
  -exchange      EXHF   =         0.00000000
  -V(xc)+E(xc)   XCENC  =      3606.00049418
  PAW double counting   =     55594.23204139   -59034.67079123
  entropy T*S    EENTRO =        -0.00000000
  eigenvalues    EBANDS =    -10283.84722458
  atomic energy  EATOM  =     73862.19814772
  Solvation  Ediel_sol  =         0.00000000
  ---------------------------------------------------
  free energy    TOTEN  =     -1214.43548636 eV

  energy without entropy =    -1214.43548636  energy(sigma->0) =    -1214.43548636


--------------------------------------------------------------------------------------------------------




--------------------------------------- Iteration      1(  13)  ---------------------------------------


    POTLOK:  cpu time    0.1714: real time    0.1714
    SETDIJ:  cpu time    4.9478: real time    4.9599
    EDDIAG:  cpu time    4.3637: real time    4.7755
  RMM-DIIS:  cpu time   17.3900: real time   17.4109
    ORTHCH:  cpu time    1.1499: real time    1.2312
       DOS:  cpu time    0.0014: real time    0.0014
    CHARGE:  cpu time    1.7554: real time    1.8305
    MIXING:  cpu time    0.0010: real time    0.0010
    --------------------------------------------
      LOOP:  cpu time   29.7806: real time   30.3820

 eigenvalue-minimisations  : 18786
 total energy-change (2. order) : 0.2273908E+03  (-0.1222338E+03)
 number of electron     671.9999736 magnetization      47.9999942
 augmentation part      269.3444924 magnetization      26.1399028

 Broyden mixing:
  rms(total) = 0.14064E+02    rms(broyden)= 0.14061E+02
  rms(prec ) = 0.15868E+02
  weight for this iteration     100.00

 eigenvalues of (default mixing * dielectric matrix)
  average eigenvalue GAMMA=   0.3167
  0.3167

 Free energy of the ion-electron system (eV)
  ---------------------------------------------------
  alpha Z        PSCENC =      2652.81237852
  Ewald energy   TEWEN  =    -41834.86193791
  -Hartree energ DENC   =    -25104.17756067
  -exchange      EXHF   =         0.00000000
  -V(xc)+E(xc)   XCENC  =      3696.02523232
  PAW double counting   =     59864.89052275   -63289.94057950
  entropy T*S    EENTRO =        -0.07662095
  eigenvalues    EBANDS =    -10833.91428211
  atomic energy  EATOM  =     73862.19814772
  Solvation  Ediel_sol  =         0.00000000
  ---------------------------------------------------
  free energy    TOTEN  =      -987.04469983 eV

  energy without entropy =     -986.96807887  energy(sigma->0) =     -987.00638935


--------------------------------------------------------------------------------------------------------




--------------------------------------- Iteration      1(  14)  ---------------------------------------


    POTLOK:  cpu time    0.1729: real time    0.1730
    SETDIJ:  cpu time    4.9452: real time    4.9461
    EDDIAG:  cpu time    4.3550: real time    4.7728
  RMM-DIIS:  cpu time   17.8077: real time   17.8204
    ORTHCH:  cpu time    1.1466: real time    1.2292
       DOS:  cpu time    0.0011: real time    0.0011
    CHARGE:  cpu time    1.7907: real time    1.8028
    MIXING:  cpu time    0.0011: real time    0.0011
    --------------------------------------------
      LOOP:  cpu time   30.2203: real time   30.7465

 eigenvalue-minimisations  : 19368
 total energy-change (2. order) : 0.7043590E+02  (-0.1846753E+02)
 number of electron     671.9999780 magnetization      47.9999906
 augmentation part      246.5027480 magnetization      32.1231131

 Broyden mixing:
  rms(total) = 0.52628E+01    rms(broyden)= 0.52586E+01
  rms(prec ) = 0.57123E+01
  weight for this iteration     100.00

 eigenvalues of (default mixing * dielectric matrix)
  average eigenvalue GAMMA=   0.7276
  1.0996  0.3555

 Free energy of the ion-electron system (eV)
  ---------------------------------------------------
  alpha Z        PSCENC =      2652.81237852
  Ewald energy   TEWEN  =    -41834.86193791
  -Hartree energ DENC   =    -25720.04521787
  -exchange      EXHF   =         0.00000000
  -V(xc)+E(xc)   XCENC  =      3673.03833188
  PAW double counting   =     63238.69045308   -66720.85026302
  entropy T*S    EENTRO =        -0.00000000
  eigenvalues    EBANDS =    -10067.59069425
  atomic energy  EATOM  =     73862.19814772
  Solvation  Ediel_sol  =         0.00000000
  ---------------------------------------------------
  free energy    TOTEN  =      -916.60880185 eV

  energy without entropy =     -916.60880185  energy(sigma->0) =     -916.60880185


--------------------------------------------------------------------------------------------------------




--------------------------------------- Iteration      1(  15)  ---------------------------------------


    POTLOK:  cpu time    0.1721: real time    0.1728
    SETDIJ:  cpu time    4.9548: real time    4.9563
    EDDIAG:  cpu time    4.3665: real time    4.7726
  RMM-DIIS:  cpu time   18.0729: real time   18.0864
    ORTHCH:  cpu time    1.1765: real time    1.2897
       DOS:  cpu time    0.0010: real time    0.0011
    CHARGE:  cpu time    1.7953: real time    1.8013
    MIXING:  cpu time    0.0009: real time    0.0009
    --------------------------------------------
      LOOP:  cpu time   30.5402: real time   31.0811

 eigenvalue-minimisations  : 20262
 total energy-change (2. order) : 0.1485528E+02  (-0.2210812E+01)
 number of electron     671.9999784 magnetization      47.9999879
 augmentation part      249.6652234 magnetization      33.8118386

 Broyden mixing:
  rms(total) = 0.21978E+01    rms(broyden)= 0.21975E+01
  rms(prec ) = 0.22847E+01
  weight for this iteration     100.00

 eigenvalues of (default mixing * dielectric matrix)
  average eigenvalue GAMMA=   0.9261
  1.6555  0.3802  0.7425

 Free energy of the ion-electron system (eV)
  ---------------------------------------------------
  alpha Z        PSCENC =      2652.81237852
  Ewald energy   TEWEN  =    -41834.86193791
  -Hartree energ DENC   =    -25638.78296156
  -exchange      EXHF   =         0.00000000
  -V(xc)+E(xc)   XCENC  =      3706.58583485
  PAW double counting   =     67297.60601110   -70819.83666508
  entropy T*S    EENTRO =        -0.00000000
  eigenvalues    EBANDS =    -10127.47432459
  atomic energy  EATOM  =     73862.19814772
  Solvation  Ediel_sol  =         0.00000000
  ---------------------------------------------------
  free energy    TOTEN  =      -901.75351694 eV

  energy without entropy =     -901.75351694  energy(sigma->0) =     -901.75351694


--------------------------------------------------------------------------------------------------------




--------------------------------------- Iteration      1(  16)  ---------------------------------------


    POTLOK:  cpu time    0.1687: real time    0.1697
    SETDIJ:  cpu time    5.0045: real time    5.0080
    EDDIAG:  cpu time    4.3567: real time    4.7724
  RMM-DIIS:  cpu time   17.4998: real time   17.5066
    ORTHCH:  cpu time    1.1539: real time    1.2590
       DOS:  cpu time    0.0011: real time    0.0011
    CHARGE:  cpu time    1.7976: real time    1.7982
    MIXING:  cpu time    0.0010: real time    0.0010
    --------------------------------------------
      LOOP:  cpu time   29.9833: real time   30.5159

 eigenvalue-minimisations  : 19146
 total energy-change (2. order) :-0.1465505E+01  (-0.6564017E+00)
 number of electron     671.9999775 magnetization      47.9999869
 augmentation part      251.1144708 magnetization      33.9051876

 Broyden mixing:
  rms(total) = 0.14953E+01    rms(broyden)= 0.14948E+01
  rms(prec ) = 0.15812E+01
  weight for this iteration     100.00

 eigenvalues of (default mixing * dielectric matrix)
  average eigenvalue GAMMA=   0.9654
  2.0655  0.8968  0.3863  0.5129

 Free energy of the ion-electron system (eV)
  ---------------------------------------------------
  alpha Z        PSCENC =      2652.81237852
  Ewald energy   TEWEN  =    -41834.86193791
  -Hartree energ DENC   =    -25589.52529797
  -exchange      EXHF   =         0.00000000
  -V(xc)+E(xc)   XCENC  =      3707.47531409
  PAW double counting   =     70124.87100265   -73675.82934845
  entropy T*S    EENTRO =        -0.00000000
  eigenvalues    EBANDS =    -10150.35928011
  atomic energy  EATOM  =     73862.19814772
  Solvation  Ediel_sol  =         0.00000000
  ---------------------------------------------------
  free energy    TOTEN  =      -903.21902146 eV

  energy without entropy =     -903.21902146  energy(sigma->0) =     -903.21902146


--------------------------------------------------------------------------------------------------------




--------------------------------------- Iteration      1(  17)  ---------------------------------------


    POTLOK:  cpu time    0.1721: real time    0.1729
    SETDIJ:  cpu time    5.0121: real time    5.0136
    EDDIAG:  cpu time    4.3445: real time    4.7677
  RMM-DIIS:  cpu time   18.5507: real time   18.6557
    ORTHCH:  cpu time    1.1461: real time    1.2287
       DOS:  cpu time    0.0013: real time    0.0013
    CHARGE:  cpu time    1.7941: real time    1.7972
    MIXING:  cpu time    0.0020: real time    0.0020
    --------------------------------------------
      LOOP:  cpu time   31.0230: real time   31.6392

 eigenvalue-minimisations  : 20703
 total energy-change (2. order) : 0.9930994E-01  (-0.7864543E-01)
 number of electron     671.9999779 magnetization      47.9999863
 augmentation part      251.1321197 magnetization      33.9116489

 Broyden mixing:
  rms(total) = 0.80160E+00    rms(broyden)= 0.80142E+00
  rms(prec ) = 0.90627E+00
  weight for this iteration     100.00

 eigenvalues of (default mixing * dielectric matrix)
  average eigenvalue GAMMA=   0.9831
  2.2100  1.1058  0.3760  0.6703  0.5532

 Free energy of the ion-electron system (eV)
  ---------------------------------------------------
  alpha Z        PSCENC =      2652.81237852
  Ewald energy   TEWEN  =    -41834.86193791
  -Hartree energ DENC   =    -25578.64680448
  -exchange      EXHF   =         0.00000000
  -V(xc)+E(xc)   XCENC  =      3704.91660219
  PAW double counting   =     71058.55512877   -74618.64303650
  entropy T*S    EENTRO =        -0.00000000
  eigenvalues    EBANDS =    -10149.45018983
  atomic energy  EATOM  =     73862.19814772
  Solvation  Ediel_sol  =         0.00000000
  ---------------------------------------------------
  free energy    TOTEN  =      -903.11971152 eV

  energy without entropy =     -903.11971152  energy(sigma->0) =     -903.11971152


--------------------------------------------------------------------------------------------------------




--------------------------------------- Iteration      1(  18)  ---------------------------------------


    POTLOK:  cpu time    0.1678: real time    0.1693
    SETDIJ:  cpu time    5.0087: real time    5.0122
    EDDIAG:  cpu time    4.3532: real time    4.7642
  RMM-DIIS:  cpu time   17.5722: real time   17.6200
    ORTHCH:  cpu time    1.1440: real time    1.2286
       DOS:  cpu time    0.0014: real time    0.0014
    CHARGE:  cpu time    1.7962: real time    1.7975
    MIXING:  cpu time    0.0012: real time    0.0012
    --------------------------------------------
      LOOP:  cpu time   30.0448: real time   30.5943

 eigenvalue-minimisations  : 19077
 total energy-change (2. order) : 0.4251306E+00  (-0.6903149E-01)
 number of electron     671.9999778 magnetization      47.9999861
 augmentation part      250.6435430 magnetization      33.8835190

 Broyden mixing:
  rms(total) = 0.31735E+00    rms(broyden)= 0.31713E+00
  rms(prec ) = 0.33618E+00
  weight for this iteration     100.00

 eigenvalues of (default mixing * dielectric matrix)
  average eigenvalue GAMMA=   1.0119
  2.4386  1.3652  0.8435  0.5933  0.3779  0.4528

[...]
   4      -0.692    -0.879     1.571     0.207    -0.011     0.037
   5      -0.956    -0.991     1.948    -0.139    -0.052     0.028
   6      -0.973    -0.811     1.784    -0.071     0.028    -0.015
   7      -1.024    -0.993     2.016    -0.092    -0.042    -0.041
   8      -0.767    -1.083     1.850    -0.031    -0.013    -0.001
   9      -0.634    -0.769     1.403     0.150     0.012     0.086
  10      -0.761    -0.855     1.615    -0.291     0.030    -0.063
  11      -0.596    -0.746     1.342     0.171    -0.056    -0.058
  12      -0.807    -0.520     1.326     0.056    -0.065     0.036
  13      -0.956    -0.984     1.940    -0.084     0.019     0.052
  14      -0.922    -0.536     1.458     0.011    -0.034     0.066
  15      -0.868    -0.586     1.453     0.006     0.130     0.000
  16      -0.852    -1.030     1.882     0.175    -0.048     0.051
  17       1.506     1.434    -2.941     0.004     0.058     0.070
  18       1.493     1.430    -2.922    -0.013    -0.137     0.089
  19       1.667     1.344    -3.011    -0.088    -0.183     0.115
  20       1.585     1.453    -3.038    -0.120     0.132    -0.035
  21       1.502     1.391    -2.893    -0.001     0.081    -0.129
  22       1.486     1.367    -2.853     0.076     0.017     0.058
  23       1.397     1.547    -2.944     0.084    -0.071     0.013
  24       1.376     1.653    -3.028    -0.039    -0.012    -0.052
  25      -0.484     0.410     0.075     0.873     0.630    -0.672
  26      -0.953    -0.124     1.077    -0.982    -0.057     1.201
  27      -0.629     0.017     0.611     0.041     1.036     0.046
  28       0.557    -0.918     0.361    -0.952    -0.435    -0.573
  29       0.582    -1.412     0.830     0.070    -0.235    -1.538
  30      -0.066    -1.862     1.928    -0.643    -0.892     0.388
  31       0.177     0.198    -0.376    -0.134    -0.080     1.166
  32      -0.773    -1.065     1.838     0.254    -0.028    -0.959
  33      -0.811     0.299     0.512    -0.074    -1.126     1.295
  34       0.966     1.034    -2.000    -1.011     0.346     0.240
  35      -1.107    -1.198     2.305    -1.081     0.060     0.401
  36      -0.021     0.398    -0.377     1.264     0.484     1.157
  37      -1.083     0.009     1.074     0.994     0.008     0.116
  38      -0.705    -0.111     0.816     1.076    -0.861    -0.781
  39      -1.541     1.299     0.242     1.071     0.419     0.048
  40       0.318     0.105    -0.423    -0.219    -1.199     0.821
  41      -2.683     3.384    -0.701    -4.219     4.093    -3.103
  42      -2.973     4.258    -1.285     4.269     2.402     2.285
  43       4.628    -5.018     0.390    -0.907    -5.215     1.260
  44      -2.557     1.738     0.819    -5.050    -2.791     4.475
  45       4.266    -5.609     1.343     0.562     4.222    -0.738
  46      -3.201     0.805     2.396     3.986    -1.766    -3.963
  47      -3.706     0.244     3.462    -4.720     2.887    -4.561
  48       3.390    -6.264     2.875     0.378    -4.297     2.555
  49      -3.035     1.123     1.912     3.356     0.697     4.894
  50      -2.825     3.765    -0.940    -5.041    -2.120     2.667
  51      -3.468     3.271     0.198     4.158    -2.422    -3.373
  52       4.641    -5.594     0.953    -0.224     4.359    -1.569
  53      -3.493     2.556     0.937    -4.275     3.344    -3.741
  54      -1.772     2.051    -0.279     4.769     2.984     2.629
  55       3.261    -6.272     3.011     1.088    -5.223     0.777
  56      -1.871     1.756     0.115    -4.565    -1.555     5.030
  57       5.212    -5.620     0.408    -1.572     4.927    -1.342
  58      -1.691     1.347     0.344     5.655    -3.006    -4.242
  59      -2.350     0.524     1.825    -4.680     1.143    -5.180
  60       6.342    -6.435     0.093    -0.163    -5.617    -0.077
  61      -2.420     1.055     1.365     5.405     2.383     4.775
  62      -5.088     3.204     1.884    -3.781    -3.435     2.636
  63      -3.083     1.363     1.720     5.127    -3.108    -3.610
  64       2.085    -6.095     4.010    -0.063     5.098    -1.600
  65      -1.620     2.669    -1.049    -6.977     0.899    -4.952
  66      -4.272     2.720     1.552     4.066     4.326     3.605
  67       4.379    -4.832     0.453    -0.345    -3.307    -0.700
  68      -2.712     2.191     0.522    -4.571    -1.852     5.402
  69       5.111    -7.106     1.996     1.346     4.624     0.698
  70      -2.921     4.291    -1.369     4.946    -3.001    -3.281
  71      -3.310     3.545    -0.235    -5.205     2.580    -2.878
  72       6.883    -6.230    -0.652     0.448    -4.244    -0.291
  73      -2.458     3.604    -1.146     6.234     1.655     3.965
  74      -3.728     1.193     2.535    -5.836    -1.341     5.961
  75      -3.063     4.419    -1.356     5.655    -1.717    -3.205
  76       5.157    -5.177     0.020     0.469     5.215    -0.299
  77      -4.160     2.898     1.262    -4.196     0.666    -4.825
  78      -2.304     1.537     0.767     7.228     2.347     4.496
  79       3.539    -6.622     3.082     0.364    -5.353     0.382
  80      -3.683     2.091     1.593    -5.529    -1.972     3.549
  81       6.286    -6.238    -0.048    -1.050     4.676     1.737
  82      -4.497     3.664     0.833     3.583    -2.509    -4.138
  83      -3.570     4.345    -0.775    -3.287     1.546    -3.255
  84       6.297    -6.202    -0.095    -1.256    -5.204    -1.150
  85      -2.682     2.557     0.125     4.977     3.249     3.848
  86      -2.909     3.083    -0.174    -4.124    -2.390     4.442
  87      -4.820     3.456     1.364     4.873    -2.788    -5.444
  88       6.288    -5.137    -1.151     1.436     3.938    -0.210
 ---------------------------------------------------------------------


 Total hyperfine coupling parameters after diagonalization (MHz)
 (convention: |A_zz| > |A_xx| > |A_yy|)
 ----------------------------------------------------------------------
  ion      A_xx      A_yy      A_zz     asymmetry (A_yy - A_xx)/ A_zz 
 ----------------------------------------------------------------------
   1       1.429     1.037     3.100      -0.126
   2       2.160     1.776     4.249      -0.090
   3       1.337     0.731     3.690      -0.164
   4       2.380     1.925     4.510      -0.101
   5      -0.314    -0.035     2.749       0.101
   6       0.351     0.137     2.921      -0.073
   7      -0.931    -0.744     2.188       0.085
   8       0.737     0.416     3.351      -0.096
   9       1.868     1.539     3.814      -0.086
  10       1.757     1.170     3.890      -0.151
  11       2.440     2.070     4.274      -0.087
  12       0.966     0.656     2.805      -0.111
  13      -0.326    -0.155     2.670       0.064
  14       2.566     2.181     4.564      -0.084
  15       2.081     1.791     4.127      -0.070
  16       0.812     0.418     3.440      -0.114
  17      13.923     9.545    13.996      -0.313
  18      13.039     8.682    13.111      -0.332
  19      15.078    10.735    15.454      -0.281
  20      14.958    10.534    15.237      -0.290
  21      13.969     9.676    14.077      -0.305
  22      12.633     8.449    12.826      -0.326
  23      14.670    10.365    14.894      -0.289
  24      15.107    10.708    15.396      -0.286
  25      98.410    96.414    98.980      -0.020
  26      95.115    93.526    97.229      -0.016
  27      97.589    96.359    98.776      -0.012
  28      93.302    91.094    93.792      -0.024
  29      94.907    92.184    96.045      -0.028
  30      97.236    95.447    99.871      -0.018
  31      94.833    93.391    95.818      -0.015
  32      97.915    97.171   100.737      -0.007
  33      98.572    97.213   100.889      -0.013
  34      96.371    94.216    98.312      -0.022
  35      99.705    97.539   102.149      -0.021
  36      97.013    96.320    99.765      -0.007
  37     102.318   100.072   102.840      -0.022
  38      93.760    92.574    96.037      -0.012
  39      97.334    95.083    98.729      -0.023
  40      99.166    97.696   100.731      -0.015
  41       5.748     1.449    15.740      -0.273
  42       3.883     0.433    13.186      -0.262
  43       4.089     1.770    15.376      -0.151
  44       3.676     0.508    15.044      -0.211
  45       6.261     1.901    14.990      -0.291
  46       3.903    -0.361    12.516      -0.341
  47       6.383     1.505    17.176      -0.284
  48       9.055     2.328    17.093      -0.394
  49       4.224     0.364    13.116      -0.294
  50       5.879     2.374    15.805      -0.222
  51       4.218     0.603    13.722      -0.263
  52       2.969    -1.454    12.181      -0.363
  53       4.234     0.282    14.427      -0.274
  54       6.432     3.144    15.684      -0.210
  55       5.608     0.664    15.683      -0.315
  56       4.057     0.818    14.591      -0.222
  57       4.316     1.018    15.546      -0.212
  58       3.526     0.307    15.199      -0.212
  59       5.262     0.135    14.703      -0.349
  60       3.369     0.129    16.217      -0.200
  61       4.312     0.068    15.336      -0.277
  62       8.344     1.311    15.853      -0.444
  63       5.928     1.101    15.799      -0.306
  64       4.071    -0.433    14.341      -0.314
  65       6.109     0.477    17.939      -0.314
  66       6.352     0.751    16.329      -0.343
  67       6.696     2.954    14.218      -0.263
  68       4.629     1.685    16.298      -0.181
  69       6.270     0.330    16.163      -0.367
  70       6.338     3.204    17.754      -0.177
  71       5.036     0.536    14.880      -0.302
  72       4.961     1.268    16.327      -0.226
  73       7.823     4.104    19.823      -0.188
  74       7.545     0.949    18.881      -0.349
  75       6.746     3.305    18.173      -0.189
  76       3.443     1.244    14.953      -0.147
  77       5.297     0.455    15.015      -0.322
  78       6.729     0.640    18.465      -0.330
  79       4.280    -0.415    14.936      -0.314
  80       7.513     1.446    16.491      -0.368
  81       6.724     1.229    17.128      -0.321
  82       5.829     1.941    16.090      -0.242
  83       4.139     1.694    13.650      -0.179
  84       6.552     1.994    18.113      -0.252
  85       3.976     0.795    15.170      -0.210
  86       3.652     1.836    15.068      -0.120
  87       4.098    -0.047    17.064      -0.243
  88       4.141     1.299    14.872      -0.191
 ---------------------------------------------------------------------



--------------------------------------------------------------------------------------------------------


 stress matrix after NEB project (eV)
    -47.53935      2.04130      0.17907
      2.04635    -46.59857     -0.69761
      0.17724     -0.67136    -60.04743
  FORCES: max atom, RMS     2.005933    1.046559
  FORCE total and by dimension    9.817590    1.813539
  Stress total and by dimension   89.702092   60.047431
     LOOP+:  cpu time  817.4229: real time  833.6962
    4ORBIT:  cpu time    0.0000: real time    0.0000
 


 total charge     
 
# of ion       s       p       d       tot
------------------------------------------
    1        0.048   5.990   0.000   6.039
    2        0.050   5.992   0.000   6.042
    3        0.056   6.001   0.000   6.057
    4        0.049   5.991   0.000   6.040
    5        0.050   5.994   0.000   6.045
    6        0.050   5.993   0.000   6.043
    7        0.049   5.992   0.000   6.041
    8        0.053   5.997   0.000   6.051
    9        0.047   5.989   0.000   6.036
   10        0.055   5.999   0.000   6.054
   11        0.044   5.986   0.000   6.030
   12        0.048   5.991   0.000   6.039
   13        0.053   5.997   0.000   6.050
   14        0.048   5.990   0.000   6.038
   15        0.052   5.995   0.000   6.048
   16        0.051   5.995   0.000   6.046
   17        0.151   6.133   0.088   6.371
   18        0.150   6.131   0.086   6.367
   19        0.151   6.133   0.088   6.372
   20        0.151   6.133   0.088   6.372
   21        0.146   6.123   0.080   6.348
   22        0.145   6.121   0.078   6.345
   23        0.147   6.125   0.083   6.355
   24        0.150   6.131   0.087   6.368
   25        0.383   6.471   4.853  11.707
   26        0.377   6.455   4.834  11.666
   27        0.374   6.453   4.823  11.650
   28        0.383   6.470   4.838  11.691
   29        0.373   6.452   4.820  11.645
   30        0.385   6.474   4.851  11.710
   31        0.376   6.454   4.833  11.662
   32        0.368   6.440   4.813  11.621
   33        0.377   6.456   4.839  11.672
   34        0.385   6.480   4.857  11.722
   35        0.372   6.441   4.832  11.645
   36        0.372   6.448   4.822  11.641
   37        0.360   6.420   4.801  11.580
   38        0.378   6.457   4.833  11.668
   39        0.377   6.458   4.832  11.667
   40        0.368   6.439   4.817  11.623
   41        1.600   3.495   0.000   5.095
   42        1.598   3.478   0.000   5.075
   43        1.600   3.518   0.000   5.118
   44        1.599   3.483   0.000   5.082
   45        1.596   3.498   0.000   5.094
   46        1.597   3.504   0.000   5.100
   47        1.602   3.544   0.000   5.146
   48        1.598   3.510   0.000   5.107
   49        1.595   3.495   0.000   5.090
   50        1.600   3.504   0.000   5.104
   51        1.598   3.507   0.000   5.105
   52        1.597   3.510   0.000   5.108
   53        1.599   3.501   0.000   5.101
   54        1.596   3.531   0.000   5.127
   55        1.599   3.526   0.000   5.125
   56        1.601   3.514   0.000   5.115
   57        1.601   3.494   0.000   5.095
   58        1.598   3.494   0.000   5.092
   59        1.600   3.520   0.000   5.119
   60        1.601   3.497   0.000   5.098
   61        1.599   3.504   0.000   5.104
   62        1.597   3.495   0.000   5.092
   63        1.598   3.532   0.000   5.129
   64        1.599   3.514   0.000   5.114
   65        1.604   3.500   0.000   5.104
   66        1.599   3.518   0.000   5.117
   67        1.598   3.535   0.000   5.133
   68        1.599   3.487   0.000   5.087
   69        1.599   3.514   0.000   5.114
   70        1.599   3.496   0.000   5.095
   71        1.599   3.508   0.000   5.108
   72        1.602   3.488   0.000   5.090
   73        1.600   3.515   0.000   5.115
   74        1.603   3.509   0.000   5.112
   75        1.599   3.495   0.000   5.093
   76        1.598   3.503   0.000   5.101
   77        1.595   3.480   0.000   5.075
   78        1.601   3.503   0.000   5.104
   79        1.598   3.507   0.000   5.106
   80        1.599   3.517   0.000   5.116
   81        1.603   3.487   0.000   5.090
   82        1.598   3.503   0.000   5.102
   83        1.598   3.509   0.000   5.107
   84        1.600   3.479   0.000   5.079
   85        1.599   3.516   0.000   5.115
   86        1.598   3.500   0.000   5.098
   87        1.602   3.493   0.000   5.094
   88        1.599   3.489   0.000   5.088
--------------------------------------------------
tot         84.759 416.412  77.975 579.146
 


 magnetization (x)
 
# of ion       s       p       d       tot
------------------------------------------
    1        0.001   0.000   0.000   0.001
    2        0.002   0.000   0.000   0.002
    3        0.001   0.000   0.000   0.002
    4        0.002   0.000   0.000   0.002
    5        0.001   0.000   0.000   0.001
    6        0.001   0.000   0.000   0.001
    7        0.000   0.000   0.000   0.000
    8        0.001   0.001   0.000   0.002
    9        0.002   0.000   0.000   0.002
   10        0.002   0.000   0.000   0.002
   11        0.002   0.001   0.000   0.003
   12        0.001  -0.000   0.000   0.001
   13        0.001   0.000   0.000   0.001
   14        0.002   0.000   0.000   0.003
   15        0.002   0.000   0.000   0.002
   16        0.001   0.001   0.000   0.002
   17        0.007   0.002   0.001   0.010
   18        0.006   0.002   0.001   0.009
   19        0.008   0.003   0.001   0.011
   20        0.008   0.003   0.001   0.011
   21        0.007   0.002   0.001   0.010
   22        0.006   0.001   0.001   0.009
   23        0.007   0.002   0.001   0.011
   24        0.008   0.003   0.001   0.012
   25        0.016   0.031   2.731   2.777
   26        0.015   0.029   2.753   2.797
   27        0.016   0.031   2.758   2.804
   28        0.014   0.030   2.733   2.777
   29        0.015   0.029   2.758   2.802
   30        0.015   0.030   2.743   2.789
   31        0.015   0.029   2.752   2.795
   32        0.016   0.030   2.779   2.825
   33        0.016   0.031   2.756   2.803
   34        0.016   0.032   2.721   2.768
   35        0.016   0.029   2.763   2.808
   36        0.015   0.030   2.763   2.808
   37        0.016   0.030   2.805   2.851
   38        0.015   0.030   2.742   2.786
   39        0.016   0.030   2.751   2.797
   40        0.016   0.030   2.766   2.812
   41        0.002   0.026   0.000   0.028
   42        0.002   0.014   0.000   0.016
   43        0.002   0.032   0.000   0.034
   44        0.002   0.022   0.000   0.024
   45        0.002   0.034   0.000   0.036
   46        0.001   0.023   0.000   0.024
   47        0.002   0.053   0.000   0.055
   48        0.002   0.046   0.000   0.048
   49        0.002   0.024   0.000   0.026
   50        0.002   0.037   0.000   0.039
   51        0.002   0.022   0.000   0.024
   52        0.001   0.016   0.000   0.017
   53        0.002   0.022   0.000   0.023
   54        0.002   0.047   0.000   0.049
   55        0.002   0.036   0.000   0.038
   56        0.002   0.018   0.000   0.020
   57        0.002   0.024   0.000   0.026
   58        0.002   0.026   0.000   0.028
   59        0.002   0.033   0.000   0.035
   60        0.002   0.021   0.000   0.023
   61        0.002   0.027   0.000   0.029
   62        0.002   0.041   0.000   0.043
   63        0.002   0.039   0.000   0.041
   64        0.002   0.026   0.000   0.028
   65        0.002   0.036   0.000   0.039
   66        0.002   0.037   0.000   0.039
   67        0.002   0.043   0.000   0.045
   68        0.002   0.027   0.000   0.029
   69        0.002   0.042   0.000   0.044
   70        0.002   0.046   0.000   0.049
   71        0.002   0.030   0.000   0.032
   72        0.002   0.030   0.000   0.033
   73        0.003   0.056   0.000   0.059
   74        0.002   0.052   0.000   0.054
   75        0.002   0.048   0.000   0.051
   76        0.002   0.027   0.000   0.029
   77        0.002   0.022   0.000   0.024
   78        0.002   0.050   0.000   0.052
   79        0.002   0.027   0.000   0.029
   80        0.002   0.044   0.000   0.046
   81        0.002   0.035   0.000   0.038
   82        0.002   0.035   0.000   0.037
   83        0.002   0.022   0.000   0.024
   84        0.002   0.043   0.000   0.046
   85        0.002   0.027   0.000   0.029
   86        0.002   0.030   0.000   0.032
   87        0.002   0.028   0.000   0.030
   88        0.002   0.020   0.000   0.022
--------------------------------------------------
tot          0.420   2.074  44.083  46.578
 

 total amount of memory used by VASP MPI-rank0    94440. kBytes
=======================================================================

   base      :      30000. kBytes
   nonlr-proj:      13681. kBytes
   fftplans  :       1275. kBytes
   grid      :      22786. kBytes
   one-center:       2737. kBytes
   wavefun   :      23961. kBytes
 
  
  
 General timing and accounting informations for this job:
 ========================================================
  
                  Total CPU time used (sec):      838.445
                            User time (sec):      829.725
                          System time (sec):        8.720
                         Elapsed time (sec):      857.231
  
                   Maximum memory used (kb):      193412.
                   Average memory used (kb):           0.
  
                          Minor page faults:       295152
                          Major page faults:            0
                 Voluntary context switches:       274482
