 vasp.5.4.4.18Apr17-6-g9f103f2a35 (build Dec 02 2020 12:53:39) complex          
  
 executed on             LinuxIFC date 2021.08.03  07:09:42
 running on   96 total cores
 distrk:  each k-point on   96 cores,    1 groups
 distr:  one band on NCORES_PER_BAND=   1 cores,   96 groups


--------------------------------------------------------------------------------------------------------


 INCAR:
 POTCAR:    PAW_PBE Na_pv 19Sep2006               
 POTCAR:    PAW_PBE Mg_pv 13Apr2007               
 POTCAR:    PAW_PBE Mn_pv 02Aug2007               
 POTCAR:    PAW_PBE O 08Apr2002                   

 ----------------------------------------------------------------------------- 
|                                                                             |
|           W    W    AA    RRRRR   N    N  II  N    N   GGGG   !!!           |
|           W    W   A  A   R    R  NN   N  II  NN   N  G    G  !!!           |
|           W    W  A    A  R    R  N N  N  II  N N  N  G       !!!           |
|           W WW W  AAAAAA  RRRRR   N  N N  II  N  N N  G  GGG   !            |
|           WW  WW  A    A  R   R   N   NN  II  N   NN  G    G                |
|           W    W  A    A  R    R  N    N  II  N    N   GGGG   !!!           |
|                                                                             |
|      For optimal performance we recommend to set                            |
|        NCORE= 4 - approx SQRT( number of cores)                             |
|      NCORE specifies how many cores store one orbital (NPAR=cpu/NCORE).     |
|      This setting can  greatly improve the performance of VASP for DFT.     |
|      The default,   NCORE=1            might be grossly inefficient         |
|      on modern multi-core architectures or massively parallel machines.     |
|      Do your own testing !!!!                                               |
|      Unfortunately you need to use the default for GW and RPA calculations. |
|      (for HF NCORE is supported but not extensively tested yet)             |
|                                                                             |
 ----------------------------------------------------------------------------- 

 POTCAR:    PAW_PBE Na_pv 19Sep2006               
   VRHFIN =Na: p6s1                                                             
   LEXCH  = PE                                                                  
   EATOM  =   766.0439 eV,   56.3026 Ry                                         
                                                                                
   TITEL  = PAW_PBE Na_pv 19Sep2006                                             
   LULTRA =        F    use ultrasoft PP ?                                      
   IUNSCR =        1    unscreen: 0-lin 1-nonlin 2-no                           
   RPACOR =    1.800    partial core radius                                     
   POMASS =   22.990; ZVAL   =    7.000    mass and valenz                      
   RCORE  =    2.200    outmost cutoff radius                                   
   RWIGS  =    2.200; RWIGS  =    1.164    wigner-seitz radius (au A)           
   ENMAX  =  259.561; ENMIN  =  194.671 eV                                      
   ICORE  =        2    local potential                                         
   LCOR   =        T    correct aug charges                                     
   LPAW   =        T    paw PP                                                  
   EAUG   =  368.056                                                            
   DEXC   =    0.000                                                            
   RMAX   =    2.245    core radius for proj-oper                               
   RAUG   =    1.300    factor for augmentation sphere                          
   RDEP   =    2.259    radius for radial grids                                 
   RDEPT  =    1.738    core radius for aug-charge                              
                                                                                
   Atomic configuration                                                         
    5 entries                                                                   
     n  l   j            E        occ.                                          
     1  0  0.50     -1033.6933   2.0000                                         
     2  0  0.50       -56.7526   2.0000                                         
     2  1  1.50       -28.6721   6.0000                                         
     3  0  0.50        -2.7440   1.0000                                         
     3  2  1.50        -1.3606   0.0000                                         
   Description                                                                  
     l       E           TYP  RCUT    TYP  RCUT                                 
     1    -28.6720912     23  2.000                                             
     1      6.8029130     23  2.000                                             
     0     -2.7439560     23  2.200                                             
     0     34.0145650     23  2.200                                             
     2     -1.3605826     23  2.200                                             
  local pseudopotential read in
  partial core-charges read in
  partial kinetic energy density read in
  atomic valenz-charges read in
  non local Contribution for L=           1  read in
    real space projection operators read in
  non local Contribution for L=           1  read in
    real space projection operators read in
  non local Contribution for L=           0  read in
    real space projection operators read in
  non local Contribution for L=           0  read in
    real space projection operators read in
    PAW grid and wavefunctions read in
 
   number of l-projection  operators is LMAX  =           4
   number of lm-projection operators is LMMAX =           8
 
 POTCAR:    PAW_PBE Mg_pv 13Apr2007               
   VRHFIN =Mg: p6s2                                                             
   LEXCH  = PE                                                                  
   EATOM  =  1056.7344 eV,   77.6678 Ry                                         
                                                                                
   TITEL  = PAW_PBE Mg_pv 13Apr2007                                             
   LULTRA =        F    use ultrasoft PP ?                                      
   IUNSCR =        1    unscreen: 0-lin 1-nonlin 2-no                           
   RPACOR =    1.500    partial core radius                                     
   POMASS =   24.305; ZVAL   =    8.000    mass and valenz                      
   RCORE  =    2.000    outmost cutoff radius                                   
   RWIGS  =    2.000; RWIGS  =    1.058    wigner-seitz radius (au A)           
   ENMAX  =  403.929; ENMIN  =  302.947 eV                                      
   RCLOC  =    1.506    cutoff for local pot                                    
   LCOR   =        T    correct aug charges                                     
   LPAW   =        T    paw PP                                                  
   EAUG   =  758.780                                                            
   DEXC   =    0.000                                                            
   RMAX   =    2.045    core radius for proj-oper                               
   RAUG   =    1.300    factor for augmentation sphere                          
   RDEP   =    2.025    radius for radial grids                                 
   RDEPT  =    1.557    core radius for aug-charge                              
                                                                                
   Atomic configuration                                                         
    5 entries                                                                   
     n  l   j            E        occ.                                          
     1  0  0.50     -1259.6230   2.0000                                         
     2  0  0.50       -79.8442   2.0000                                         
     2  1  1.50       -46.6121   6.0000                                         
     3  0  0.50        -4.7055   2.0000                                         
     3  2  1.50        -1.3606   0.0000                                         
   Description                                                                  
     l       E           TYP  RCUT    TYP  RCUT                                 
     1    -46.6121073     23  1.600                                             
     1      2.7211652     23  1.600                                             
     0     -4.7054661     23  2.000                                             
     0     61.2262170     23  2.000                                             
     2     -1.3605826     23  2.000                                             
  local pseudopotential read in
  partial core-charges read in
  partial kinetic energy density read in
  atomic valenz-charges read in
  non local Contribution for L=           1  read in
    real space projection operators read in
  non local Contribution for L=           1  read in
    real space projection operators read in
  non local Contribution for L=           0  read in
    real space projection operators read in
  non local Contribution for L=           0  read in
    real space projection operators read in
  non local Contribution for L=           2  read in
    real space projection operators read in
    PAW grid and wavefunctions read in
 
   number of l-projection  operators is LMAX  =           5
   number of lm-projection operators is LMMAX =          13
 
 POTCAR:    PAW_PBE Mn_pv 02Aug2007               
   VRHFIN =Mn: 3p4s3d                                                           
   LEXCH  = PE                                                                  
   EATOM  =  2025.2664 eV,  148.8529 Ry                                         
                                                                                
   TITEL  = PAW_PBE Mn_pv 02Aug2007                                             
   LULTRA =        F    use ultrasoft PP ?                                      
   IUNSCR =        1    unscreen: 0-lin 1-nonlin 2-no                           
   RPACOR =    2.080    partial core radius                                     
   POMASS =   54.938; ZVAL   =   13.000    mass and valenz                      
   RCORE  =    2.300    outmost cutoff radius                                   
   RWIGS  =    2.500; RWIGS  =    1.323    wigner-seitz radius (au A)           
   ENMAX  =  269.864; ENMIN  =  202.398 eV                                      
   ICORE  =        3    local potential                                         
   LCOR   =        T    correct aug charges                                     
   LPAW   =        T    paw PP                                                  
   EAUG   =  569.085                                                            
   DEXC   =    0.000                                                            
   RMAX   =    2.343    core radius for proj-oper                               
   RAUG   =    1.300    factor for augmentation sphere                          
   RDEP   =    2.338    radius for radial grids                                 
   RDEPT  =    1.798    core radius for aug-charge                              
                                                                                
   Atomic configuration                                                         
    8 entries                                                                   
     n  l   j            E        occ.                                          
     1  0  0.50     -6424.8287   2.0000                                         
     2  0  0.50      -739.1154   2.0000                                         
     2  1  1.50      -625.3949   6.0000                                         
     3  0  0.50       -81.6100   2.0000                                         
     3  1  1.50       -50.4667   6.0000                                         
     3  2  2.50        -3.3745   6.0000                                         
     4  0  0.50        -4.1331   1.0000                                         
     4  3  2.50        -1.3606   0.0000                                         
   Description                                                                  
     l       E           TYP  RCUT    TYP  RCUT                                 
     1    -50.4666628     23  2.000                                             
     1     -1.3605826     23  2.000                                             
     2     -3.3744729     23  2.300                                             
     2     -4.7350555     23  2.300                                             
     0     -4.1331431     23  2.300                                             
     0      7.6656591     23  2.300                                             
     3      9.5240782     23  2.300                                             
  local pseudopotential read in
  partial core-charges read in
  partial kinetic energy density read in
  atomic valenz-charges read in
  non local Contribution for L=           1  read in
    real space projection operators read in
  non local Contribution for L=           1  read in
    real space projection operators read in
  non local Contribution for L=           2  read in
    real space projection operators read in
  non local Contribution for L=           2  read in
    real space projection operators read in
  non local Contribution for L=           0  read in
    real space projection operators read in
  non local Contribution for L=           0  read in
    real space projection operators read in
    PAW grid and wavefunctions read in
 
   number of l-projection  operators is LMAX  =           6
   number of lm-projection operators is LMMAX =          18
 
 POTCAR:    PAW_PBE O 08Apr2002                   
   VRHFIN =O: s2p4                                                              
   LEXCH  = PE                                                                  
   EATOM  =   432.3788 eV,   31.7789 Ry                                         
                                                                                
   TITEL  = PAW_PBE O 08Apr2002                                                 
   LULTRA =        F    use ultrasoft PP ?                                      
   IUNSCR =        1    unscreen: 0-lin 1-nonlin 2-no                           
   RPACOR =    1.200    partial core radius                                     
   POMASS =   16.000; ZVAL   =    6.000    mass and valenz                      
   RCORE  =    1.520    outmost cutoff radius                                   
   RWIGS  =    1.550; RWIGS  =    0.820    wigner-seitz radius (au A)           
   ENMAX  =  400.000; ENMIN  =  300.000 eV                                      
   ICORE  =        2    local potential                                         
   LCOR   =        T    correct aug charges                                     
   LPAW   =        T    paw PP                                                  
   EAUG   =  605.392                                                            
   DEXC   =    0.000                                                            
   RMAX   =    1.553    core radius for proj-oper                               
   RAUG   =    1.300    factor for augmentation sphere                          
   RDEP   =    1.550    radius for radial grids                                 
   RDEPT  =    1.329    core radius for aug-charge                              
                                                                                
   Atomic configuration                                                         
    4 entries                                                                   
     n  l   j            E        occ.                                          
     1  0  0.50      -514.6923   2.0000                                         
     2  0  0.50       -23.9615   2.0000                                         
     2  1  0.50        -9.0305   4.0000                                         
     3  2  1.50        -9.5241   0.0000                                         
   Description                                                                  
     l       E           TYP  RCUT    TYP  RCUT                                 
     0    -23.9615318     23  1.200                                             
     0     -9.5240782     23  1.200                                             
     1     -9.0304911     23  1.520                                             
     1      8.1634956     23  1.520                                             
     2     -9.5240782      7  1.500                                             
  local pseudopotential read in
  partial core-charges read in
  partial kinetic energy density read in
  kinetic energy density of atom read in
  atomic valenz-charges read in
  non local Contribution for L=           0  read in
    real space projection operators read in
  non local Contribution for L=           0  read in
    real space projection operators read in
  non local Contribution for L=           1  read in
    real space projection operators read in
  non local Contribution for L=           1  read in
    real space projection operators read in
    PAW grid and wavefunctions read in
 
   number of l-projection  operators is LMAX  =           4
   number of lm-projection operators is LMMAX =           8
 
 Optimization of the real space projectors (new method)

 maximal supplied QI-value         = 17.01
 optimisation between [QCUT,QGAM] = [ 10.20, 20.41] = [ 29.16,116.64] Ry 
 Optimized for a Real-space Cutoff    1.30 Angstroem

   l    n(q)    QCUT    max X(q) W(low)/X(q) W(high)/X(q)  e(spline) 
   1      7    10.205     4.940    0.23E-03    0.84E-03    0.11E-06
   1      7    10.205     6.253    0.40E-03    0.13E-02    0.18E-06
   0      8    10.205    37.438    0.23E-03    0.37E-03    0.42E-07
   0      8    10.205     9.606    0.16E-03    0.26E-03    0.31E-07
 Optimization of the real space projectors (new method)

 maximal supplied QI-value         = 18.90
 optimisation between [QCUT,QGAM] = [ 10.20, 20.41] = [ 29.16,116.64] Ry 
 Optimized for a Real-space Cutoff    1.26 Angstroem

   l    n(q)    QCUT    max X(q) W(low)/X(q) W(high)/X(q)  e(spline) 
   1      7    10.205     2.974    0.63E-04    0.14E-03    0.13E-06
   1      7    10.205     4.279    0.11E-03    0.45E-03    0.24E-06
   0      8    10.205    16.381    0.44E-03    0.15E-03    0.55E-07
   0      8    10.205     5.611    0.31E-03    0.11E-03    0.40E-07
   2      7    10.205     4.652    0.50E-03    0.47E-03    0.57E-07
 Optimization of the real space projectors (new method)

 maximal supplied QI-value         = 16.25
 optimisation between [QCUT,QGAM] = [ 10.24, 20.48] = [ 29.35,117.42] Ry 
 Optimized for a Real-space Cutoff    1.34 Angstroem

   l    n(q)    QCUT    max X(q) W(low)/X(q) W(high)/X(q)  e(spline) 
   1      8    10.239     3.658    0.23E-03    0.30E-03    0.98E-07
   1      8    10.239     5.612    0.32E-03    0.65E-03    0.21E-06
   2      7    10.239    55.373    0.42E-03    0.45E-03    0.65E-07
   2      7    10.239    50.863    0.43E-03    0.48E-03    0.67E-07
   0      8    10.239    79.536    0.11E-03    0.21E-03    0.56E-07
   0      8    10.239    38.668    0.96E-04    0.19E-03    0.52E-07
 Optimization of the real space projectors (new method)

 maximal supplied QI-value         = 24.76
 optimisation between [QCUT,QGAM] = [ 10.15, 20.30] = [ 28.85,115.39] Ry 
 Optimized for a Real-space Cutoff    1.38 Angstroem

   l    n(q)    QCUT    max X(q) W(low)/X(q) W(high)/X(q)  e(spline) 
   0      8    10.150    20.381    0.22E-03    0.32E-03    0.29E-06
   0      8    10.150    15.268    0.23E-03    0.35E-03    0.30E-06
   1      8    10.150     5.964    0.46E-03    0.53E-03    0.21E-06
   1      8    10.150     5.382    0.38E-03    0.45E-03    0.19E-06
  PAW_PBE Na_pv 19Sep2006               :
 energy of atom  1       EATOM= -766.0439
 kinetic energy error for atom=    0.0103 (will be added to EATOM!!)
  PAW_PBE Mg_pv 13Apr2007               :
 energy of atom  2       EATOM=-1056.7344
 kinetic energy error for atom=    0.0820 (will be added to EATOM!!)
  PAW_PBE Mn_pv 02Aug2007               :
 energy of atom  3       EATOM=-2025.2664
 kinetic energy error for atom=    0.0284 (will be added to EATOM!!)
  PAW_PBE O 08Apr2002                   :
 energy of atom  4       EATOM= -432.3788
 kinetic energy error for atom=    0.1156 (will be added to EATOM!!)
 
 
 POSCAR: Na Mg Mn  O                             
  positions in cartesian coordinates
  No initial velocities read in

 METAGGA = SCAN     LMAXTAU =  6    LMIXTAU =  F

 exchange correlation table for  LEXCH =        8
   RHO(1)=    0.500       N(1)  =     2000
   RHO(2)=  100.500       N(2)  =     4000

 VTST: version 3.2, (02/03/18)

 CHAIN: initializing optimizer
 
 OPT: Using VASP Dynamics algorithm
 CHAIN: Read ICHAIN            0
 
 POSCAR: Na Mg Mn  O                             
  positions in cartesian coordinates
  No initial velocities read in
 


--------------------------------------------------------------------------------------------------------


 ion  position               nearest neighbor table
   1  0.416  0.139  0.256-  52 2.19  43 2.33  42 2.37  28 2.82  26 2.93
   2  0.191  0.117  0.756-  61 2.29  47 2.31
   3  0.055  0.781  0.746-  44 2.31  47 2.37
   4  0.375  0.610  0.749-  85 2.32  82 2.36  38 2.88  40 2.89
   5  0.974  0.643  0.255-  76 2.19  67 2.28  75 2.34  36 2.93
   6  0.207  0.421  0.253-  87 2.33  64 2.37
   7  0.539  0.271  0.754-  48 2.32  49 2.33  71 2.35
   8  0.989  0.436  0.744-  57 2.25  60 2.27  70 2.27  39 2.88  37 2.97
   9  0.355  0.781  0.246-
  10  0.573  0.480  0.255-  74 2.18  65 2.21  35 2.88  33 2.96
  11  0.707  0.922  0.240-  79 2.25  54 2.29  53 2.32
  12  0.491  0.935  0.766-  49 2.27  84 2.33  81 2.37  29 2.76
  13  0.869  0.103  0.757-  61 2.25  60 2.35  59 2.37  56 2.38  30 2.75  32 2.98
  14  0.681  0.621  0.741-  82 2.32  85 2.35  69 2.36
  15  0.037  0.962  0.247-  54 2.31  63 2.36  41 2.38  25 2.81  27 2.98
  16  0.847  0.282  0.265-  75 2.22  64 2.30  62 2.31
  17  0.714  0.287  0.997-  66 2.00  60 2.03  43 2.03  49 2.14  71 2.15  53 2.24  37 2.82  34 2.83

  18  0.703  0.279  0.503-  57 1.99  68 2.00  52 2.01  75 2.03  46 2.05  62 2.11  39 2.83  35 2.85

  19  0.207  0.276  0.993-  41 1.97  48 2.01  83 2.04  61 2.08  55 2.15  78 2.16  26 2.81  38 2.83
                            33 2.84
  20  0.210  0.278  0.497-  87 1.95  45 2.03  50 2.05  80 2.06  58 2.09  64 2.21  35 2.84
  21  0.205  0.778  0.007-  84 1.91  73 2.01  67 2.05  77 2.08  42 2.10  47 2.20
  22  0.196  0.778  0.503-  70 2.02  76 2.03  51 2.05  81 2.09  44 2.11  86 2.17  27 2.83  28 2.83

  23  0.703  0.773  0.999-  72 1.97  85 2.03  65 2.10  79 2.12  54 2.12  59 2.19  34 2.83  25 2.85

  24  0.702  0.784  0.504-  56 2.04  63 2.04  82 2.07  69 2.07  74 2.13  88 2.14  31 2.85
  25  0.032  0.947  0.996-  67 1.87  47 1.88  61 1.90  54 1.91  41 1.97  72 1.99  15 2.81  30 2.84
                            23 2.85  26 2.88  34 2.89
  26  0.363  0.109  0.998-  49 1.84  42 1.89  41 1.90  43 1.95  48 1.95  47 1.96  19 2.81  33 2.86
                            29 2.87  25 2.88   1 2.93
  27  0.035  0.943  0.512-  44 1.84  76 1.86  58 1.89  50 1.92  69 1.95  63 2.01  22 2.83  36 2.89
                            32 2.91  28 2.91  15 2.98
  28  0.370  0.104  0.504-  46 1.92  51 1.92  44 1.94  50 1.95  52 1.95  45 1.99  31 2.82   1 2.82
                            22 2.83  27 2.91  35 2.92
  29  0.535  0.951  0.009-  59 1.88  42 1.91  53 1.92  84 1.92  79 1.96  49 2.00  12 2.76  30 2.85
                            26 2.87  38 3.02
  30  0.863  0.105  0.002-  54 1.87  53 1.87  59 1.95  61 1.98  60 1.98  55 1.99  13 2.75  25 2.84
                            29 2.85  37 2.97
  31  0.537  0.947  0.495-  62 1.85  46 1.89  51 1.94  81 1.96  56 1.97  88 2.03  28 2.82  24 2.85
                            32 2.89  40 2.93
  32  0.871  0.113  0.491-  64 1.87  58 1.91  63 1.92  56 1.93  57 1.96  62 2.03  39 2.86  31 2.89
                            27 2.91  13 2.98
  33  0.534  0.439  0.993-  65 1.89  43 1.89  48 1.91  78 1.91  71 1.95  85 1.99  19 2.84  38 2.86
                            26 2.86  34 2.91  10 2.96
  34  0.869  0.614  0.991-  72 1.87  73 1.88  66 1.92  65 1.93  67 1.94  71 1.97  23 2.83  17 2.83
                            25 2.89  33 2.91  37 2.92
  35  0.537  0.441  0.510-  45 1.85  74 1.87  82 1.88  68 1.88  52 1.91  87 2.00  20 2.84  18 2.85
                            36 2.85  10 2.88  28 2.92  40 3.01
  36  0.865  0.610  0.502-  74 1.85  69 1.91  76 1.93  70 1.93  68 1.95  75 1.95  35 2.85  39 2.88
                            27 2.89   5 2.93
  37  0.038  0.446  0.006-  77 1.83  55 1.86  66 1.93  83 1.95  60 2.01  73 2.03  17 2.82  38 2.85
                            34 2.92  30 2.97   8 2.97
  38  0.367  0.603  0.005-  78 1.84  84 1.90  85 1.94  83 1.95  79 2.03  77 2.05  19 2.83  37 2.85
                            33 2.86   4 2.88  29 3.02
  39  0.028  0.442  0.490-  80 1.87  64 1.90  86 1.90  75 1.93  57 1.94  70 1.99  18 2.83  32 2.86
                            36 2.88   8 2.88  40 2.88
  40  0.360  0.610  0.492-  88 1.84  86 1.94  82 1.96  81 1.99  87 2.00  80 2.01  39 2.88   4 2.89
                            31 2.93  35 3.01
  41  0.203  0.110  0.088-  26 1.90  25 1.97  19 1.97  15 2.38
  42  0.381  0.967  0.098-  26 1.89  29 1.91  21 2.10   1 2.37
  43  0.532  0.279  0.084-  33 1.89  26 1.95  17 2.03   1 2.33
  44  0.197  0.959  0.600-  27 1.84  28 1.94  22 2.11   3 2.31
  45  0.381  0.281  0.595-  35 1.85  28 1.99  20 2.03
  46  0.529  0.097  0.594-  31 1.89  28 1.92  18 2.05
  47  0.191  0.955  0.902-  25 1.88  26 1.96  21 2.20   2 2.31   3 2.37
  48  0.378  0.277  0.900-  33 1.91  26 1.95  19 2.01   7 2.32
  49  0.516  0.106  0.910-  26 1.84  29 2.00  17 2.14  12 2.27   7 2.33
  50  0.199  0.092  0.413-  27 1.92  28 1.95  20 2.05
  51  0.373  0.949  0.406-  28 1.92  31 1.94  22 2.05
  52  0.528  0.278  0.414-  35 1.91  28 1.95  18 2.01   1 2.19
  53  0.708  0.095  0.102-  30 1.87  29 1.92  17 2.24  11 2.32
  54  0.883  0.960  0.094-  30 1.87  25 1.91  23 2.12  11 2.29  15 2.31
  55  0.027  0.282  0.092-  37 1.86  30 1.99  19 2.15
  56  0.709  0.965  0.592-  32 1.93  31 1.97  24 2.04  13 2.38
  57  0.876  0.278  0.589-  39 1.94  32 1.96  18 1.99   8 2.25
  58  0.023  0.104  0.589-  27 1.89  32 1.91  20 2.09
  59  0.688  0.958  0.907-  29 1.88  30 1.95  23 2.19  13 2.37
  60  0.881  0.277  0.903-  30 1.98  37 2.01  17 2.03   8 2.27  13 2.35
  61  0.022  0.099  0.901-  25 1.90  30 1.98  19 2.08  13 2.25   2 2.29
  62  0.688  0.096  0.400-  31 1.85  32 2.03  18 2.11  16 2.31
  63  0.878  0.951  0.405-  32 1.92  27 2.01  24 2.04  15 2.36
  64  0.018  0.276  0.399-  32 1.87  39 1.90  20 2.21  16 2.30   6 2.37
  65  0.698  0.586  0.088-  33 1.89  34 1.93  23 2.10  10 2.21
  66  0.878  0.462  0.090-  34 1.92  37 1.93  17 2.00
  67  0.023  0.785  0.085-  25 1.87  34 1.94  21 2.05   5 2.28
  68  0.701  0.448  0.596-  35 1.88  36 1.95  18 2.00
  69  0.872  0.770  0.599-  36 1.91  27 1.95  24 2.07  14 2.36
  70  0.024  0.601  0.593-  36 1.93  39 1.99  22 2.02   8 2.27
  71  0.700  0.460  0.892-  33 1.95  34 1.97  17 2.15   7 2.35
  72  0.868  0.772  0.904-  34 1.87  23 1.97  25 1.99
  73  0.033  0.614  0.908-  34 1.88  21 2.01  37 2.03
  74  0.698  0.592  0.418-  36 1.85  35 1.87  24 2.13  10 2.18
  75  0.867  0.451  0.402-  39 1.93  36 1.95  18 2.03  16 2.22   5 2.34
  76  0.022  0.786  0.415-  27 1.86  36 1.93  22 2.03   5 2.19
  77  0.189  0.592  0.102-  37 1.83  38 2.05  21 2.08
  78  0.391  0.461  0.093-  38 1.84  33 1.91  19 2.16
  79  0.529  0.782  0.101-  29 1.96  38 2.03  23 2.12  11 2.25
  80  0.183  0.445  0.584-  39 1.87  40 2.01  20 2.06
  81  0.379  0.781  0.594-  31 1.96  40 1.99  22 2.09  12 2.37
  82  0.518  0.598  0.586-  35 1.88  40 1.96  24 2.07  14 2.32   4 2.36
  83  0.199  0.452  0.906-  37 1.95  38 1.95  19 2.04
  84  0.372  0.775  0.929-  38 1.90  21 1.91  29 1.92  12 2.33
  85  0.526  0.607  0.904-  38 1.94  33 1.99  23 2.03   4 2.32  14 2.35
  86  0.192  0.596  0.397-  39 1.90  40 1.94  22 2.17
  87  0.376  0.444  0.405-  20 1.95  40 2.00  35 2.00   6 2.33
  88  0.514  0.764  0.401-  40 1.84  31 2.03  24 2.14
 
  LATTYP: Found a hexagonal cell.
 ALAT       =    10.0190000534
 C/A-ratio  =     1.1196726572
  
  Lattice vectors:
  
 A1 = (  10.0190000534,   0.0000000000,   0.0000000000)
 A2 = (  -5.0095000267,   8.6767085668,   0.0000000000)
 A3 = (   0.0000000000,   0.0000000000,  11.2180004120)


Analysis of symmetry for initial positions (statically):
=====================================================================
 Subroutine PRICEL returns:
 Original cell was already a primitive cell.
 

 Routine SETGRP: Setting up the symmetry group for a 
 hexagonal supercell.


 Subroutine GETGRP returns: Found  1 space group operations
 (whereof  1 operations were pure point group operations)
 out of a pool of 24 trial point group operations.


The static configuration has the point symmetry C_1 .


Analysis of symmetry for dynamics (positions and initial velocities):
=====================================================================
 Subroutine PRICEL returns:
 Original cell was already a primitive cell.
 

 Routine SETGRP: Setting up the symmetry group for a 
 hexagonal supercell.


 Subroutine GETGRP returns: Found  1 space group operations
 (whereof  1 operations were pure point group operations)
 out of a pool of 24 trial point group operations.


The dynamic configuration has the point symmetry C_1 .


Analysis of structural, dynamic, and magnetic symmetry:
=====================================================================
 Subroutine PRICEL returns:
 Original cell was already a primitive cell.
 

 Routine SETGRP: Setting up the symmetry group for a 
 hexagonal supercell.


 Subroutine GETGRP returns: Found  1 space group operations
 (whereof  1 operations were pure point group operations)
 out of a pool of 24 trial point group operations.


The magnetic configuration has the point symmetry C_1 .


 Subroutine INISYM returns: Found  1 space group operations
 (whereof  1 operations are pure point group operations),
 and found     1 'primitive' translations

 
 

Automatic generation of k-mesh.
 generate k-points for:    2    2    2
Space group operators:
 irot       det(A)        alpha          n_x          n_y          n_z        tau_x        tau_y        tau_z
    1     1.000000     0.000000     1.000000     0.000000     0.000000     0.000000     0.000000     0.000000
 
 Subroutine IBZKPT returns following result:
 ===========================================
 
 Found      8 irreducible k-points:
 
 Following reciprocal coordinates:
            Coordinates               Weight
  0.000000  0.000000  0.000000      1.000000
  0.500000 -0.000000 -0.000000      1.000000
  0.000000  0.500000  0.000000      1.000000
  0.500000  0.500000 -0.000000      1.000000
  0.000000  0.000000  0.500000      1.000000
  0.500000 -0.000000  0.500000      1.000000
  0.000000  0.500000  0.500000      1.000000
  0.500000  0.500000  0.500000      1.000000
 
 Following cartesian coordinates:
            Coordinates               Weight
  0.000000  0.000000  0.000000      1.000000
  0.049905  0.028813 -0.000000      1.000000
  0.000000  0.057626  0.000000      1.000000
  0.049905  0.086438 -0.000000      1.000000
  0.000000  0.000000  0.044571      1.000000
  0.049905  0.028813  0.044571      1.000000
  0.000000  0.057626  0.044571      1.000000
  0.049905  0.086438  0.044571      1.000000
 


--------------------------------------------------------------------------------------------------------




 Dimension of arrays:
   k-points           NKPTS =      8   k-points in BZ     NKDIM =      8   number of bands    NBANDS=    480
   number of dos      NEDOS =    301   number of ions     NIONS =     88
   non local maximal  LDIM  =      6   non local SUM 2l+1 LMDIM =     18
   total plane-waves  NPLWV = 140000
   max r-space proj   IRMAX =   1632   max aug-charges    IRDMAX=   4555
   dimension x,y,z NGX =    50 NGY =   50 NGZ =   56
   dimension x,y,z NGXF=   100 NGYF=  100 NGZF=  112
   support grid    NGXF=   100 NGYF=  100 NGZF=  112
   ions per type =              16   8  16  48
   NGX,Y,Z   is equivalent  to a cutoff of   8.30,  8.30,  8.30 a.u.
   NGXF,Y,Z  is equivalent  to a cutoff of  16.59, 16.59, 16.60 a.u.

 SYSTEM =  unknown system                          
 POSCAR =  Na Mg Mn  O                             

 Startparameter for this run:
   NWRITE =      2    write-flag & timer
   PREC   = normal    normal or accurate (medium, high low for compatibility)
   ISTART =      0    job   : 0-new  1-cont  2-samecut
   ICHARG =      1    charge: 1-file 2-atom 10-const
   ISPIN  =      2    spin polarized calculation?
   LNONCOLLINEAR =      F non collinear calculations
   LSORBIT =      F    spin-orbit coupling
   INIWAV =      1    electr: 0-lowe 1-rand  2-diag
   LASPH  =      T    aspherical Exc in radial PAW
   METAGGA=      F    non-selfconsistent MetaGGA calc.

 Electronic Relaxation 1
   ENCUT  =  400.0 eV  29.40 Ry    5.42 a.u.  16.34 16.34 18.29*2*pi/ulx,y,z
   ENINI  =  400.0     initial cutoff
   ENAUG  =  758.8 eV  augmentation charge cutoff
   NELM   =    200;   NELMIN=  6; NELMDL=-12     # of ELM steps 
   EDIFF  = 0.1E-04   stopping-criterion for ELM
   LREAL  =      T    real-space projection
   NLSPLINE    = F    spline interpolate recip. space projectors
   LCOMPAT=      F    compatible to vasp.4.4
   GGA_COMPAT  = T    GGA compatible to vasp.4.4-vasp.4.6
   LMAXPAW     = -100 max onsite density
   LMAXMIX     =    4 max onsite mixed and CHGCAR
   VOSKOWN=      0    Vosko Wilk Nusair interpolation
   ROPT   =   -0.00050  -0.00050  -0.00050  -0.00050
 Ionic relaxation
   EDIFFG = 0.1E-03   stopping-criterion for IOM
   NSW    =      1    number of steps for IOM
   NBLOCK =      1;   KBLOCK =      1    inner block; outer block 
   IBRION =     -1    ionic relax: 0-MD 1-quasi-New 2-CG
   NFREE  =      0    steps in history (QN), initial steepest desc. (CG)
   ISIF   =      2    stress and relaxation
   IWAVPR =     10    prediction:  0-non 1-charg 2-wave 3-comb
   ISYM   =      2    0-nonsym 1-usesym 2-fastsym
   LCORR  =      T    Harris-Foulkes like correction to forces

   POTIM  = 0.5000    time-step for ionic-motion
   TEIN   =    0.0    initial temperature
   TEBEG  =    0.0;   TEEND  =   0.0 temperature during run
   SMASS  =  -3.00    Nose mass-parameter (am)
   estimated Nose-frequenzy (Omega)   =  0.10E-29 period in steps =****** mass=  -0.229E-26a.u.
   SCALEE = 1.0000    scale energy and forces
   NPACO  =    256;   APACO  = 16.0  distance and # of slots for P.C.
   PSTRESS=    0.0 pullay stress

  Mass of Ions in am
   POMASS =  22.99 24.30 54.94 16.00
  Ionic Valenz
   ZVAL   =   7.00  8.00 13.00  6.00
  Atomic Wigner-Seitz radii
   RWIGS  =  -1.00 -1.00 -1.00 -1.00
  virtual crystal weights 
   VCA    =   1.00  1.00  1.00  1.00
   NELECT =     672.0000    total number of electrons
   NUPDOWN=      48.0000    fix difference up-down

 DOS related values:
   EMIN   =  10.00;   EMAX   =-10.00  energy-range for DOS
   EFERMI =   0.00
   ISMEAR =     0;   SIGMA  =   0.05  broadening in eV -4-tet -1-fermi 0-gaus

 Electronic relaxation 2 (details)
   IALGO  =     48    algorithm
   LDIAG  =      T    sub-space diagonalisation (order eigenvalues)
   LSUBROT=      F    optimize rotation matrix (better conditioning)
   TURBO    =      0    0=normal 1=particle mesh
   IRESTART =      0    0=no restart 2=restart with 2 vectors
   NREBOOT  =      0    no. of reboots
   NMIN     =      0    reboot dimension
   EREF     =   0.00    reference energy to select bands
   IMIX   =      4    mixing-type and parameters
     AMIX     =   0.40;   BMIX     =  1.00
     AMIX_MAG =   1.60;   BMIX_MAG =  1.00
     AMIN     =   0.10
     WC   =   100.;   INIMIX=   1;  MIXPRE=   1;  MAXMIX= -45

 Intra band minimization:
   WEIMIN = 0.0000     energy-eigenvalue tresh-hold
   EBREAK =  0.52E-08  absolut break condition
   DEPER  =   0.30     relativ break condition  

   TIME   =   0.40     timestep for ELM

  volume/ion in A,a.u.               =      11.08        74.78
  Fermi-wavevector in a.u.,A,eV,Ry     =   1.445993  2.732531 28.448379  2.090897
  Thomas-Fermi vector in A             =   2.564112
 
 Write flags
   LWAVE        =      F    write WAVECAR
   LDOWNSAMPLE  =      F    k-point downsampling of WAVECAR
   LCHARG       =      F    write CHGCAR
   LVTOT        =      F    write LOCPOT, total local potential
   LVHAR        =      F    write LOCPOT, Hartree potential only
   LELF         =      F    write electronic localiz. function (ELF)
   LORBIT       =     11    0 simple, 1 ext, 2 COOP (PROOUT), +10 PAW based schemes


 Dipole corrections
   LMONO  =      F    monopole corrections only (constant potential shift)
   LDIPOL =      F    correct potential (dipole corrections)
   IDIPOL =      0    1-x, 2-y, 3-z, 4-all directions 
   EPSILON=  1.0000000 bulk dielectric constant

 Exchange correlation treatment:
   GGA     =    --    GGA type
   LEXCH   =     8    internal setting for exchange type
   VOSKOWN=      0    Vosko Wilk Nusair interpolation
   LHFCALC =     F    Hartree Fock is set to
   LHFONE  =     F    Hartree Fock one center treatment
   AEXX    =    0.0000 exact exchange contribution

 Linear response parameters
   LEPSILON=     F    determine dielectric tensor
   LRPA    =     F    only Hartree local field effects (RPA)
   LNABLA  =     F    use nabla operator in PAW spheres
   LVEL    =     F    velocity operator in full k-point grid
   LINTERFAST=   F  fast interpolation
   KINTER  =     0    interpolate to denser k-point grid
   CSHIFT  =0.1000    complex shift for real part using Kramers Kronig
   OMEGAMAX=  -1.0    maximum frequency
   DEG_THRESHOLD= 0.2000000E-02 threshold for treating states as degnerate
   RTIME   =   -0.100 relaxation time in fs
  (WPLASMAI=    0.000 imaginary part of plasma frequency in eV, 0.658/RTIME)
   DFIELD  = 0.0000000 0.0000000 0.0000000 field for delta impulse in time
 
 Orbital magnetization related:
   ORBITALMAG=     F  switch on orbital magnetization
   LCHIMAG   =     F  perturbation theory with respect to B field
   DQ        =  0.001000  dq finite difference perturbation B field
   LLRAUG    =     F  two centre corrections for induced B field



--------------------------------------------------------------------------------------------------------


 Static calculation
 charge density and potential will be updated during run
 spin polarized calculation
 RMM-DIIS sequential band-by-band
 perform sub-space diagonalisation
    before iterative eigenvector-optimisation
 modified Broyden-mixing scheme, WC =      100.0
 initial mixing is a Kerker type mixing with AMIX =  0.4000 and BMIX =      1.0000
 Hartree-type preconditioning will be used
 using additional bands          144
 real space projection scheme for non local part
 use partial core corrections
 calculate Harris-corrections to forces 
   (improved forces if not selfconsistent)
 use gradient corrections 
 use of overlap-Matrix (Vanderbilt PP)
 Gauss-broadening in eV      SIGMA  =   0.05


--------------------------------------------------------------------------------------------------------


  energy-cutoff  :      400.00
  volume of cell :      975.20
      direct lattice vectors                 reciprocal lattice vectors
    10.019000053  0.000000000  0.000000000     0.099810360  0.057625538 -0.000000000
    -5.009500027  8.676708567  0.000000000     0.000000000  0.115251076  0.000000000
     0.000000000  0.000000000 11.218000412     0.000000000  0.000000000  0.089142446

  length of vectors
    10.019000053 10.019000053 11.218000412     0.115251076  0.115251076  0.089142446


 
 k-points in units of 2pi/SCALE and weight: read from INCAR                         
   0.00000000  0.00000000  0.00000000       0.125
   0.04990518  0.02881277 -0.00000000       0.125
   0.00000000  0.05762554  0.00000000       0.125
   0.04990518  0.08643831 -0.00000000       0.125
   0.00000000  0.00000000  0.04457122       0.125
   0.04990518  0.02881277  0.04457122       0.125
   0.00000000  0.05762554  0.04457122       0.125
   0.04990518  0.08643831  0.04457122       0.125
 
 k-points in reciprocal lattice and weights: read from INCAR                         
   0.00000000  0.00000000  0.00000000       0.125
   0.50000000 -0.00000000 -0.00000000       0.125
   0.00000000  0.50000000  0.00000000       0.125
   0.50000000  0.50000000 -0.00000000       0.125
   0.00000000  0.00000000  0.50000000       0.125
   0.50000000 -0.00000000  0.50000000       0.125
   0.00000000  0.50000000  0.50000000       0.125
   0.50000000  0.50000000  0.50000000       0.125
 
 position of ions in fractional coordinates (direct lattice) 
   0.41644289  0.13876460  0.25567569
   0.19110239  0.11718631  0.75603759
   0.05526348  0.78079344  0.74609286
   0.37514661  0.60997982  0.74857815
   0.97404996  0.64283593  0.25532090
   0.20650548  0.42119543  0.25347031
   0.53913000  0.27089403  0.75440450
   0.98898031  0.43579873  0.74432516
   0.35470786  0.78130911  0.24559101
   0.57333073  0.47972865  0.25501693
   0.70702480  0.92160326  0.23979496
   0.49059299  0.93522330  0.76563288
   0.86929876  0.10281351  0.75652431
   0.68111688  0.62104195  0.74121320
   0.03748513  0.96166552  0.24678641
   0.84706390  0.28209067  0.26515064
   0.71384760  0.28730595  0.99668097
   0.70265497  0.27906780  0.50299606
   0.20669037  0.27626605  0.99281543
   0.21000290  0.27834057  0.49691744
   0.20486621  0.77750566  0.00733639
   0.19591997  0.77829167  0.50265999
   0.70322977  0.77342231  0.99926268
   0.70219295  0.78375111  0.50402298
   0.03164135  0.94666427  0.99617341
   0.36342264  0.10934054  0.99771753
   0.03475620  0.94272730  0.51186484
   0.36987043  0.10420438  0.50419681
   0.53489229  0.95072918  0.00882507
   0.86318307  0.10482108  0.00173824
   0.53709692  0.94716100  0.49533159
   0.87069735  0.11259143  0.49103047
   0.53351953  0.43942354  0.99342498
   0.86935059  0.61369469  0.99131295
   0.53651046  0.44084804  0.50966837
   0.86505739  0.61034434  0.50175163
   0.03824279  0.44647460  0.00627546
   0.36708901  0.60251419  0.00483069
   0.02808332  0.44179195  0.48960508
   0.36011435  0.61004584  0.49152967
   0.20297600  0.10952321  0.08825075
   0.38139697  0.96712371  0.09798627
   0.53162047  0.27864368  0.08356302
   0.19718425  0.95894780  0.60008555
   0.38121719  0.28069169  0.59506862
   0.52920198  0.09687487  0.59354250
   0.19090343  0.95504770  0.90233550
   0.37819652  0.27688610  0.90008911
   0.51643232  0.10630909  0.90967192
   0.19852127  0.09161285  0.41292118
   0.37272152  0.94906018  0.40592261
   0.52800153  0.27840050  0.41440719
   0.70845082  0.09452617  0.10163665
   0.88286621  0.96005720  0.09350329
   0.02688628  0.28219457  0.09229987
   0.70928056  0.96472741  0.59242020
   0.87558152  0.27761679  0.58858974
   0.02250072  0.10428482  0.58924227
   0.68802768  0.95802164  0.90716702
   0.88111173  0.27664407  0.90280795
   0.02245633  0.09942111  0.90129253
   0.68789708  0.09617944  0.39965500
   0.87751704  0.95060650  0.40532090
   0.01760009  0.27630408  0.39900337
   0.69792484  0.58599640  0.08806204
   0.87826447  0.46232393  0.09019522
   0.02275311  0.78465583  0.08493038
   0.70062191  0.44810079  0.59641823
   0.87189807  0.77009617  0.59931269
   0.02394019  0.60066210  0.59292474
   0.70024047  0.45999586  0.89157601
   0.86751687  0.77180188  0.90426098
   0.03325484  0.61446457  0.90836153
   0.69759106  0.59214389  0.41829647
   0.86699493  0.45146267  0.40187643
   0.02214502  0.78555364  0.41531377
   0.18868887  0.59206783  0.10215724
   0.39080380  0.46088099  0.09311909
   0.52941063  0.78168581  0.10074968
   0.18346825  0.44466862  0.58423514
   0.37920201  0.78137118  0.59391244
   0.51835843  0.59781079  0.58581831
   0.19935863  0.45158022  0.90620428
   0.37220477  0.77453909  0.92866818
   0.52637543  0.60725331  0.90401138
   0.19194646  0.59561065  0.39680690
   0.37590681  0.44369705  0.40486003
   0.51350126  0.76369282  0.40069886
 
 position of ions in cartesian coordinates  (Angst):
   3.47720011  1.20402000  2.86817000
   1.32761003  1.01679143  8.48123000
  -3.35769995  6.77471713  8.36967000
   0.70289995  5.29261713  8.39755000
   6.53872000  5.57770000  2.86419000
  -0.04100011  3.65459000  2.84343000
   4.04449981  2.35046857  8.46291000
   7.72546003  3.78129857  8.34984000
  -0.36014997  6.77919143  2.75504000
   3.34099989  4.16246573  2.86078000
   2.46691000  7.99648287  2.69002000
   0.23025005  8.11466000  8.58887000
   8.19446000  0.89208287  8.48669000
   3.71300037  5.38860000  8.31493000
  -4.44189992  8.34409143  2.76845000
   7.07359997  2.44761857  2.97446000
   5.71278000  2.49287000 11.18076751
   5.64191000  2.42139000  5.64261000
   0.68687600  2.39708000 11.13740391
   0.70967200  2.41508000  5.57442000
  -1.84236000  6.74619000  0.08229959
  -1.93593000  6.75301000  5.63884000
   3.17120000  6.71076000 11.20972914
   3.10907000  6.80038000  5.65413000
  -4.42530005  8.21393000 11.17507371
   3.09339000  0.94871600 11.19239571
  -4.37437005  8.17977000  5.74210000
   3.18372000  0.90415100  5.65608000
   0.59640800  8.24920000  0.09899959
   8.12313000  0.90950200  0.01949959
   0.63637100  8.21824000  5.55663000
   8.15949000  0.97692300  5.50838000
   3.14404000  3.81275000 11.14424181
   5.63572000  5.32485000 11.12054911
   3.16687000  3.82511000  5.71746000
   5.60949000  5.29578000  5.62865000
  -1.85346005  3.87393000  0.07039810
   0.65957000  5.22784000  0.05419070
  -1.93179005  3.83330000  5.49239000
   0.55196100  5.29319000  5.51398000
   1.48496000  0.95030100  0.98999700
  -1.02359003  8.39145057  1.09921000
   3.93044000  2.41771000  0.93741000
  -2.82826003  8.32051057  6.73176000
   2.41329000  2.43548000  6.67548000
   4.81678000  0.84055500  6.65836000
  -2.87165003  8.28667057 10.12240000
   2.40209000  2.40246000 10.09720000
   4.64158000  0.92241300 10.20470000
   1.53005000  0.79489800  4.63215000
  -1.02002003  8.23471857  4.55364000
   3.89540000  2.41560000  4.64882000
   6.62444000  0.82017600  1.14016000
   4.03602997  8.33013657  1.04892000
  -1.14428005  2.44852000  1.03542000
   2.27347997  8.37065857  6.64577000
   7.38173000  2.40880000  6.60280000
  -0.29698005  0.90484900  6.61012000
   2.09413997  8.31247457 10.17660000
   7.44201000  2.40036000 10.12770000
  -0.27306005  0.86264800 10.11070000
   6.41023000  0.83452100  4.48333000
   4.02977997  8.24813557  4.54689000
  -1.20781005  2.39741000  4.47602000
   4.05696000  5.08452000  0.98788000
   6.48332000  4.01145000  1.01181000
  -3.70277005  6.80823000  0.95274900
   4.77477000  3.88804000  6.69062000
   4.87775000  6.68190000  6.72309000
  -2.76916005  5.21177000  6.65143000
   4.71136000  3.99125000 10.00170000
   4.82531000  6.69670000 10.14400000
  -2.74498005  5.33153000 10.19000000
   4.02282000  5.13786000  4.69245000
   6.42482000  3.91721000  4.50825000
  -3.71336005  6.81602000  4.65899000
  -1.07549000  5.13720000  1.14600000
   1.60668000  3.99893000  1.04461000
   1.38831000  6.78246000  1.13021000
  -0.38939900  3.85826000  6.55395000
  -0.11505400  6.77973000  6.66251000
   2.19870000  5.18703000  6.57171000
  -0.26481700  3.91823000 10.16580000
  -0.15093400  6.72045000 10.41780000
   2.23172000  5.26896000 10.14120000
  -1.06060000  5.16794000  4.45138000
   1.54351000  3.84983000  4.54172000
   1.31905000  6.62634000  4.49504000
 


--------------------------------------------------------------------------------------------------------


 k-point  1 :   0.0000 0.0000 0.0000  plane waves:   17725
 k-point  2 :   0.5000-0.0000-0.0000  plane waves:   17736
 k-point  3 :   0.0000 0.5000 0.0000  plane waves:   17736
 k-point  4 :   0.5000 0.5000-0.0000  plane waves:   17736
 k-point  5 :   0.0000 0.0000 0.5000  plane waves:   17676
 k-point  6 :   0.5000-0.0000 0.5000  plane waves:   17700
 k-point  7 :   0.0000 0.5000 0.5000  plane waves:   17700
 k-point  8 :   0.5000 0.5000 0.5000  plane waves:   17700

 maximum and minimum number of plane-waves per node :     17736    17676

 maximum number of plane-waves:     17736
 maximum index in each direction: 
   IXMAX=   16   IYMAX=   16   IZMAX=   18
   IXMIN=  -16   IYMIN=  -16   IZMIN=  -18


 serial   3D FFT for wavefunctions
 parallel 3D FFT for charge:
    minimum data exchange during FFTs selected (reduces bandwidth)


 total amount of memory used by VASP MPI-rank0    94420. kBytes
=======================================================================

   base      :      30000. kBytes
   nonlr-proj:      13661. kBytes
   fftplans  :       1275. kBytes
   grid      :      22786. kBytes
   one-center:       2737. kBytes
   wavefun   :      23961. kBytes
 
     INWAV:  cpu time    0.0000: real time    0.0001
 Broyden mixing: mesh for mixing (old mesh)
   NGX = 33   NGY = 33   NGZ = 37
  (NGX  =100   NGY  =100   NGZ  =112)
  gives a total of  40293 points

 initial charge density was supplied:
 charge density of overlapping atoms calculated
 number of electron     672.0000000 magnetization      48.0000000
 keeping initial charge density in first step


--------------------------------------------------------------------------------------------------------


 Maximum index for non-local projection operator         1550
 Maximum index for augmentation-charges          515 (set IRDMAX)


--------------------------------------------------------------------------------------------------------


 First call to EWALD:  gamma=   0.179
 Maximum number of real-space cells 3x 3x 2
 Maximum number of reciprocal cells 3x 3x 3

    FEWALD:  cpu time    0.0027: real time    0.0027


--------------------------------------- Iteration      1(   1)  ---------------------------------------


    POTLOK:  cpu time    0.1963: real time    0.1984
    SETDIJ:  cpu time    4.6506: real time    4.6524
    EDDIAG:  cpu time    4.4341: real time    4.8115
  RMM-DIIS:  cpu time    9.0667: real time    9.0709
    ORTHCH:  cpu time    1.1632: real time    1.2419
       DOS:  cpu time    0.0025: real time    0.0026
    --------------------------------------------
      LOOP:  cpu time   19.5133: real time   19.9777

 eigenvalue-minimisations  :  7680
 total energy-change (2. order) : 0.1568579E+04  (-0.3495226E+05)
 number of electron     672.0000000 magnetization      48.0000000
 augmentation part      672.0000000 magnetization      48.0000000

 Free energy of the ion-electron system (eV)
  ---------------------------------------------------
  alpha Z        PSCENC =      2652.81237852
  Ewald energy   TEWEN  =    -41899.39173127
  -Hartree energ DENC   =    -25716.57501636
  -exchange      EXHF   =         0.00000000
  -V(xc)+E(xc)   XCENC  =      3605.68267318
  PAW double counting   =     55594.23204139   -59034.67079123
  entropy T*S    EENTRO =        -0.05070700
  eigenvalues    EBANDS =     -7495.65762882
  atomic energy  EATOM  =     73862.19814772
  Solvation  Ediel_sol  =         0.00000000
  ---------------------------------------------------
  free energy    TOTEN  =      1568.57936614 eV

  energy without entropy =     1568.63007314  energy(sigma->0) =     1568.60471964


--------------------------------------------------------------------------------------------------------




--------------------------------------- Iteration      1(   2)  ---------------------------------------


    EDDIAG:  cpu time    4.4218: real time    4.7864
  RMM-DIIS:  cpu time    9.0859: real time    9.0994
    ORTHCH:  cpu time    1.1620: real time    1.2398
       DOS:  cpu time    0.0019: real time    0.0019
    --------------------------------------------
      LOOP:  cpu time   14.6716: real time   15.1275

 eigenvalue-minimisations  :  7680
 total energy-change (2. order) :-0.2293762E+04  (-0.8013581E+04)
 number of electron     672.0000000 magnetization      48.0000000
 augmentation part      672.0000000 magnetization      48.0000000

 Free energy of the ion-electron system (eV)
  ---------------------------------------------------
  alpha Z        PSCENC =      2652.81237852
  Ewald energy   TEWEN  =    -41899.39173127
  -Hartree energ DENC   =    -25716.57501636
  -exchange      EXHF   =         0.00000000
  -V(xc)+E(xc)   XCENC  =      3605.68267318
  PAW double counting   =     55594.23204139   -59034.67079123
  entropy T*S    EENTRO =        -0.05064482
  eigenvalues    EBANDS =     -9789.41990660
  atomic energy  EATOM  =     73862.19814772
  Solvation  Ediel_sol  =         0.00000000
  ---------------------------------------------------
  free energy    TOTEN  =      -725.18284947 eV

  energy without entropy =     -725.13220465  energy(sigma->0) =     -725.15752706


--------------------------------------------------------------------------------------------------------




--------------------------------------- Iteration      1(   3)  ---------------------------------------


    EDDIAG:  cpu time    4.4672: real time    4.8396
  RMM-DIIS:  cpu time    9.0780: real time    9.0897
    ORTHCH:  cpu time    1.1575: real time    1.2401
       DOS:  cpu time    0.0022: real time    0.0022
    --------------------------------------------
      LOOP:  cpu time   14.7049: real time   15.1715

 eigenvalue-minimisations  :  7680
 total energy-change (2. order) : 0.7956642E+02  (-0.1417517E+04)
 number of electron     672.0000000 magnetization      48.0000000
 augmentation part      672.0000000 magnetization      48.0000000

 Free energy of the ion-electron system (eV)
  ---------------------------------------------------
  alpha Z        PSCENC =      2652.81237852
  Ewald energy   TEWEN  =    -41899.39173127
  -Hartree energ DENC   =    -25716.57501636
  -exchange      EXHF   =         0.00000000
  -V(xc)+E(xc)   XCENC  =      3605.68267318
  PAW double counting   =     55594.23204139   -59034.67079123
  entropy T*S    EENTRO =        -0.04815928
  eigenvalues    EBANDS =     -9709.85597272
  atomic energy  EATOM  =     73862.19814772
  Solvation  Ediel_sol  =         0.00000000
  ---------------------------------------------------
  free energy    TOTEN  =      -645.61643004 eV

  energy without entropy =     -645.56827076  energy(sigma->0) =     -645.59235040


--------------------------------------------------------------------------------------------------------




--------------------------------------- Iteration      1(   4)  ---------------------------------------


    EDDIAG:  cpu time    4.4495: real time    4.8033
  RMM-DIIS:  cpu time    9.0635: real time    9.0819
    ORTHCH:  cpu time    1.1630: real time    1.2413
       DOS:  cpu time    0.0011: real time    0.0011
    --------------------------------------------
      LOOP:  cpu time   14.6771: real time   15.1276

 eigenvalue-minimisations  :  7680
 total energy-change (2. order) :-0.4662375E+03  (-0.4272625E+03)
 number of electron     672.0000000 magnetization      48.0000000
 augmentation part      672.0000000 magnetization      48.0000000

 Free energy of the ion-electron system (eV)
  ---------------------------------------------------
  alpha Z        PSCENC =      2652.81237852
  Ewald energy   TEWEN  =    -41899.39173127
  -Hartree energ DENC   =    -25716.57501636
  -exchange      EXHF   =         0.00000000
  -V(xc)+E(xc)   XCENC  =      3605.68267318
  PAW double counting   =     55594.23204139   -59034.67079123
  entropy T*S    EENTRO =        -0.00000000
  eigenvalues    EBANDS =    -10176.14159691
  atomic energy  EATOM  =     73862.19814772
  Solvation  Ediel_sol  =         0.00000000
  ---------------------------------------------------
  free energy    TOTEN  =     -1111.85389495 eV

  energy without entropy =    -1111.85389495  energy(sigma->0) =    -1111.85389495


--------------------------------------------------------------------------------------------------------




--------------------------------------- Iteration      1(   5)  ---------------------------------------


    EDDIAG:  cpu time    4.4709: real time    4.8343
  RMM-DIIS:  cpu time    9.0908: real time    9.0939
    ORTHCH:  cpu time    1.1593: real time    1.2406
       DOS:  cpu time    0.0013: real time    0.0013
    --------------------------------------------
      LOOP:  cpu time   14.7224: real time   15.1701

 eigenvalue-minimisations  :  7680
 total energy-change (2. order) :-0.1037975E+03  (-0.1595522E+03)
 number of electron     672.0000000 magnetization      48.0000000
 augmentation part      672.0000000 magnetization      48.0000000

 Free energy of the ion-electron system (eV)
  ---------------------------------------------------
  alpha Z        PSCENC =      2652.81237852
  Ewald energy   TEWEN  =    -41899.39173127
  -Hartree energ DENC   =    -25716.57501636
  -exchange      EXHF   =         0.00000000
  -V(xc)+E(xc)   XCENC  =      3605.68267318
  PAW double counting   =     55594.23204139   -59034.67079123
  entropy T*S    EENTRO =        -0.00000000
  eigenvalues    EBANDS =    -10279.93905305
  atomic energy  EATOM  =     73862.19814772
  Solvation  Ediel_sol  =         0.00000000
  ---------------------------------------------------
  free energy    TOTEN  =     -1215.65135109 eV

  energy without entropy =    -1215.65135109  energy(sigma->0) =    -1215.65135109


--------------------------------------------------------------------------------------------------------




--------------------------------------- Iteration      1(   6)  ---------------------------------------


    EDDIAG:  cpu time    4.4496: real time    4.8050
  RMM-DIIS:  cpu time    9.0991: real time    9.1048
    ORTHCH:  cpu time    1.2340: real time    1.3259
       DOS:  cpu time    0.0012: real time    0.0012
    --------------------------------------------
      LOOP:  cpu time   14.7839: real time   15.2368

 eigenvalue-minimisations  :  7680
 total energy-change (2. order) :-0.9097847E+01  (-0.7931448E+02)
 number of electron     672.0000000 magnetization      48.0000000
 augmentation part      672.0000000 magnetization      48.0000000

 Free energy of the ion-electron system (eV)
  ---------------------------------------------------
  alpha Z        PSCENC =      2652.81237852
  Ewald energy   TEWEN  =    -41899.39173127
  -Hartree energ DENC   =    -25716.57501636
  -exchange      EXHF   =         0.00000000
  -V(xc)+E(xc)   XCENC  =      3605.68267318
  PAW double counting   =     55594.23204139   -59034.67079123
  entropy T*S    EENTRO =        -0.00000000
  eigenvalues    EBANDS =    -10289.03690006
  atomic energy  EATOM  =     73862.19814772
  Solvation  Ediel_sol  =         0.00000000
  ---------------------------------------------------
  free energy    TOTEN  =     -1224.74919810 eV

  energy without entropy =    -1224.74919810  energy(sigma->0) =    -1224.74919810


--------------------------------------------------------------------------------------------------------




--------------------------------------- Iteration      1(   7)  ---------------------------------------


    EDDIAG:  cpu time    4.4339: real time    4.7980
  RMM-DIIS:  cpu time    9.0867: real time    9.1067
    ORTHCH:  cpu time    1.1679: real time    1.2462
       DOS:  cpu time    0.0011: real time    0.0011
    --------------------------------------------
      LOOP:  cpu time   14.6897: real time   15.1521

 eigenvalue-minimisations  :  7680
 total energy-change (2. order) :-0.1782957E+01  (-0.4839340E+02)
 number of electron     672.0000000 magnetization      48.0000000
 augmentation part      672.0000000 magnetization      48.0000000

 Free energy of the ion-electron system (eV)
  ---------------------------------------------------
  alpha Z        PSCENC =      2652.81237852
  Ewald energy   TEWEN  =    -41899.39173127
  -Hartree energ DENC   =    -25716.57501636
  -exchange      EXHF   =         0.00000000
  -V(xc)+E(xc)   XCENC  =      3605.68267318
  PAW double counting   =     55594.23204139   -59034.67079123
  entropy T*S    EENTRO =        -0.00000000
  eigenvalues    EBANDS =    -10290.81985719
  atomic energy  EATOM  =     73862.19814772
  Solvation  Ediel_sol  =         0.00000000
  ---------------------------------------------------
  free energy    TOTEN  =     -1226.53215524 eV

  energy without entropy =    -1226.53215524  energy(sigma->0) =    -1226.53215524


--------------------------------------------------------------------------------------------------------




--------------------------------------- Iteration      1(   8)  ---------------------------------------


    EDDIAG:  cpu time    4.4740: real time    4.8128
  RMM-DIIS:  cpu time    9.0888: real time    9.0921
    ORTHCH:  cpu time    1.1716: real time    1.2681
       DOS:  cpu time    0.0011: real time    0.0011
    --------------------------------------------
      LOOP:  cpu time   14.7355: real time   15.1741

 eigenvalue-minimisations  :  7680
 total energy-change (2. order) : 0.4983299E+01  (-0.3010557E+02)
 number of electron     672.0000000 magnetization      48.0000000
 augmentation part      672.0000000 magnetization      48.0000000

 Free energy of the ion-electron system (eV)
  ---------------------------------------------------
  alpha Z        PSCENC =      2652.81237852
  Ewald energy   TEWEN  =    -41899.39173127
  -Hartree energ DENC   =    -25716.57501636
  -exchange      EXHF   =         0.00000000
  -V(xc)+E(xc)   XCENC  =      3605.68267318
  PAW double counting   =     55594.23204139   -59034.67079123
  entropy T*S    EENTRO =        -0.00000000
  eigenvalues    EBANDS =    -10285.83655814
  atomic energy  EATOM  =     73862.19814772
  Solvation  Ediel_sol  =         0.00000000
  ---------------------------------------------------
  free energy    TOTEN  =     -1221.54885618 eV

  energy without entropy =    -1221.54885618  energy(sigma->0) =    -1221.54885618


--------------------------------------------------------------------------------------------------------




--------------------------------------- Iteration      1(   9)  ---------------------------------------


    EDDIAG:  cpu time    4.4436: real time    4.7993
  RMM-DIIS:  cpu time   18.9265: real time   18.9395
    ORTHCH:  cpu time    1.1701: real time    1.2494
       DOS:  cpu time    0.0013: real time    0.0013
    --------------------------------------------
      LOOP:  cpu time   24.5415: real time   24.9896

 eigenvalue-minimisations  : 21828
 total energy-change (2. order) : 0.9334703E+01  (-0.1327895E+02)
 number of electron     672.0000000 magnetization      48.0000000
 augmentation part      672.0000000 magnetization      48.0000000

 Free energy of the ion-electron system (eV)
  ---------------------------------------------------
  alpha Z        PSCENC =      2652.81237852
  Ewald energy   TEWEN  =    -41899.39173127
  -Hartree energ DENC   =    -25716.57501636
  -exchange      EXHF   =         0.00000000
  -V(xc)+E(xc)   XCENC  =      3605.68267318
  PAW double counting   =     55594.23204139   -59034.67079123
  entropy T*S    EENTRO =        -0.00000000
  eigenvalues    EBANDS =    -10276.50185516
  atomic energy  EATOM  =     73862.19814772
  Solvation  Ediel_sol  =         0.00000000
  ---------------------------------------------------
  free energy    TOTEN  =     -1212.21415321 eV

  energy without entropy =    -1212.21415321  energy(sigma->0) =    -1212.21415321


--------------------------------------------------------------------------------------------------------




--------------------------------------- Iteration      1(  10)  ---------------------------------------


    EDDIAG:  cpu time    4.4451: real time    4.8269
  RMM-DIIS:  cpu time   18.0375: real time   18.0738
    ORTHCH:  cpu time    1.1655: real time    1.2434
       DOS:  cpu time    0.0015: real time    0.0015
    --------------------------------------------
      LOOP:  cpu time   23.6496: real time   24.1456

 eigenvalue-minimisations  : 19679
 total energy-change (2. order) :-0.1910945E+01  (-0.5320701E+00)
 number of electron     672.0000000 magnetization      48.0000000
 augmentation part      672.0000000 magnetization      48.0000000

 Free energy of the ion-electron system (eV)
  ---------------------------------------------------
  alpha Z        PSCENC =      2652.81237852
  Ewald energy   TEWEN  =    -41899.39173127
  -Hartree energ DENC   =    -25716.57501636
  -exchange      EXHF   =         0.00000000
  -V(xc)+E(xc)   XCENC  =      3605.68267318
  PAW double counting   =     55594.23204139   -59034.67079123
  entropy T*S    EENTRO =        -0.00000000
  eigenvalues    EBANDS =    -10278.41279970
  atomic energy  EATOM  =     73862.19814772
  Solvation  Ediel_sol  =         0.00000000
  ---------------------------------------------------
  free energy    TOTEN  =     -1214.12509774 eV

  energy without entropy =    -1214.12509774  energy(sigma->0) =    -1214.12509774


--------------------------------------------------------------------------------------------------------




--------------------------------------- Iteration      1(  11)  ---------------------------------------


    EDDIAG:  cpu time    4.4749: real time    4.8302
  RMM-DIIS:  cpu time   19.5068: real time   19.5506
    ORTHCH:  cpu time    1.1637: real time    1.2438
       DOS:  cpu time    0.0016: real time    0.0016
    --------------------------------------------
      LOOP:  cpu time   25.1470: real time   25.6262

 eigenvalue-minimisations  : 22568
 total energy-change (2. order) : 0.6996159E-01  (-0.4364996E-01)
 number of electron     672.0000000 magnetization      48.0000000
 augmentation part      672.0000000 magnetization      48.0000000

 Free energy of the ion-electron system (eV)
  ---------------------------------------------------
  alpha Z        PSCENC =      2652.81237852
  Ewald energy   TEWEN  =    -41899.39173127
  -Hartree energ DENC   =    -25716.57501636
  -exchange      EXHF   =         0.00000000
  -V(xc)+E(xc)   XCENC  =      3605.68267318
  PAW double counting   =     55594.23204139   -59034.67079123
  entropy T*S    EENTRO =        -0.00000000
  eigenvalues    EBANDS =    -10278.34283811
  atomic energy  EATOM  =     73862.19814772
  Solvation  Ediel_sol  =         0.00000000
  ---------------------------------------------------
  free energy    TOTEN  =     -1214.05513616 eV

  energy without entropy =    -1214.05513616  energy(sigma->0) =    -1214.05513616


--------------------------------------------------------------------------------------------------------




--------------------------------------- Iteration      1(  12)  ---------------------------------------


    EDDIAG:  cpu time    4.4553: real time    4.8218
  RMM-DIIS:  cpu time   21.9537: real time   21.9957
    ORTHCH:  cpu time    1.1608: real time    1.2386
       DOS:  cpu time    0.0019: real time    0.0019
    CHARGE:  cpu time    1.7750: real time    1.7756
    MIXING:  cpu time    0.0010: real time    0.0012
    --------------------------------------------
      LOOP:  cpu time   29.3477: real time   29.8347

 eigenvalue-minimisations  : 24327
 total energy-change (2. order) :-0.8886214E-03  (-0.4357345E-02)
 number of electron     671.9999602 magnetization      47.9999985
 augmentation part      239.0277700 magnetization      29.0307014

 Broyden mixing:
  rms(total) = 0.12505E+02    rms(broyden)= 0.12496E+02
  rms(prec ) = 0.14366E+02
  weight for this iteration     100.00

 Free energy of the ion-electron system (eV)
  ---------------------------------------------------
  alpha Z        PSCENC =      2652.81237852
  Ewald energy   TEWEN  =    -41899.39173127
  -Hartree energ DENC   =    -25716.57501636
  -exchange      EXHF   =         0.00000000
  -V(xc)+E(xc)   XCENC  =      3605.68267318
  PAW double counting   =     55594.23204139   -59034.67079123
  entropy T*S    EENTRO =        -0.00000000
  eigenvalues    EBANDS =    -10278.34372673
  atomic energy  EATOM  =     73862.19814772
  Solvation  Ediel_sol  =         0.00000000
  ---------------------------------------------------
  free energy    TOTEN  =     -1214.05602478 eV

  energy without entropy =    -1214.05602478  energy(sigma->0) =    -1214.05602478


--------------------------------------------------------------------------------------------------------




--------------------------------------- Iteration      1(  13)  ---------------------------------------


    POTLOK:  cpu time    0.1711: real time    0.1725
    SETDIJ:  cpu time    4.9915: real time    4.9929
    EDDIAG:  cpu time    4.5031: real time    4.8721
  RMM-DIIS:  cpu time   17.4727: real time   17.5161
    ORTHCH:  cpu time    1.1624: real time    1.2403
       DOS:  cpu time    0.0016: real time    0.0016
    CHARGE:  cpu time    1.7782: real time    1.7796
    MIXING:  cpu time    0.0009: real time    0.0010
    --------------------------------------------
      LOOP:  cpu time   30.0815: real time   30.5759

 eigenvalue-minimisations  : 18777
 total energy-change (2. order) : 0.2267800E+03  (-0.1223200E+03)
 number of electron     671.9999582 magnetization      47.9999980
 augmentation part      269.2777528 magnetization      26.2515730

 Broyden mixing:
  rms(total) = 0.14035E+02    rms(broyden)= 0.14032E+02
  rms(prec ) = 0.15822E+02
  weight for this iteration     100.00

 eigenvalues of (default mixing * dielectric matrix)
  average eigenvalue GAMMA=   0.3163
  0.3163

 Free energy of the ion-electron system (eV)
  ---------------------------------------------------
  alpha Z        PSCENC =      2652.81237852
  Ewald energy   TEWEN  =    -41899.39173127
  -Hartree energ DENC   =    -25040.66710364
  -exchange      EXHF   =         0.00000000
  -V(xc)+E(xc)   XCENC  =      3695.70791140
  PAW double counting   =     59851.31427857   -63276.10240898
  entropy T*S    EENTRO =        -0.09988338
  eigenvalues    EBANDS =    -10833.04761859
  atomic energy  EATOM  =     73862.19814772
  Solvation  Ediel_sol  =         0.00000000
  ---------------------------------------------------
  free energy    TOTEN  =      -987.27602963 eV

  energy without entropy =     -987.17614626  energy(sigma->0) =     -987.22608795


--------------------------------------------------------------------------------------------------------




--------------------------------------- Iteration      1(  14)  ---------------------------------------


    POTLOK:  cpu time    0.1782: real time    0.1799
    SETDIJ:  cpu time    4.9799: real time    4.9808
    EDDIAG:  cpu time    4.4965: real time    4.8516
  RMM-DIIS:  cpu time   17.7230: real time   17.8127
    ORTHCH:  cpu time    1.1743: real time    1.2541
       DOS:  cpu time    0.0011: real time    0.0011
    CHARGE:  cpu time    1.7733: real time    1.7748
    MIXING:  cpu time    0.0010: real time    0.0010
    --------------------------------------------
      LOOP:  cpu time   30.3273: real time   30.8559

 eigenvalue-minimisations  : 19384
 total energy-change (2. order) : 0.7109556E+02  (-0.1812630E+02)
 number of electron     671.9999587 magnetization      47.9999969
 augmentation part      246.4862028 magnetization      32.1329491

 Broyden mixing:
  rms(total) = 0.52580E+01    rms(broyden)= 0.52535E+01
  rms(prec ) = 0.56973E+01
  weight for this iteration     100.00

 eigenvalues of (default mixing * dielectric matrix)
  average eigenvalue GAMMA=   0.7279
  1.1001  0.3556

 Free energy of the ion-electron system (eV)
  ---------------------------------------------------
  alpha Z        PSCENC =      2652.81237852
  Ewald energy   TEWEN  =    -41899.39173127
  -Hartree energ DENC   =    -25657.06774467
  -exchange      EXHF   =         0.00000000
  -V(xc)+E(xc)   XCENC  =      3672.63153573
  PAW double counting   =     63224.25579568   -66706.26637517
  entropy T*S    EENTRO =        -0.00000000
  eigenvalues    EBANDS =    -10065.35247503
  atomic energy  EATOM  =     73862.19814772
  Solvation  Ediel_sol  =         0.00000000
  ---------------------------------------------------
  free energy    TOTEN  =      -916.18046848 eV

  energy without entropy =     -916.18046848  energy(sigma->0) =     -916.18046848


--------------------------------------------------------------------------------------------------------




--------------------------------------- Iteration      1(  15)  ---------------------------------------


    POTLOK:  cpu time    0.1746: real time    0.1756
    SETDIJ:  cpu time    4.9895: real time    4.9907
    EDDIAG:  cpu time    4.4877: real time    4.8299
  RMM-DIIS:  cpu time   18.2880: real time   18.3796
    ORTHCH:  cpu time    1.1633: real time    1.2442
       DOS:  cpu time    0.0011: real time    0.0011
    CHARGE:  cpu time    1.7734: real time    1.7768
    MIXING:  cpu time    0.0009: real time    0.0009
    --------------------------------------------
      LOOP:  cpu time   30.8786: real time   31.3988

 eigenvalue-minimisations  : 20278
 total energy-change (2. order) : 0.1464996E+02  (-0.2055826E+01)
 number of electron     671.9999586 magnetization      47.9999962
 augmentation part      249.6877006 magnetization      33.8178808

 Broyden mixing:
  rms(total) = 0.21581E+01    rms(broyden)= 0.21578E+01
  rms(prec ) = 0.22360E+01
  weight for this iteration     100.00

 eigenvalues of (default mixing * dielectric matrix)
  average eigenvalue GAMMA=   0.9424
  1.6956  0.3797  0.7520

 Free energy of the ion-electron system (eV)
  ---------------------------------------------------
  alpha Z        PSCENC =      2652.81237852
  Ewald energy   TEWEN  =    -41899.39173127
  -Hartree energ DENC   =    -25573.87579069
  -exchange      EXHF   =         0.00000000
  -V(xc)+E(xc)   XCENC  =      3706.18514726
  PAW double counting   =     67286.27811713   -70808.28901326
  entropy T*S    EENTRO =        -0.00000000
  eigenvalues    EBANDS =    -10127.44776258
  atomic energy  EATOM  =     73862.19814772
  Solvation  Ediel_sol  =         0.00000000
  ---------------------------------------------------
  free energy    TOTEN  =      -901.53050716 eV

  energy without entropy =     -901.53050716  energy(sigma->0) =     -901.53050716


--------------------------------------------------------------------------------------------------------




--------------------------------------- Iteration      1(  16)  ---------------------------------------


    POTLOK:  cpu time    0.1673: real time    0.1688
    SETDIJ:  cpu time    5.0415: real time    5.0453
    EDDIAG:  cpu time    4.5284: real time    4.8895
  RMM-DIIS:  cpu time   17.4501: real time   17.5135
    ORTHCH:  cpu time    1.1629: real time    1.2438
       DOS:  cpu time    0.0012: real time    0.0012
    CHARGE:  cpu time    1.7767: real time    1.7806
    MIXING:  cpu time    0.0010: real time    0.0010
    --------------------------------------------
      LOOP:  cpu time   30.1290: real time   30.6437

 eigenvalue-minimisations  : 19059
 total energy-change (2. order) :-0.1626293E+01  (-0.6357539E+00)
 number of electron     671.9999582 magnetization      47.9999960
 augmentation part      251.1733339 magnetization      33.9153039

 Broyden mixing:
  rms(total) = 0.14594E+01    rms(broyden)= 0.14589E+01
  rms(prec ) = 0.15484E+01
  weight for this iteration     100.00

 eigenvalues of (default mixing * dielectric matrix)
  average eigenvalue GAMMA=   0.9702
  2.0724  0.9017  0.3863  0.5203

 Free energy of the ion-electron system (eV)
  ---------------------------------------------------
  alpha Z        PSCENC =      2652.81237852
  Ewald energy   TEWEN  =    -41899.39173127
  -Hartree energ DENC   =    -25522.83720285
  -exchange      EXHF   =         0.00000000
  -V(xc)+E(xc)   XCENC  =      3707.11645215
  PAW double counting   =     70176.88581482   -73728.18083300
  entropy T*S    EENTRO =        -0.00000000
  eigenvalues    EBANDS =    -10151.75982600
  atomic energy  EATOM  =     73862.19814772
  Solvation  Ediel_sol  =         0.00000000
  ---------------------------------------------------
  free energy    TOTEN  =      -903.15679991 eV

  energy without entropy =     -903.15679991  energy(sigma->0) =     -903.15679991


--------------------------------------------------------------------------------------------------------




--------------------------------------- Iteration      1(  17)  ---------------------------------------


    POTLOK:  cpu time    0.1739: real time    0.1749
    SETDIJ:  cpu time    5.0492: real time    5.0529
    EDDIAG:  cpu time    4.4732: real time    4.8285
  RMM-DIIS:  cpu time   18.2631: real time   18.2946
    ORTHCH:  cpu time    1.1753: real time    1.2547
       DOS:  cpu time    0.0014: real time    0.0014
    CHARGE:  cpu time    1.7761: real time    1.7778
    MIXING:  cpu time    0.0020: real time    0.0020
    --------------------------------------------
      LOOP:  cpu time   30.9141: real time   31.3869

 eigenvalue-minimisations  : 20433
 total energy-change (2. order) : 0.1370886E+00  (-0.6546371E-01)
 number of electron     671.9999584 magnetization      47.9999959
 augmentation part      251.1158799 magnetization      33.9128815

 Broyden mixing:
  rms(total) = 0.78514E+00    rms(broyden)= 0.78501E+00
  rms(prec ) = 0.88667E+00
  weight for this iteration     100.00

 eigenvalues of (default mixing * dielectric matrix)
  average eigenvalue GAMMA=   0.9935
  2.2242  1.1211  0.3768  0.6856  0.5598

 Free energy of the ion-electron system (eV)
  ---------------------------------------------------
  alpha Z        PSCENC =      2652.81237852
  Ewald energy   TEWEN  =    -41899.39173127
  -Hartree energ DENC   =    -25514.16047134
  -exchange      EXHF   =         0.00000000
  -V(xc)+E(xc)   XCENC  =      3704.35197995
  PAW double counting   =     71051.27668264   -74611.13091539
  entropy T*S    EENTRO =        -0.00000000
  eigenvalues    EBANDS =    -10148.97578212
  atomic energy  EATOM  =     73862.19814772
  Solvation  Ediel_sol  =         0.00000000
  ---------------------------------------------------
  free energy    TOTEN  =      -903.01971128 eV

  energy without entropy =     -903.01971128  energy(sigma->0) =     -903.01971128


--------------------------------------------------------------------------------------------------------




--------------------------------------- Iteration      1(  18)  ---------------------------------------


    POTLOK:  cpu time    0.1741: real time    0.1754
    SETDIJ:  cpu time    5.0184: real time    5.0194
    EDDIAG:  cpu time    4.4467: real time    4.7952
  RMM-DIIS:  cpu time   17.8040: real time   17.8473
    ORTHCH:  cpu time    1.1622: real time    1.2411
       DOS:  cpu time    0.0016: real time    0.0016
    CHARGE:  cpu time    1.7745: real time    1.7751
    MIXING:  cpu time    0.0013: real time    0.0013
    --------------------------------------------
      LOOP:  cpu time   30.3828: real time   30.8565

 eigenvalue-minimisations  : 19082
 total energy-change (2. order) : 0.4137542E+00  (-0.6798614E-01)
 number of electron     671.9999584 magnetization      47.9999959
 augmentation part      250.5985267 magnetization      33.8740035

 Broyden mixing:
  rms(total) = 0.28390E+00    rms(broyden)= 0.28361E+00
  rms(prec ) = 0.29945E+00
  weight for this iteration     100.00

 eigenvalues of (default mixing * dielectric matrix)
  average eigenvalue GAMMA=   1.0199
  2.4594  1.3702  0.8507  0.3783  0.5879  0.4731

[...]
   4      -0.882    -0.957     1.839    -0.109     0.007    -0.048
   5      -0.813    -0.780     1.592    -0.296    -0.044    -0.114
   6      -0.650    -0.810     1.460     0.141    -0.133     0.024
   7      -1.010    -0.597     1.608     0.001    -0.050    -0.014
   8      -0.870    -0.888     1.758    -0.256     0.017     0.062
   9      -0.960    -0.496     1.456     0.022     0.011    -0.081
  10      -0.685    -1.055     1.740     0.026     0.106     0.046
  11      -0.627    -0.800     1.426     0.106    -0.024    -0.139
  12      -0.943    -0.907     1.850    -0.208     0.058    -0.019
  13      -0.860    -1.088     1.948    -0.100    -0.008    -0.018
  14      -0.636    -0.784     1.420     0.187    -0.012     0.025
  15      -0.796    -1.034     1.829    -0.093    -0.002    -0.063
  16      -0.884    -0.556     1.440     0.042     0.183     0.067
  17       1.542     1.297    -2.839     0.183     0.109     0.000
  18       1.453     1.555    -3.007     0.029    -0.183     0.089
  19       1.426     1.527    -2.953    -0.129    -0.058     0.051
  20       1.464     1.465    -2.929    -0.006     0.123    -0.104
  21       1.631     1.322    -2.953     0.095     0.152    -0.012
  22       1.439     1.435    -2.874     0.077    -0.173     0.096
  23       1.479     1.414    -2.894     0.036    -0.176     0.129
  24       1.386     1.567    -2.953    -0.043     0.195    -0.036
  25       0.224    -0.085    -0.139     0.544     0.740     1.183
  26      -1.850     1.760     0.091    -0.761    -0.120     0.813
  27      -0.261    -0.215     0.477    -0.483    -0.261    -1.224
  28      -0.887     0.084     0.803    -0.939     0.061    -0.378
  29      -1.211     0.743     0.468    -0.661     1.128     0.176
  30       0.220     1.842    -2.063    -0.939    -0.045     1.595
  31       0.879     0.202    -1.081    -1.333     0.736    -0.020
  32       0.936    -0.507    -0.430     0.286     0.473     1.193
  33       0.910     0.194    -1.105    -0.047    -0.304     0.365
  34      -1.423     0.534     0.888    -0.384    -0.813     1.041
  35      -1.565    -1.230     2.795     0.178     0.125     0.575
  36      -0.427    -0.393     0.820    -1.306    -0.631    -0.770
  37       0.671    -1.260     0.589     0.995     0.199    -0.967
  38      -0.738     0.217     0.522     1.277    -0.959     0.196
  39       0.317     0.278    -0.595    -0.241    -0.528     0.246
  40      -0.695    -0.413     1.108    -1.261    -0.325     0.743
  41      -3.176     1.797     1.380    -3.653     1.952    -4.629
  42      -4.760     3.796     0.964     4.665     0.798     4.073
  43       4.129    -5.800     1.672     0.032    -5.370     0.855
  44      -5.356     5.186     0.169    -4.520    -2.069     3.381
  45       3.728    -6.449     2.721     0.444     5.285    -0.437
  46      -4.027     3.905     0.122     4.580    -1.571    -4.082
  47      -3.962     4.090    -0.128    -4.810     2.497    -3.340
  48       4.677    -5.928     1.252    -0.011    -3.572     0.253
  49      -4.239     4.366    -0.127     3.620     2.802     4.626
  50      -3.058     3.824    -0.765    -4.440    -1.869     4.233
  51      -3.612     2.661     0.951     3.972    -1.644    -5.121
  52       6.417    -5.647    -0.769    -1.194     3.855     0.262
  53      -5.035     6.483    -1.449    -5.178     2.459    -3.850
  54      -3.565     3.533     0.033     6.129     1.695     4.400
  55       6.015    -7.664     1.650     1.459    -5.637     0.945
  56      -3.641     4.522    -0.881    -4.631    -2.122     3.736
  57       4.959    -4.635    -0.324     0.146     5.078     0.726
  58      -3.064     1.857     1.207     5.690    -4.598    -2.854
  59      -2.682     5.519    -2.837    -5.901     2.012    -3.118
  60       5.324    -4.533    -0.791    -1.111    -3.467     0.620
  61      -3.063     2.735     0.328     4.785     1.604     4.989
  62      -2.886     1.982     0.904    -5.298    -0.863     5.682
  63      -0.226    -0.518     0.743     5.487    -1.910    -4.147
  64       6.155    -7.458     1.303     1.465     4.547    -0.023
  65      -1.519     2.849    -1.330    -6.009     1.586    -3.335
  66      -4.694     3.319     1.375     3.823     1.787     4.486
  67       4.612    -5.677     1.065     0.530    -3.632     0.185
  68      -4.765     2.714     2.052    -3.673    -2.785     5.430
  69       4.124    -6.128     2.004    -0.184     4.604    -1.768
  70      -2.598     2.633    -0.035     4.346    -2.114    -3.153
  71      -2.109     3.113    -1.004    -6.139     2.062    -2.502
  72       3.268    -5.925     2.657     1.016    -5.593    -0.291
  73      -5.200     3.719     1.482     3.661     2.273     3.738
  74      -3.992     2.980     1.012    -5.464    -2.769     3.641
  75      -3.728     2.008     1.720     3.957    -1.886    -4.074
  76       5.559    -4.723    -0.836    -2.414     3.746    -0.945
  77      -3.222     0.898     2.324    -3.786     0.779    -5.033
  78      -3.040     4.410    -1.369     6.994     0.005     4.047
  79       5.134    -5.874     0.741     1.610    -5.946     0.877
  80      -2.778     2.533     0.244    -4.881    -4.081     4.028
  81       5.638    -4.539    -1.099    -1.077     4.202    -1.663
  82      -2.822     0.910     1.912     4.826    -2.943    -2.454
  83      -1.903     2.898    -0.995    -5.498     1.040    -4.137
  84       3.506    -6.497     2.991     0.071    -3.757    -1.129
  85      -3.223     2.932     0.290     3.335     4.630     3.848
  86      -3.234     2.284     0.950    -5.585    -3.221     4.248
  87      -1.070    -0.147     1.218     4.809    -1.961    -3.999
  88       5.792    -6.823     1.032    -1.731     5.134     1.629
 ---------------------------------------------------------------------


 Total hyperfine coupling parameters after diagonalization (MHz)
 (convention: |A_zz| > |A_xx| > |A_yy|)
 ----------------------------------------------------------------------
  ion      A_xx      A_yy      A_zz     asymmetry (A_yy - A_xx)/ A_zz 
 ----------------------------------------------------------------------
   1       0.396    -0.090     2.931      -0.166
   2       2.528     2.071     4.663      -0.098
   3       2.226     1.832     4.267      -0.092
   4      -0.155     0.075     2.721       0.085
   5       1.619     1.024     3.719      -0.160
   6       2.312     1.989     4.354      -0.074
   7       2.390     1.976     4.596      -0.090
   8       0.560     0.047     2.943      -0.175
   9       1.886     1.422     3.843      -0.121
  10       0.837     0.467     3.270      -0.113
  11       2.245     1.969     4.260      -0.065
  12       0.545     0.128     3.114      -0.134
  13      -0.260     0.044     2.814       0.108
  14       1.919     1.516     3.848      -0.105
  15       0.773     0.470     3.367      -0.090
  16       1.749     1.401     3.760      -0.092
  17      12.339     8.298    12.782      -0.316
  18      14.173     9.702    14.281      -0.313
  19      13.857     9.564    14.135      -0.304
  20      14.441    10.046    14.458      -0.304
  21      14.666    10.412    15.033      -0.283
  22      13.235     8.983    13.382      -0.318
  23      13.652     9.341    13.744      -0.314
  24      14.395    10.050    14.590      -0.298
  25      95.853    94.876    97.841      -0.010
  26      96.036    94.254    98.488      -0.018
  27      97.089    95.696    98.503      -0.014
  28     101.965   100.126   102.690      -0.018
  29      99.572    96.803    99.870      -0.028
  30      97.826    95.243   100.637      -0.026
  31      95.798    94.870    98.381      -0.009
  32      97.108    95.155    98.206      -0.020
  33      96.799    95.293    97.500      -0.015
  34      94.867    93.494    97.164      -0.014
  35      94.307    93.896    98.422      -0.004
  36      98.738    95.817    99.068      -0.029
  37      94.805    91.942    95.197      -0.030
  38      97.637    95.085    98.406      -0.026
  39      93.933    93.003    94.626      -0.010
  40      97.424    95.449    99.014      -0.020
  41       5.433     2.812    15.673      -0.167
  42       7.664     1.939    17.024      -0.336
  43       2.676    -0.817    13.569      -0.257
  44       7.473     1.877    17.650      -0.317
  45       5.369     0.830    15.900      -0.285
  46       6.793     2.847    17.305      -0.228
  47       6.583     2.193    16.869      -0.260
  48       6.859     1.909    14.775      -0.335
  49       4.634     1.707    16.444      -0.178
  50       2.757     0.608    14.203      -0.151
  51       5.808     2.850    16.943      -0.175
  52       4.545     0.974    15.006      -0.238
  53       7.537     3.317    20.721      -0.204
  54       7.005     2.013    18.597      -0.268
  55       4.697    -1.649    16.378      -0.387
  56       4.080     1.080    15.413      -0.195
  57       2.859     1.203    14.122      -0.117
  58       6.966     0.745    17.175      -0.362
  59       6.288     4.337    19.854      -0.098
  60       2.534     0.208    11.913      -0.195
  61       5.642     2.213    16.878      -0.203
  62       7.304     1.849    18.013      -0.303
  63       4.491    -0.430    13.692      -0.359
  64       7.730     1.412    18.037      -0.350
  65       4.660     1.408    15.667      -0.208
  66       5.047     0.841    15.312      -0.275
  67       4.861     0.293    12.914      -0.354
  68       4.107     0.776    16.417      -0.203
  69       6.259     1.031    15.496      -0.337
  70       5.331     2.275    14.452      -0.211
  71       4.885     0.787    15.275      -0.268
  72       4.196     0.711    15.390      -0.226
  73       6.836     1.487    16.026      -0.334
  74       8.036     2.581    18.299      -0.298
  75       6.269     2.271    15.528      -0.258
  76       4.945     2.235    15.321      -0.177
  77       5.674     1.127    14.811      -0.307
  78      10.372     4.143    21.840      -0.285
  79      -2.737     1.393    13.310       0.310
  80       5.630     2.181    17.414      -0.198
  81       3.299     0.669    13.814      -0.190
  82       4.622    -0.993    12.251      -0.458
  83       6.529     2.758    17.058      -0.221
  84       4.579    -1.646    12.063      -0.516
  85       4.591    -0.049    14.703      -0.316
  86       5.892     1.577    17.509      -0.246
  87      -2.588     1.596    10.447       0.401
  88       7.900     1.392    18.284      -0.356
 ---------------------------------------------------------------------



--------------------------------------------------------------------------------------------------------


 stress matrix after NEB project (eV)
    -46.89778     -1.74026     -5.89477
     -1.74706    -46.35518     -6.37692
     -5.85510     -6.39260    -64.15693
  FORCES: max atom, RMS     1.904932    1.035613
  FORCE total and by dimension    9.714910    1.799659
  Stress total and by dimension   92.849113   64.156927
     LOOP+:  cpu time  737.0653: real time  750.3291
    4ORBIT:  cpu time    0.0000: real time    0.0000
 


 total charge     
 
# of ion       s       p       d       tot
------------------------------------------
    1        0.051   5.995   0.000   6.046
    2        0.051   5.994   0.000   6.045
    3        0.049   5.992   0.000   6.041
    4        0.048   5.990   0.000   6.038
    5        0.052   5.995   0.000   6.047
    6        0.047   5.990   0.000   6.037
    7        0.051   5.994   0.000   6.044
    8        0.052   5.996   0.000   6.048
    9        0.049   5.991   0.000   6.040
   10        0.051   5.995   0.000   6.046
   11        0.051   5.994   0.000   6.045
   12        0.051   5.994   0.000   6.045
   13        0.052   5.997   0.000   6.048
   14        0.050   5.993   0.000   6.043
   15        0.050   5.993   0.000   6.043
   16        0.050   5.994   0.000   6.045
   17        0.143   6.118   0.076   6.337
   18        0.154   6.138   0.092   6.383
   19        0.149   6.128   0.084   6.360
   20        0.148   6.127   0.083   6.359
   21        0.151   6.132   0.087   6.370
   22        0.146   6.123   0.080   6.349
   23        0.144   6.121   0.078   6.344
   24        0.144   6.120   0.078   6.342
   25        0.381   6.470   4.845  11.696
   26        0.383   6.474   4.848  11.706
   27        0.385   6.474   4.854  11.714
   28        0.365   6.433   4.813  11.611
   29        0.372   6.448   4.827  11.648
   30        0.370   6.443   4.824  11.637
   31        0.370   6.442   4.820  11.631
   32        0.370   6.444   4.820  11.634
   33        0.377   6.459   4.837  11.673
   34        0.379   6.464   4.834  11.677
   35        0.393   6.492   4.868  11.754
   36        0.377   6.461   4.835  11.673
   37        0.377   6.450   4.834  11.660
   38        0.365   6.432   4.816  11.613
   39        0.379   6.463   4.839  11.682
   40        0.360   6.420   4.797  11.578
   41        1.600   3.507   0.000   5.107
   42        1.598   3.516   0.000   5.113
   43        1.601   3.503   0.000   5.104
   44        1.599   3.522   0.000   5.121
   45        1.599   3.510   0.000   5.109
   46        1.601   3.504   0.000   5.104
   47        1.599   3.498   0.000   5.098
   48        1.599   3.521   0.000   5.119
   49        1.600   3.516   0.000   5.115
   50        1.600   3.491   0.000   5.091
   51        1.599   3.499   0.000   5.099
   52        1.600   3.516   0.000   5.116
   53        1.601   3.490   0.000   5.092
   54        1.600   3.525   0.000   5.125
   55        1.601   3.478   0.000   5.079
   56        1.600   3.481   0.000   5.081
   57        1.600   3.505   0.000   5.105
   58        1.599   3.504   0.000   5.103
   59        1.601   3.485   0.000   5.086
   60        1.596   3.494   0.000   5.090
   61        1.598   3.513   0.000   5.111
   62        1.600   3.492   0.000   5.091
   63        1.597   3.495   0.000   5.092
   64        1.600   3.509   0.000   5.109
   65        1.602   3.501   0.000   5.103
   66        1.599   3.509   0.000   5.108
   67        1.597   3.527   0.000   5.125
   68        1.600   3.512   0.000   5.112
   69        1.598   3.502   0.000   5.100
   70        1.597   3.509   0.000   5.105
   71        1.598   3.475   0.000   5.073
   72        1.601   3.507   0.000   5.108
   73        1.597   3.504   0.000   5.101
   74        1.604   3.527   0.000   5.131
   75        1.597   3.520   0.000   5.117
   76        1.600   3.535   0.000   5.134
   77        1.598   3.500   0.000   5.098
   78        1.601   3.504   0.000   5.106
   79        1.598   3.473   0.000   5.071
   80        1.601   3.482   0.000   5.082
   81        1.596   3.481   0.000   5.077
   82        1.596   3.523   0.000   5.118
   83        1.601   3.474   0.000   5.075
   84        1.599   3.544   0.000   5.143
   85        1.598   3.497   0.000   5.095
   86        1.597   3.495   0.000   5.092
   87        1.597   3.491   0.000   5.088
   88        1.600   3.480   0.000   5.080
--------------------------------------------------
tot         84.750 416.314  77.969 579.034
 


 magnetization (x)
 
# of ion       s       p       d       tot
------------------------------------------
    1        0.001   0.000   0.000   0.001
    2        0.002   0.000   0.000   0.002
    3        0.002   0.000   0.000   0.002
    4        0.001   0.000   0.000   0.001
    5        0.002   0.000   0.000   0.002
    6        0.002   0.000   0.000   0.002
    7        0.002   0.000   0.000   0.002
    8        0.001   0.000   0.000   0.001
    9        0.002  -0.000   0.000   0.002
   10        0.001   0.001   0.000   0.002
   11        0.002   0.000   0.000   0.002
   12        0.001   0.000   0.000   0.001
   13        0.001   0.000   0.000   0.001
   14        0.002   0.000   0.000   0.002
   15        0.001   0.001   0.000   0.002
   16        0.002  -0.000   0.000   0.001
   17        0.006   0.002   0.001   0.009
   18        0.007   0.002   0.001   0.010
   19        0.007   0.002   0.001   0.010
   20        0.007   0.003   0.001   0.011
   21        0.007   0.003   0.001   0.011
   22        0.007   0.002   0.001   0.009
   23        0.007   0.002   0.001   0.010
   24        0.007   0.003   0.001   0.011
   25        0.015   0.030   2.745   2.790
   26        0.015   0.030   2.741   2.786
   27        0.016   0.032   2.727   2.774
   28        0.017   0.031   2.780   2.828
   29        0.016   0.031   2.763   2.810
   30        0.016   0.030   2.755   2.800
   31        0.015   0.029   2.764   2.808
   32        0.015   0.030   2.764   2.809
   33        0.016   0.031   2.745   2.791
   34        0.015   0.030   2.745   2.790
   35        0.015   0.032   2.715   2.762
   36        0.016   0.030   2.752   2.798
   37        0.014   0.028   2.752   2.795
   38        0.015   0.029   2.769   2.813
   39        0.015   0.029   2.749   2.793
   40        0.015   0.029   2.792   2.836
   41        0.002   0.032   0.000   0.034
   42        0.002   0.051   0.000   0.053
   43        0.002   0.015   0.000   0.017
   44        0.002   0.047   0.000   0.049
   45        0.002   0.036   0.000   0.038
   46        0.002   0.040   0.000   0.042
   47        0.002   0.042   0.000   0.044
   48        0.002   0.040   0.000   0.042
   49        0.002   0.039   0.000   0.041
   50        0.002   0.014   0.000   0.016
   51        0.002   0.037   0.000   0.040
   52        0.002   0.021   0.000   0.023
   53        0.003   0.053   0.000   0.055
   54        0.002   0.055   0.000   0.058
   55        0.002   0.027   0.000   0.029
   56        0.002   0.023   0.000   0.025
   57        0.002   0.020   0.000   0.022
   58        0.002   0.042   0.000   0.044
   59        0.003   0.044   0.000   0.046
   60        0.001   0.012   0.000   0.014
   61        0.002   0.043   0.000   0.045
   62        0.002   0.045   0.000   0.047
   63        0.002   0.022   0.000   0.024
   64        0.002   0.051   0.000   0.053
   65        0.002   0.030   0.000   0.032
   66        0.002   0.031   0.000   0.033
   67        0.002   0.031   0.000   0.033
   68        0.002   0.031   0.000   0.033
   69        0.002   0.035   0.000   0.037
   70        0.002   0.031   0.000   0.033
   71        0.002   0.023   0.000   0.025
   72        0.002   0.029   0.000   0.031
   73        0.002   0.037   0.000   0.039
   74        0.002   0.057   0.000   0.059
   75        0.002   0.040   0.000   0.042
   76        0.002   0.034   0.000   0.036
   77        0.002   0.036   0.000   0.038
   78        0.003   0.067   0.000   0.070
   79        0.002  -0.009   0.000  -0.007
   80        0.002   0.034   0.000   0.036
   81        0.002   0.017   0.000   0.019
   82        0.001   0.026   0.000   0.028
   83        0.002   0.026   0.000   0.028
   84        0.001   0.030   0.000   0.032
   85        0.002   0.018   0.000   0.020
   86        0.002   0.042   0.000   0.044
   87        0.001  -0.008   0.000  -0.007
   88        0.003   0.042   0.000   0.044
--------------------------------------------------
tot          0.421   2.085  44.066  46.572
 

 total amount of memory used by VASP MPI-rank0    94420. kBytes
=======================================================================

   base      :      30000. kBytes
   nonlr-proj:      13661. kBytes
   fftplans  :       1275. kBytes
   grid      :      22786. kBytes
   one-center:       2737. kBytes
   wavefun   :      23961. kBytes
 
  
  
 General timing and accounting informations for this job:
 ========================================================
  
                  Total CPU time used (sec):      758.139
                            User time (sec):      750.222
                          System time (sec):        7.917
                         Elapsed time (sec):      774.600
  
                   Maximum memory used (kb):      192424.
                   Average memory used (kb):           0.
  
                          Minor page faults:       315401
                          Major page faults:            0
                 Voluntary context switches:       253282
