 vasp.5.4.4.18Apr17-6-g9f103f2a35 (build Dec 02 2020 12:53:39) complex          
  
 executed on             LinuxIFC date 2021.08.03  09:49:59
 running on   96 total cores
 distrk:  each k-point on   96 cores,    1 groups
 distr:  one band on NCORES_PER_BAND=   1 cores,   96 groups


--------------------------------------------------------------------------------------------------------


 INCAR:
 POTCAR:    PAW_PBE Na_pv 19Sep2006               
 POTCAR:    PAW_PBE Mg_pv 13Apr2007               
 POTCAR:    PAW_PBE Mn_pv 02Aug2007               
 POTCAR:    PAW_PBE O 08Apr2002                   

 ----------------------------------------------------------------------------- 
|                                                                             |
|           W    W    AA    RRRRR   N    N  II  N    N   GGGG   !!!           |
|           W    W   A  A   R    R  NN   N  II  NN   N  G    G  !!!           |
|           W    W  A    A  R    R  N N  N  II  N N  N  G       !!!           |
|           W WW W  AAAAAA  RRRRR   N  N N  II  N  N N  G  GGG   !            |
|           WW  WW  A    A  R   R   N   NN  II  N   NN  G    G                |
|           W    W  A    A  R    R  N    N  II  N    N   GGGG   !!!           |
|                                                                             |
|      For optimal performance we recommend to set                            |
|        NCORE= 4 - approx SQRT( number of cores)                             |
|      NCORE specifies how many cores store one orbital (NPAR=cpu/NCORE).     |
|      This setting can  greatly improve the performance of VASP for DFT.     |
|      The default,   NCORE=1            might be grossly inefficient         |
|      on modern multi-core architectures or massively parallel machines.     |
|      Do your own testing !!!!                                               |
|      Unfortunately you need to use the default for GW and RPA calculations. |
|      (for HF NCORE is supported but not extensively tested yet)             |
|                                                                             |
 ----------------------------------------------------------------------------- 

 POTCAR:    PAW_PBE Na_pv 19Sep2006               
   VRHFIN =Na: p6s1                                                             
   LEXCH  = PE                                                                  
   EATOM  =   766.0439 eV,   56.3026 Ry                                         
                                                                                
   TITEL  = PAW_PBE Na_pv 19Sep2006                                             
   LULTRA =        F    use ultrasoft PP ?                                      
   IUNSCR =        1    unscreen: 0-lin 1-nonlin 2-no                           
   RPACOR =    1.800    partial core radius                                     
   POMASS =   22.990; ZVAL   =    7.000    mass and valenz                      
   RCORE  =    2.200    outmost cutoff radius                                   
   RWIGS  =    2.200; RWIGS  =    1.164    wigner-seitz radius (au A)           
   ENMAX  =  259.561; ENMIN  =  194.671 eV                                      
   ICORE  =        2    local potential                                         
   LCOR   =        T    correct aug charges                                     
   LPAW   =        T    paw PP                                                  
   EAUG   =  368.056                                                            
   DEXC   =    0.000                                                            
   RMAX   =    2.245    core radius for proj-oper                               
   RAUG   =    1.300    factor for augmentation sphere                          
   RDEP   =    2.259    radius for radial grids                                 
   RDEPT  =    1.738    core radius for aug-charge                              
                                                                                
   Atomic configuration                                                         
    5 entries                                                                   
     n  l   j            E        occ.                                          
     1  0  0.50     -1033.6933   2.0000                                         
     2  0  0.50       -56.7526   2.0000                                         
     2  1  1.50       -28.6721   6.0000                                         
     3  0  0.50        -2.7440   1.0000                                         
     3  2  1.50        -1.3606   0.0000                                         
   Description                                                                  
     l       E           TYP  RCUT    TYP  RCUT                                 
     1    -28.6720912     23  2.000                                             
     1      6.8029130     23  2.000                                             
     0     -2.7439560     23  2.200                                             
     0     34.0145650     23  2.200                                             
     2     -1.3605826     23  2.200                                             
  local pseudopotential read in
  partial core-charges read in
  partial kinetic energy density read in
  atomic valenz-charges read in
  non local Contribution for L=           1  read in
    real space projection operators read in
  non local Contribution for L=           1  read in
    real space projection operators read in
  non local Contribution for L=           0  read in
    real space projection operators read in
  non local Contribution for L=           0  read in
    real space projection operators read in
    PAW grid and wavefunctions read in
 
   number of l-projection  operators is LMAX  =           4
   number of lm-projection operators is LMMAX =           8
 
 POTCAR:    PAW_PBE Mg_pv 13Apr2007               
   VRHFIN =Mg: p6s2                                                             
   LEXCH  = PE                                                                  
   EATOM  =  1056.7344 eV,   77.6678 Ry                                         
                                                                                
   TITEL  = PAW_PBE Mg_pv 13Apr2007                                             
   LULTRA =        F    use ultrasoft PP ?                                      
   IUNSCR =        1    unscreen: 0-lin 1-nonlin 2-no                           
   RPACOR =    1.500    partial core radius                                     
   POMASS =   24.305; ZVAL   =    8.000    mass and valenz                      
   RCORE  =    2.000    outmost cutoff radius                                   
   RWIGS  =    2.000; RWIGS  =    1.058    wigner-seitz radius (au A)           
   ENMAX  =  403.929; ENMIN  =  302.947 eV                                      
   RCLOC  =    1.506    cutoff for local pot                                    
   LCOR   =        T    correct aug charges                                     
   LPAW   =        T    paw PP                                                  
   EAUG   =  758.780                                                            
   DEXC   =    0.000                                                            
   RMAX   =    2.045    core radius for proj-oper                               
   RAUG   =    1.300    factor for augmentation sphere                          
   RDEP   =    2.025    radius for radial grids                                 
   RDEPT  =    1.557    core radius for aug-charge                              
                                                                                
   Atomic configuration                                                         
    5 entries                                                                   
     n  l   j            E        occ.                                          
     1  0  0.50     -1259.6230   2.0000                                         
     2  0  0.50       -79.8442   2.0000                                         
     2  1  1.50       -46.6121   6.0000                                         
     3  0  0.50        -4.7055   2.0000                                         
     3  2  1.50        -1.3606   0.0000                                         
   Description                                                                  
     l       E           TYP  RCUT    TYP  RCUT                                 
     1    -46.6121073     23  1.600                                             
     1      2.7211652     23  1.600                                             
     0     -4.7054661     23  2.000                                             
     0     61.2262170     23  2.000                                             
     2     -1.3605826     23  2.000                                             
  local pseudopotential read in
  partial core-charges read in
  partial kinetic energy density read in
  atomic valenz-charges read in
  non local Contribution for L=           1  read in
    real space projection operators read in
  non local Contribution for L=           1  read in
    real space projection operators read in
  non local Contribution for L=           0  read in
    real space projection operators read in
  non local Contribution for L=           0  read in
    real space projection operators read in
  non local Contribution for L=           2  read in
    real space projection operators read in
    PAW grid and wavefunctions read in
 
   number of l-projection  operators is LMAX  =           5
   number of lm-projection operators is LMMAX =          13
 
 POTCAR:    PAW_PBE Mn_pv 02Aug2007               
   VRHFIN =Mn: 3p4s3d                                                           
   LEXCH  = PE                                                                  
   EATOM  =  2025.2664 eV,  148.8529 Ry                                         
                                                                                
   TITEL  = PAW_PBE Mn_pv 02Aug2007                                             
   LULTRA =        F    use ultrasoft PP ?                                      
   IUNSCR =        1    unscreen: 0-lin 1-nonlin 2-no                           
   RPACOR =    2.080    partial core radius                                     
   POMASS =   54.938; ZVAL   =   13.000    mass and valenz                      
   RCORE  =    2.300    outmost cutoff radius                                   
   RWIGS  =    2.500; RWIGS  =    1.323    wigner-seitz radius (au A)           
   ENMAX  =  269.864; ENMIN  =  202.398 eV                                      
   ICORE  =        3    local potential                                         
   LCOR   =        T    correct aug charges                                     
   LPAW   =        T    paw PP                                                  
   EAUG   =  569.085                                                            
   DEXC   =    0.000                                                            
   RMAX   =    2.343    core radius for proj-oper                               
   RAUG   =    1.300    factor for augmentation sphere                          
   RDEP   =    2.338    radius for radial grids                                 
   RDEPT  =    1.798    core radius for aug-charge                              
                                                                                
   Atomic configuration                                                         
    8 entries                                                                   
     n  l   j            E        occ.                                          
     1  0  0.50     -6424.8287   2.0000                                         
     2  0  0.50      -739.1154   2.0000                                         
     2  1  1.50      -625.3949   6.0000                                         
     3  0  0.50       -81.6100   2.0000                                         
     3  1  1.50       -50.4667   6.0000                                         
     3  2  2.50        -3.3745   6.0000                                         
     4  0  0.50        -4.1331   1.0000                                         
     4  3  2.50        -1.3606   0.0000                                         
   Description                                                                  
     l       E           TYP  RCUT    TYP  RCUT                                 
     1    -50.4666628     23  2.000                                             
     1     -1.3605826     23  2.000                                             
     2     -3.3744729     23  2.300                                             
     2     -4.7350555     23  2.300                                             
     0     -4.1331431     23  2.300                                             
     0      7.6656591     23  2.300                                             
     3      9.5240782     23  2.300                                             
  local pseudopotential read in
  partial core-charges read in
  partial kinetic energy density read in
  atomic valenz-charges read in
  non local Contribution for L=           1  read in
    real space projection operators read in
  non local Contribution for L=           1  read in
    real space projection operators read in
  non local Contribution for L=           2  read in
    real space projection operators read in
  non local Contribution for L=           2  read in
    real space projection operators read in
  non local Contribution for L=           0  read in
    real space projection operators read in
  non local Contribution for L=           0  read in
    real space projection operators read in
    PAW grid and wavefunctions read in
 
   number of l-projection  operators is LMAX  =           6
   number of lm-projection operators is LMMAX =          18
 
 POTCAR:    PAW_PBE O 08Apr2002                   
   VRHFIN =O: s2p4                                                              
   LEXCH  = PE                                                                  
   EATOM  =   432.3788 eV,   31.7789 Ry                                         
                                                                                
   TITEL  = PAW_PBE O 08Apr2002                                                 
   LULTRA =        F    use ultrasoft PP ?                                      
   IUNSCR =        1    unscreen: 0-lin 1-nonlin 2-no                           
   RPACOR =    1.200    partial core radius                                     
   POMASS =   16.000; ZVAL   =    6.000    mass and valenz                      
   RCORE  =    1.520    outmost cutoff radius                                   
   RWIGS  =    1.550; RWIGS  =    0.820    wigner-seitz radius (au A)           
   ENMAX  =  400.000; ENMIN  =  300.000 eV                                      
   ICORE  =        2    local potential                                         
   LCOR   =        T    correct aug charges                                     
   LPAW   =        T    paw PP                                                  
   EAUG   =  605.392                                                            
   DEXC   =    0.000                                                            
   RMAX   =    1.553    core radius for proj-oper                               
   RAUG   =    1.300    factor for augmentation sphere                          
   RDEP   =    1.550    radius for radial grids                                 
   RDEPT  =    1.329    core radius for aug-charge                              
                                                                                
   Atomic configuration                                                         
    4 entries                                                                   
     n  l   j            E        occ.                                          
     1  0  0.50      -514.6923   2.0000                                         
     2  0  0.50       -23.9615   2.0000                                         
     2  1  0.50        -9.0305   4.0000                                         
     3  2  1.50        -9.5241   0.0000                                         
   Description                                                                  
     l       E           TYP  RCUT    TYP  RCUT                                 
     0    -23.9615318     23  1.200                                             
     0     -9.5240782     23  1.200                                             
     1     -9.0304911     23  1.520                                             
     1      8.1634956     23  1.520                                             
     2     -9.5240782      7  1.500                                             
  local pseudopotential read in
  partial core-charges read in
  partial kinetic energy density read in
  kinetic energy density of atom read in
  atomic valenz-charges read in
  non local Contribution for L=           0  read in
    real space projection operators read in
  non local Contribution for L=           0  read in
    real space projection operators read in
  non local Contribution for L=           1  read in
    real space projection operators read in
  non local Contribution for L=           1  read in
    real space projection operators read in
    PAW grid and wavefunctions read in
 
   number of l-projection  operators is LMAX  =           4
   number of lm-projection operators is LMMAX =           8
 
 Optimization of the real space projectors (new method)

 maximal supplied QI-value         = 17.01
 optimisation between [QCUT,QGAM] = [ 10.20, 20.41] = [ 29.16,116.64] Ry 
 Optimized for a Real-space Cutoff    1.30 Angstroem

   l    n(q)    QCUT    max X(q) W(low)/X(q) W(high)/X(q)  e(spline) 
   1      7    10.205     4.940    0.23E-03    0.84E-03    0.11E-06
   1      7    10.205     6.253    0.40E-03    0.13E-02    0.18E-06
   0      8    10.205    37.438    0.23E-03    0.37E-03    0.42E-07
   0      8    10.205     9.606    0.16E-03    0.26E-03    0.31E-07
 Optimization of the real space projectors (new method)

 maximal supplied QI-value         = 18.90
 optimisation between [QCUT,QGAM] = [ 10.20, 20.41] = [ 29.16,116.64] Ry 
 Optimized for a Real-space Cutoff    1.26 Angstroem

   l    n(q)    QCUT    max X(q) W(low)/X(q) W(high)/X(q)  e(spline) 
   1      7    10.205     2.974    0.63E-04    0.14E-03    0.13E-06
   1      7    10.205     4.279    0.11E-03    0.45E-03    0.24E-06
   0      8    10.205    16.381    0.44E-03    0.15E-03    0.55E-07
   0      8    10.205     5.611    0.31E-03    0.11E-03    0.40E-07
   2      7    10.205     4.652    0.50E-03    0.47E-03    0.57E-07
 Optimization of the real space projectors (new method)

 maximal supplied QI-value         = 16.25
 optimisation between [QCUT,QGAM] = [ 10.24, 20.48] = [ 29.35,117.42] Ry 
 Optimized for a Real-space Cutoff    1.34 Angstroem

   l    n(q)    QCUT    max X(q) W(low)/X(q) W(high)/X(q)  e(spline) 
   1      8    10.239     3.658    0.23E-03    0.30E-03    0.98E-07
   1      8    10.239     5.612    0.32E-03    0.65E-03    0.21E-06
   2      7    10.239    55.373    0.42E-03    0.45E-03    0.65E-07
   2      7    10.239    50.863    0.43E-03    0.48E-03    0.67E-07
   0      8    10.239    79.536    0.11E-03    0.21E-03    0.56E-07
   0      8    10.239    38.668    0.96E-04    0.19E-03    0.52E-07
 Optimization of the real space projectors (new method)

 maximal supplied QI-value         = 24.76
 optimisation between [QCUT,QGAM] = [ 10.15, 20.30] = [ 28.85,115.39] Ry 
 Optimized for a Real-space Cutoff    1.38 Angstroem

   l    n(q)    QCUT    max X(q) W(low)/X(q) W(high)/X(q)  e(spline) 
   0      8    10.150    20.381    0.22E-03    0.32E-03    0.29E-06
   0      8    10.150    15.268    0.23E-03    0.35E-03    0.30E-06
   1      8    10.150     5.964    0.46E-03    0.53E-03    0.21E-06
   1      8    10.150     5.382    0.38E-03    0.45E-03    0.19E-06
  PAW_PBE Na_pv 19Sep2006               :
 energy of atom  1       EATOM= -766.0439
 kinetic energy error for atom=    0.0103 (will be added to EATOM!!)
  PAW_PBE Mg_pv 13Apr2007               :
 energy of atom  2       EATOM=-1056.7344
 kinetic energy error for atom=    0.0820 (will be added to EATOM!!)
  PAW_PBE Mn_pv 02Aug2007               :
 energy of atom  3       EATOM=-2025.2664
 kinetic energy error for atom=    0.0284 (will be added to EATOM!!)
  PAW_PBE O 08Apr2002                   :
 energy of atom  4       EATOM= -432.3788
 kinetic energy error for atom=    0.1156 (will be added to EATOM!!)
 
 
 POSCAR: Na Mg Mn  O                             
  positions in cartesian coordinates
  No initial velocities read in

 METAGGA = SCAN     LMAXTAU =  6    LMIXTAU =  F

 exchange correlation table for  LEXCH =        8
   RHO(1)=    0.500       N(1)  =     2000
   RHO(2)=  100.500       N(2)  =     4000

 VTST: version 3.2, (02/03/18)

 CHAIN: initializing optimizer
 
 OPT: Using VASP Dynamics algorithm
 CHAIN: Read ICHAIN            0
 
 POSCAR: Na Mg Mn  O                             
  positions in cartesian coordinates
  No initial velocities read in
 


--------------------------------------------------------------------------------------------------------


 ion  position               nearest neighbor table
   1  0.839  0.066  0.261-  63 2.24  62 2.29  32 2.71
   2  0.042  0.239  0.756-  80 2.30  61 2.33  58 2.38
   3  0.005  0.714  0.756-  73 2.28  70 2.29
   4  0.534  0.456  0.751-  85 2.25  82 2.28  33 2.90  35 2.94
   5  0.133  0.398  0.265-  86 2.16  77 2.32  64 2.33
   6  0.904  0.555  0.255-  66 2.12  75 2.16  76 2.32  36 2.88  34 2.92
   7  0.224  0.079  0.741-  44 2.27  47 2.29  48 2.36  45 2.37
   8  0.534  0.953  0.739-  46 2.22  56 2.31  49 2.36  31 2.83  29 2.95
   9  0.546  0.088  0.245-  53 2.24
  10  0.010  0.896  0.257-  76 2.26  63 2.28  50 2.31  67 2.33  27 2.75  25 2.87
  11  0.345  0.233  0.240-  52 2.27  43 2.27  41 2.35
  12  0.792  0.862  0.747-  56 2.35  69 2.35  72 2.38  59 2.38
  13  0.292  0.584  0.755-  84 2.19  81 2.31  83 2.37  38 2.88  40 2.93
  14  0.812  0.375  0.744-  57 2.26  68 2.38
  15  0.307  0.733  0.252-  51 2.31
  16  0.531  0.580  0.255-  74 2.25  65 2.28  88 2.36
  17  0.674  0.247  0.004-  43 1.96  71 1.99  66 2.05  60 2.05  53 2.11  49 2.12  37 2.78  34 2.81
                            33 2.82
  18  0.669  0.235  0.495-  46 2.00  75 2.01  68 2.04  62 2.09  57 2.10  52 2.11
  19  0.171  0.243  0.996-  83 1.96  48 2.02  61 2.06  55 2.06  41 2.10  78 2.11  26 2.80
  20  0.172  0.236  0.502-  45 1.98  80 2.01  64 2.02  50 2.09  87 2.12  58 2.14
  21  0.164  0.745  0.001-  67 1.95  73 2.01  84 2.03  42 2.04  47 2.07  77 2.22  25 2.83  34 2.84

  22  0.166  0.736  0.497-  44 2.00  51 2.04  76 2.04  86 2.07  70 2.10  81 2.12  27 2.81  28 2.84

  23  0.663  0.738  0.006-  72 2.04  79 2.05  54 2.06  59 2.07  65 2.09  85 2.09  29 2.85
  24  0.679  0.735  0.491-  69 1.96  74 2.04  82 2.11  56 2.12  63 2.14  88 2.14  27 2.81  36 2.83

  25  0.003  0.911  0.002-  54 1.85  61 1.89  47 1.92  41 1.93  72 1.95  67 1.96  26 2.82  21 2.83
                            30 2.85  10 2.87  34 2.94
  26  0.328  0.077  0.994-  48 1.86  41 1.89  47 1.93  42 1.93  49 1.94  43 1.99  19 2.80  25 2.82
                            33 2.87  29 3.00
  27  0.002  0.896  0.502-  69 1.87  76 1.87  63 1.88  44 1.89  50 1.93  58 2.02  10 2.75  24 2.81
                            22 2.81  36 2.87  28 2.93  32 2.94
  28  0.338  0.064  0.488-  52 1.87  51 1.89  50 1.90  46 1.90  45 1.95  44 2.10  22 2.84  31 2.88
                            35 2.91  27 2.93
  29  0.507  0.910  1.000-  53 1.86  59 1.88  42 1.90  79 1.91  49 1.94  84 2.03  30 2.83  23 2.85
                            38 2.92   8 2.95  26 3.00
  30  0.833  0.068  0.995-  54 1.89  60 1.90  61 1.90  53 1.91  55 1.94  59 1.98  29 2.83  37 2.84
                            25 2.85
  31  0.503  0.896  0.491-  46 1.86  51 1.87  62 1.90  81 1.90  88 1.93  56 1.94   8 2.83  40 2.85
                            28 2.88  32 2.89
  32  0.836  0.069  0.502-  62 1.84  64 1.85  56 1.92  58 1.94  57 1.94  63 1.97   1 2.71  39 2.83
                            31 2.89  27 2.94
  33  0.509  0.407  0.007-  71 1.87  43 1.87  78 1.90  65 1.98  48 1.99  85 2.05  17 2.82  34 2.84
                            26 2.87   4 2.90  38 3.02
  34  0.836  0.572  0.004-  71 1.86  73 1.89  65 1.94  72 1.98  67 1.99  66 2.00  17 2.81  21 2.84
                            33 2.84  37 2.90   6 2.92  25 2.94
  35  0.503  0.399  0.493-  45 1.82  82 1.84  87 1.94  68 1.96  74 1.97  52 2.01  36 2.89  40 2.89
                            28 2.91   4 2.94
  36  0.835  0.565  0.503-  68 1.88  75 1.91  70 1.92  74 1.95  76 1.96  69 1.96  24 2.83  27 2.87
                             6 2.88  35 2.89  39 2.91
  37  0.994  0.396  0.001-  60 1.85  83 1.89  66 1.89  55 1.93  77 1.96  73 1.97  17 2.78  30 2.84
                            34 2.90  38 2.90
  38  0.328  0.574  0.009-  79 1.85  77 1.90  84 1.91  83 1.91  85 1.97  78 2.00  13 2.88  37 2.90
                            29 2.92  33 3.02
  39  0.999  0.394  0.510-  64 1.86  80 1.89  75 1.95  86 1.97  57 1.98  70 1.99  32 2.83  36 2.91
                            40 2.95
  40  0.339  0.569  0.498-  81 1.86  82 1.86  88 1.91  86 1.94  87 1.96  80 2.06  31 2.85  35 2.89
                            13 2.93  39 2.95
  41  0.172  0.065  0.095-  26 1.89  25 1.93  19 2.10  11 2.35
  42  0.349  0.924  0.083-  29 1.90  26 1.93  21 2.04
  43  0.500  0.240  0.089-  33 1.87  17 1.96  26 1.99  11 2.27
  44  0.161  0.900  0.595-  27 1.89  22 2.00  28 2.10   7 2.27
  45  0.352  0.238  0.576-  35 1.82  28 1.95  20 1.98   7 2.37
  46  0.495  0.052  0.575-  31 1.86  28 1.90  18 2.00   8 2.22
  47  0.162  0.918  0.902-  25 1.92  26 1.93  21 2.07   7 2.29
  48  0.346  0.243  0.906-  26 1.86  33 1.99  19 2.02   7 2.36
  49  0.491  0.066  0.909-  26 1.94  29 1.94  17 2.12   8 2.36
  50  0.167  0.054  0.408-  28 1.90  27 1.93  20 2.09  10 2.31
  51  0.347  0.904  0.404-  31 1.87  28 1.89  22 2.04  15 2.31
  52  0.486  0.223  0.394-  28 1.87  35 2.01  18 2.11  11 2.27
  53  0.670  0.057  0.090-  29 1.86  30 1.91  17 2.11   9 2.24
  54  0.851  0.921  0.087-  25 1.85  30 1.89  23 2.06
  55  0.990  0.230  0.092-  37 1.93  30 1.94  19 2.06
  56  0.667  0.909  0.590-  32 1.92  31 1.94  24 2.12   8 2.31  12 2.35
  57  0.834  0.225  0.604-  32 1.94  39 1.98  18 2.10  14 2.26
  58  0.987  0.056  0.602-  32 1.94  27 2.02  20 2.14   2 2.38
  59  0.658  0.907  0.903-  29 1.88  30 1.98  23 2.07  12 2.38
  60  0.844  0.238  0.910-  37 1.85  30 1.90  17 2.05
  61  0.993  0.062  0.908-  25 1.89  30 1.90  19 2.06   2 2.33
  62  0.677  0.053  0.410-  32 1.84  31 1.90  18 2.09   1 2.29
  63  0.868  0.925  0.403-  27 1.88  32 1.97  24 2.14   1 2.24  10 2.28
  64  0.991  0.233  0.420-  32 1.85  39 1.86  20 2.02   5 2.33
  65  0.677  0.568  0.105-  34 1.94  33 1.98  23 2.09  16 2.28
  66  0.853  0.414  0.102-  37 1.89  34 2.00  17 2.05   6 2.12
  67  0.001  0.745  0.096-  21 1.95  25 1.96  34 1.99  10 2.33
  68  0.670  0.409  0.590-  36 1.88  35 1.96  18 2.04  14 2.38
  69  0.842  0.739  0.590-  27 1.87  24 1.96  36 1.96  12 2.35
  70  0.991  0.561  0.600-  36 1.92  39 1.99  22 2.10   3 2.29
  71  0.672  0.419  0.918-  34 1.86  33 1.87  17 1.99
  72  0.839  0.741  0.912-  25 1.95  34 1.98  23 2.04  12 2.38
  73  0.993  0.566  0.914-  34 1.89  37 1.97  21 2.01   3 2.28
  74  0.676  0.558  0.399-  36 1.95  35 1.97  24 2.04  16 2.25
  75  0.848  0.411  0.412-  36 1.91  39 1.95  18 2.01   6 2.16
  76  0.989  0.736  0.407-  27 1.87  36 1.96  22 2.04  10 2.26   6 2.32
  77  0.159  0.551  0.101-  38 1.90  37 1.96  21 2.22   5 2.32
  78  0.353  0.416  0.098-  33 1.90  38 2.00  19 2.11
  79  0.483  0.739  0.092-  38 1.85  29 1.91  23 2.05
  80  0.163  0.401  0.598-  39 1.89  20 2.01  40 2.06   2 2.30
  81  0.352  0.733  0.584-  40 1.86  31 1.90  22 2.12  13 2.31
  82  0.491  0.549  0.578-  35 1.84  40 1.86  24 2.11   4 2.28
  83  0.166  0.414  0.917-  37 1.89  38 1.91  19 1.96  13 2.37
  84  0.332  0.731  0.911-  38 1.91  21 2.03  29 2.03  13 2.19
  85  0.483  0.564  0.907-  38 1.97  33 2.05  23 2.09   4 2.25
  86  0.165  0.554  0.411-  40 1.94  39 1.97  22 2.07   5 2.16
  87  0.347  0.413  0.398-  35 1.94  40 1.96  20 2.12
  88  0.488  0.727  0.398-  40 1.91  31 1.93  24 2.14  16 2.36
 
  LATTYP: Found a hexagonal cell.
 ALAT       =    10.0190000534
 C/A-ratio  =     1.1196726572
  
  Lattice vectors:
  
 A1 = (  10.0190000534,   0.0000000000,   0.0000000000)
 A2 = (  -5.0095000267,   8.6767085668,   0.0000000000)
 A3 = (   0.0000000000,   0.0000000000,  11.2180004120)


Analysis of symmetry for initial positions (statically):
=====================================================================
 Subroutine PRICEL returns:
 Original cell was already a primitive cell.
 

 Routine SETGRP: Setting up the symmetry group for a 
 hexagonal supercell.


 Subroutine GETGRP returns: Found  1 space group operations
 (whereof  1 operations were pure point group operations)
 out of a pool of 24 trial point group operations.


The static configuration has the point symmetry C_1 .


Analysis of symmetry for dynamics (positions and initial velocities):
=====================================================================
 Subroutine PRICEL returns:
 Original cell was already a primitive cell.
 

 Routine SETGRP: Setting up the symmetry group for a 
 hexagonal supercell.


 Subroutine GETGRP returns: Found  1 space group operations
 (whereof  1 operations were pure point group operations)
 out of a pool of 24 trial point group operations.


The dynamic configuration has the point symmetry C_1 .


Analysis of structural, dynamic, and magnetic symmetry:
=====================================================================
 Subroutine PRICEL returns:
 Original cell was already a primitive cell.
 

 Routine SETGRP: Setting up the symmetry group for a 
 hexagonal supercell.


 Subroutine GETGRP returns: Found  1 space group operations
 (whereof  1 operations were pure point group operations)
 out of a pool of 24 trial point group operations.


The magnetic configuration has the point symmetry C_1 .


 Subroutine INISYM returns: Found  1 space group operations
 (whereof  1 operations are pure point group operations),
 and found     1 'primitive' translations

 
 

Automatic generation of k-mesh.
 generate k-points for:    2    2    2
Space group operators:
 irot       det(A)        alpha          n_x          n_y          n_z        tau_x        tau_y        tau_z
    1     1.000000     0.000000     1.000000     0.000000     0.000000     0.000000     0.000000     0.000000
 
 Subroutine IBZKPT returns following result:
 ===========================================
 
 Found      8 irreducible k-points:
 
 Following reciprocal coordinates:
            Coordinates               Weight
  0.000000  0.000000  0.000000      1.000000
  0.500000 -0.000000 -0.000000      1.000000
  0.000000  0.500000  0.000000      1.000000
  0.500000  0.500000 -0.000000      1.000000
  0.000000  0.000000  0.500000      1.000000
  0.500000 -0.000000  0.500000      1.000000
  0.000000  0.500000  0.500000      1.000000
  0.500000  0.500000  0.500000      1.000000
 
 Following cartesian coordinates:
            Coordinates               Weight
  0.000000  0.000000  0.000000      1.000000
  0.049905  0.028813 -0.000000      1.000000
  0.000000  0.057626  0.000000      1.000000
  0.049905  0.086438 -0.000000      1.000000
  0.000000  0.000000  0.044571      1.000000
  0.049905  0.028813  0.044571      1.000000
  0.000000  0.057626  0.044571      1.000000
  0.049905  0.086438  0.044571      1.000000
 


--------------------------------------------------------------------------------------------------------




 Dimension of arrays:
   k-points           NKPTS =      8   k-points in BZ     NKDIM =      8   number of bands    NBANDS=    480
   number of dos      NEDOS =    301   number of ions     NIONS =     88
   non local maximal  LDIM  =      6   non local SUM 2l+1 LMDIM =     18
   total plane-waves  NPLWV = 140000
   max r-space proj   IRMAX =   1632   max aug-charges    IRDMAX=   4555
   dimension x,y,z NGX =    50 NGY =   50 NGZ =   56
   dimension x,y,z NGXF=   100 NGYF=  100 NGZF=  112
   support grid    NGXF=   100 NGYF=  100 NGZF=  112
   ions per type =              16   8  16  48
   NGX,Y,Z   is equivalent  to a cutoff of   8.30,  8.30,  8.30 a.u.
   NGXF,Y,Z  is equivalent  to a cutoff of  16.59, 16.59, 16.60 a.u.

 SYSTEM =  unknown system                          
 POSCAR =  Na Mg Mn  O                             

 Startparameter for this run:
   NWRITE =      2    write-flag & timer
   PREC   = normal    normal or accurate (medium, high low for compatibility)
   ISTART =      0    job   : 0-new  1-cont  2-samecut
   ICHARG =      1    charge: 1-file 2-atom 10-const
   ISPIN  =      2    spin polarized calculation?
   LNONCOLLINEAR =      F non collinear calculations
   LSORBIT =      F    spin-orbit coupling
   INIWAV =      1    electr: 0-lowe 1-rand  2-diag
   LASPH  =      T    aspherical Exc in radial PAW
   METAGGA=      F    non-selfconsistent MetaGGA calc.

 Electronic Relaxation 1
   ENCUT  =  400.0 eV  29.40 Ry    5.42 a.u.  16.34 16.34 18.29*2*pi/ulx,y,z
   ENINI  =  400.0     initial cutoff
   ENAUG  =  758.8 eV  augmentation charge cutoff
   NELM   =    200;   NELMIN=  6; NELMDL=-12     # of ELM steps 
   EDIFF  = 0.1E-04   stopping-criterion for ELM
   LREAL  =      T    real-space projection
   NLSPLINE    = F    spline interpolate recip. space projectors
   LCOMPAT=      F    compatible to vasp.4.4
   GGA_COMPAT  = T    GGA compatible to vasp.4.4-vasp.4.6
   LMAXPAW     = -100 max onsite density
   LMAXMIX     =    4 max onsite mixed and CHGCAR
   VOSKOWN=      0    Vosko Wilk Nusair interpolation
   ROPT   =   -0.00050  -0.00050  -0.00050  -0.00050
 Ionic relaxation
   EDIFFG = 0.1E-03   stopping-criterion for IOM
   NSW    =      1    number of steps for IOM
   NBLOCK =      1;   KBLOCK =      1    inner block; outer block 
   IBRION =     -1    ionic relax: 0-MD 1-quasi-New 2-CG
   NFREE  =      0    steps in history (QN), initial steepest desc. (CG)
   ISIF   =      2    stress and relaxation
   IWAVPR =     10    prediction:  0-non 1-charg 2-wave 3-comb
   ISYM   =      2    0-nonsym 1-usesym 2-fastsym
   LCORR  =      T    Harris-Foulkes like correction to forces

   POTIM  = 0.5000    time-step for ionic-motion
   TEIN   =    0.0    initial temperature
   TEBEG  =    0.0;   TEEND  =   0.0 temperature during run
   SMASS  =  -3.00    Nose mass-parameter (am)
   estimated Nose-frequenzy (Omega)   =  0.10E-29 period in steps =****** mass=  -0.229E-26a.u.
   SCALEE = 1.0000    scale energy and forces
   NPACO  =    256;   APACO  = 16.0  distance and # of slots for P.C.
   PSTRESS=    0.0 pullay stress

  Mass of Ions in am
   POMASS =  22.99 24.30 54.94 16.00
  Ionic Valenz
   ZVAL   =   7.00  8.00 13.00  6.00
  Atomic Wigner-Seitz radii
   RWIGS  =  -1.00 -1.00 -1.00 -1.00
  virtual crystal weights 
   VCA    =   1.00  1.00  1.00  1.00
   NELECT =     672.0000    total number of electrons
   NUPDOWN=      48.0000    fix difference up-down

 DOS related values:
   EMIN   =  10.00;   EMAX   =-10.00  energy-range for DOS
   EFERMI =   0.00
   ISMEAR =     0;   SIGMA  =   0.05  broadening in eV -4-tet -1-fermi 0-gaus

 Electronic relaxation 2 (details)
   IALGO  =     48    algorithm
   LDIAG  =      T    sub-space diagonalisation (order eigenvalues)
   LSUBROT=      F    optimize rotation matrix (better conditioning)
   TURBO    =      0    0=normal 1=particle mesh
   IRESTART =      0    0=no restart 2=restart with 2 vectors
   NREBOOT  =      0    no. of reboots
   NMIN     =      0    reboot dimension
   EREF     =   0.00    reference energy to select bands
   IMIX   =      4    mixing-type and parameters
     AMIX     =   0.40;   BMIX     =  1.00
     AMIX_MAG =   1.60;   BMIX_MAG =  1.00
     AMIN     =   0.10
     WC   =   100.;   INIMIX=   1;  MIXPRE=   1;  MAXMIX= -45

 Intra band minimization:
   WEIMIN = 0.0000     energy-eigenvalue tresh-hold
   EBREAK =  0.52E-08  absolut break condition
   DEPER  =   0.30     relativ break condition  

   TIME   =   0.40     timestep for ELM

  volume/ion in A,a.u.               =      11.08        74.78
  Fermi-wavevector in a.u.,A,eV,Ry     =   1.445993  2.732531 28.448379  2.090897
  Thomas-Fermi vector in A             =   2.564112
 
 Write flags
   LWAVE        =      F    write WAVECAR
   LDOWNSAMPLE  =      F    k-point downsampling of WAVECAR
   LCHARG       =      F    write CHGCAR
   LVTOT        =      F    write LOCPOT, total local potential
   LVHAR        =      F    write LOCPOT, Hartree potential only
   LELF         =      F    write electronic localiz. function (ELF)
   LORBIT       =     11    0 simple, 1 ext, 2 COOP (PROOUT), +10 PAW based schemes


 Dipole corrections
   LMONO  =      F    monopole corrections only (constant potential shift)
   LDIPOL =      F    correct potential (dipole corrections)
   IDIPOL =      0    1-x, 2-y, 3-z, 4-all directions 
   EPSILON=  1.0000000 bulk dielectric constant

 Exchange correlation treatment:
   GGA     =    --    GGA type
   LEXCH   =     8    internal setting for exchange type
   VOSKOWN=      0    Vosko Wilk Nusair interpolation
   LHFCALC =     F    Hartree Fock is set to
   LHFONE  =     F    Hartree Fock one center treatment
   AEXX    =    0.0000 exact exchange contribution

 Linear response parameters
   LEPSILON=     F    determine dielectric tensor
   LRPA    =     F    only Hartree local field effects (RPA)
   LNABLA  =     F    use nabla operator in PAW spheres
   LVEL    =     F    velocity operator in full k-point grid
   LINTERFAST=   F  fast interpolation
   KINTER  =     0    interpolate to denser k-point grid
   CSHIFT  =0.1000    complex shift for real part using Kramers Kronig
   OMEGAMAX=  -1.0    maximum frequency
   DEG_THRESHOLD= 0.2000000E-02 threshold for treating states as degnerate
   RTIME   =   -0.100 relaxation time in fs
  (WPLASMAI=    0.000 imaginary part of plasma frequency in eV, 0.658/RTIME)
   DFIELD  = 0.0000000 0.0000000 0.0000000 field for delta impulse in time
 
 Orbital magnetization related:
   ORBITALMAG=     F  switch on orbital magnetization
   LCHIMAG   =     F  perturbation theory with respect to B field
   DQ        =  0.001000  dq finite difference perturbation B field
   LLRAUG    =     F  two centre corrections for induced B field



--------------------------------------------------------------------------------------------------------


 Static calculation
 charge density and potential will be updated during run
 spin polarized calculation
 RMM-DIIS sequential band-by-band
 perform sub-space diagonalisation
    before iterative eigenvector-optimisation
 modified Broyden-mixing scheme, WC =      100.0
 initial mixing is a Kerker type mixing with AMIX =  0.4000 and BMIX =      1.0000
 Hartree-type preconditioning will be used
 using additional bands          144
 real space projection scheme for non local part
 use partial core corrections
 calculate Harris-corrections to forces 
   (improved forces if not selfconsistent)
 use gradient corrections 
 use of overlap-Matrix (Vanderbilt PP)
 Gauss-broadening in eV      SIGMA  =   0.05


--------------------------------------------------------------------------------------------------------


  energy-cutoff  :      400.00
  volume of cell :      975.20
      direct lattice vectors                 reciprocal lattice vectors
    10.019000053  0.000000000  0.000000000     0.099810360  0.057625538 -0.000000000
    -5.009500027  8.676708567  0.000000000     0.000000000  0.115251076  0.000000000
     0.000000000  0.000000000 11.218000412     0.000000000  0.000000000  0.089142446

  length of vectors
    10.019000053 10.019000053 11.218000412     0.115251076  0.115251076  0.089142446


 
 k-points in units of 2pi/SCALE and weight: read from INCAR                         
   0.00000000  0.00000000  0.00000000       0.125
   0.04990518  0.02881277 -0.00000000       0.125
   0.00000000  0.05762554  0.00000000       0.125
   0.04990518  0.08643831 -0.00000000       0.125
   0.00000000  0.00000000  0.04457122       0.125
   0.04990518  0.02881277  0.04457122       0.125
   0.00000000  0.05762554  0.04457122       0.125
   0.04990518  0.08643831  0.04457122       0.125
 
 k-points in reciprocal lattice and weights: read from INCAR                         
   0.00000000  0.00000000  0.00000000       0.125
   0.50000000 -0.00000000 -0.00000000       0.125
   0.00000000  0.50000000  0.00000000       0.125
   0.50000000  0.50000000 -0.00000000       0.125
   0.00000000  0.00000000  0.50000000       0.125
   0.50000000 -0.00000000  0.50000000       0.125
   0.00000000  0.50000000  0.50000000       0.125
   0.50000000  0.50000000  0.50000000       0.125
 
 position of ions in fractional coordinates (direct lattice) 
   0.83890671  0.06633523  0.26074166
   0.04195092  0.23925926  0.75617933
   0.00505494  0.71413222  0.75601620
   0.53449788  0.45590066  0.75085128
   0.13335452  0.39848866  0.26522195
   0.90401056  0.55470244  0.25489926
   0.22394182  0.07862527  0.74145389
   0.53435054  0.95278493  0.73920750
   0.54560703  0.08834950  0.24458815
   0.00990141  0.89625757  0.25706542
   0.34486299  0.23278017  0.23953021
   0.79203224  0.86223594  0.74743356
   0.29168076  0.58437959  0.75491440
   0.81183560  0.37452451  0.74442322
   0.30720720  0.73316873  0.25196647
   0.53131938  0.58039503  0.25543857
   0.67420461  0.24734725  0.00434080
   0.66891323  0.23455669  0.49519610
   0.17128747  0.24276717  0.99635892
   0.17165080  0.23624281  0.50237384
   0.16352991  0.74461646  0.00105184
   0.16575086  0.73636448  0.49748438
   0.66335602  0.73801257  0.00619488
   0.67858771  0.73474405  0.49090834
   0.00340576  0.91055841  0.00170096
   0.32821108  0.07676551  0.99373014
   0.00158663  0.89598492  0.50214029
   0.33849433  0.06359013  0.48773487
   0.50668139  0.90977240  0.99991974
   0.83281177  0.06843021  0.99454445
   0.50282507  0.89639752  0.49064716
   0.83575322  0.06884949  0.50245675
   0.50861282  0.40685935  0.00677783
   0.83630171  0.57152548  0.00400621
   0.50254636  0.39879869  0.49283293
   0.83492462  0.56546558  0.50314314
   0.99410797  0.39557396  0.00062281
   0.32804298  0.57402527  0.00852974
   0.99941883  0.39431427  0.50967639
   0.33916490  0.56853702  0.49840968
   0.17153178  0.06510568  0.09522642
   0.34894832  0.92367567  0.08272214
   0.49996049  0.23999884  0.08881253
   0.16057508  0.90027382  0.59512389
   0.35173991  0.23759701  0.57562487
   0.49474868  0.05207447  0.57526651
   0.16226770  0.91780420  0.90209481
   0.34572246  0.24256779  0.90567834
   0.49097990  0.06608197  0.90870918
   0.16672698  0.05368153  0.40837046
   0.34733846  0.90385548  0.40441164
   0.48603275  0.22324825  0.39399178
   0.66963596  0.05713999  0.09003120
   0.85090392  0.92080177  0.08673159
   0.98979435  0.23037422  0.09245231
   0.66711828  0.90947362  0.58997056
   0.83442660  0.22490671  0.60442233
   0.98702024  0.05604268  0.60206452
   0.65796822  0.90666807  0.90320910
   0.84429612  0.23766501  0.90973432
   0.99260806  0.06153313  0.90788907
   0.67688727  0.05316371  0.40964074
   0.86777967  0.92531880  0.40280173
   0.99120529  0.23338573  0.42045105
   0.67661987  0.56767033  0.10455072
   0.85267747  0.41365916  0.10190051
   0.00142603  0.74516966  0.09608308
   0.66960597  0.40892350  0.58969422
   0.84202617  0.73896800  0.58979495
   0.99054135  0.56084516  0.59985824
   0.67246142  0.41926959  0.91775714
   0.83946196  0.74145512  0.91151717
   0.99303105  0.56562693  0.91395076
   0.67579617  0.55772070  0.39897039
   0.84754997  0.41124926  0.41153858
   0.98884829  0.73617547  0.40721161
   0.15873100  0.55051521  0.10079782
   0.35329905  0.41550318  0.09801836
   0.48286874  0.73891844  0.09151274
   0.16261405  0.40107259  0.59827685
   0.35183760  0.73304640  0.58432784
   0.49101563  0.54909185  0.57841413
   0.16644439  0.41443365  0.91650023
   0.33179249  0.73147899  0.91059900
   0.48326917  0.56407104  0.90742553
   0.16545220  0.55365119  0.41068282
   0.34729337  0.41287200  0.39836244
   0.48763692  0.72700955  0.39817435
 
 position of ions in cartesian coordinates  (Angst):
   8.07270008  0.57557143  2.92500000
  -0.77826300  2.07598287  8.48282000
  -3.52679995  6.19631713  8.48099000
   3.07129995  3.95571713  8.42305000
  -0.66015005  3.45757000  2.97526000
   6.27849992  4.81299143  2.85946000
   1.84979981  0.68220857  8.31763000
   0.58068200  8.26703713  8.29243000
   5.02385005  0.76658287  2.74379000
  -4.39060011  7.77656573  2.88376000
   2.28907005  2.01976573  2.68705000
   3.61600005  7.48137000  8.38471000
  -0.00510008  5.07049143  8.46863000
   6.25760037  3.24964000  8.35094000
  -0.59489987  6.36149143  2.82656000
   2.41579992  5.03591857  2.86551000
   5.51577000  2.14616000  0.04869510
   5.52683000  2.03518000  5.55511000
   0.49998700  2.10642000 11.17715481
   0.53631100  2.04981000  5.63563000
  -2.09175000  6.46082000  0.01179959
  -2.02816000  6.38922000  5.58078000
   2.94909000  6.40352000  0.06949420
   3.11807000  6.37516000  5.50701000
  -4.52732005  7.90065000  0.01908140
   2.90379000  0.66607200 11.14766511
  -4.47254005  7.77420000  5.63301000
   3.07282000  0.55175300  5.47141000
   0.51893600  7.89383000 11.21710000
   8.00114000  0.59374900 11.15680000
   0.54730100  7.77778000  5.50408000
   8.02851000  0.59738700  5.63656000
   3.05763000  3.53020000  0.07603370
   5.51585000  4.95896000  0.04494170
   3.03723000  3.46026000  5.52860000
   5.53241000  4.90638000  5.64426000
   7.97834000  3.43228000  0.00698667
   0.41108300  4.98065000  0.09568660
   8.03786000  3.42135000  5.71755000
   0.55000700  4.93303000  5.59116000
   1.39243000  0.56490300  1.06825000
  -1.13104003  8.01446457  0.92797700
   3.80683000  2.08240000  0.99629900
  -2.90112003  7.81141357  6.67610000
   2.33384000  2.06156000  6.45736000
   4.69602000  0.45183500  6.45334000
  -2.97198003  7.96351957 10.11970000
   2.24865000  2.10469000 10.15990000
   4.58809000  0.57337400 10.19390000
   1.40152000  0.46577900  4.58110000
  -1.04788003  7.84249057  4.53669000
   3.75120000  1.93706000  4.41980000
   6.42284000  0.49578700  1.00997000
   3.91244997  7.98952857  0.97295500
   8.76269000  1.99889000  1.03713000
   2.12784997  7.89123757  6.61829000
   7.23345000  1.95145000  6.78041000
   9.60821000  0.48626600  6.75396000
   2.05022997  7.86689457 10.13220000
   7.26842000  2.06215000 10.20540000
   9.63669000  0.53390500 10.18470000
   6.51541000  0.46128600  4.59535000
   4.05889997  8.02872157  4.51863000
   8.76174000  2.02502000  4.71662000
   3.93531000  4.92551000  1.17285000
   6.47075000  3.58920000  1.14312000
  -3.71864005  6.46562000  1.07786000
   4.66028000  3.54811000  6.61519000
   4.73440000  6.41181000  6.61632000
   7.11468000  4.86629000  6.72921000
   4.63706000  3.63788000 10.29540000
   4.69625000  6.43339000 10.22540000
   7.11567000  4.90778000 10.25270000
   3.97690000  4.83918000  4.47565000
   6.43145000  3.56829000  4.61664000
   6.21940000  6.38758000  4.56810000
  -1.16748000  4.77666000  1.13075000
   1.45824000  3.60520000  1.09957000
   1.13625000  6.41138000  1.02659000
  -0.37994300  3.47999000  6.71147000
  -0.14713500  6.36043000  6.55499000
   2.16881000  4.76431000  6.48865000
  -0.40849900  3.59592000 10.28130000
  -0.34011500  6.34683000 10.21510000
   2.01616000  4.89428000 10.17950000
  -1.11585000  4.80387000  4.60704000
   1.41125000  3.58237000  4.46883000
   1.24368000  6.30805000  4.46672000
 


--------------------------------------------------------------------------------------------------------


 k-point  1 :   0.0000 0.0000 0.0000  plane waves:   17725
 k-point  2 :   0.5000-0.0000-0.0000  plane waves:   17736
 k-point  3 :   0.0000 0.5000 0.0000  plane waves:   17736
 k-point  4 :   0.5000 0.5000-0.0000  plane waves:   17736
 k-point  5 :   0.0000 0.0000 0.5000  plane waves:   17676
 k-point  6 :   0.5000-0.0000 0.5000  plane waves:   17700
 k-point  7 :   0.0000 0.5000 0.5000  plane waves:   17700
 k-point  8 :   0.5000 0.5000 0.5000  plane waves:   17700

 maximum and minimum number of plane-waves per node :     17736    17676

 maximum number of plane-waves:     17736
 maximum index in each direction: 
   IXMAX=   16   IYMAX=   16   IZMAX=   18
   IXMIN=  -16   IYMIN=  -16   IZMIN=  -18


 serial   3D FFT for wavefunctions
 parallel 3D FFT for charge:
    minimum data exchange during FFTs selected (reduces bandwidth)


 total amount of memory used by VASP MPI-rank0    94416. kBytes
=======================================================================

   base      :      30000. kBytes
   nonlr-proj:      13657. kBytes
   fftplans  :       1275. kBytes
   grid      :      22786. kBytes
   one-center:       2737. kBytes
   wavefun   :      23961. kBytes
 
     INWAV:  cpu time    0.0000: real time    0.0001
 Broyden mixing: mesh for mixing (old mesh)
   NGX = 33   NGY = 33   NGZ = 37
  (NGX  =100   NGY  =100   NGZ  =112)
  gives a total of  40293 points

 initial charge density was supplied:
 charge density of overlapping atoms calculated
 number of electron     672.0000000 magnetization      48.0000000
 keeping initial charge density in first step


--------------------------------------------------------------------------------------------------------


 Maximum index for non-local projection operator         1544
 Maximum index for augmentation-charges          547 (set IRDMAX)


--------------------------------------------------------------------------------------------------------


 First call to EWALD:  gamma=   0.179
 Maximum number of real-space cells 3x 3x 2
 Maximum number of reciprocal cells 3x 3x 3

    FEWALD:  cpu time    0.0027: real time    0.0027


--------------------------------------- Iteration      1(   1)  ---------------------------------------


    POTLOK:  cpu time    0.1966: real time    0.1980
    SETDIJ:  cpu time    4.6556: real time    4.6594
    EDDIAG:  cpu time    4.4102: real time    4.7961
  RMM-DIIS:  cpu time    9.0658: real time    9.0765
    ORTHCH:  cpu time    1.1607: real time    1.2388
       DOS:  cpu time    0.0019: real time    0.0021
    --------------------------------------------
      LOOP:  cpu time   19.4909: real time   19.9709

 eigenvalue-minimisations  :  7680
 total energy-change (2. order) : 0.1597960E+04  (-0.3497331E+05)
 number of electron     672.0000000 magnetization      48.0000000
 augmentation part      672.0000000 magnetization      48.0000000

 Free energy of the ion-electron system (eV)
  ---------------------------------------------------
  alpha Z        PSCENC =      2652.81237852
  Ewald energy   TEWEN  =    -41682.92465163
  -Hartree energ DENC   =    -25920.75078948
  -exchange      EXHF   =         0.00000000
  -V(xc)+E(xc)   XCENC  =      3606.65261973
  PAW double counting   =     55594.23204139   -59034.67079123
  entropy T*S    EENTRO =        -0.04616743
  eigenvalues    EBANDS =     -7479.54251054
  atomic energy  EATOM  =     73862.19814772
  Solvation  Ediel_sol  =         0.00000000
  ---------------------------------------------------
  free energy    TOTEN  =      1597.96027705 eV

  energy without entropy =     1598.00644448  energy(sigma->0) =     1597.98336077


--------------------------------------------------------------------------------------------------------




--------------------------------------- Iteration      1(   2)  ---------------------------------------


    EDDIAG:  cpu time    4.4311: real time    4.8041
  RMM-DIIS:  cpu time    8.9801: real time    9.0169
    ORTHCH:  cpu time    1.1605: real time    1.2391
       DOS:  cpu time    0.0022: real time    0.0022
    --------------------------------------------
      LOOP:  cpu time   14.5738: real time   15.0622

 eigenvalue-minimisations  :  7680
 total energy-change (2. order) :-0.2321417E+04  (-0.8025248E+04)
 number of electron     672.0000000 magnetization      48.0000000
 augmentation part      672.0000000 magnetization      48.0000000

 Free energy of the ion-electron system (eV)
  ---------------------------------------------------
  alpha Z        PSCENC =      2652.81237852
  Ewald energy   TEWEN  =    -41682.92465163
  -Hartree energ DENC   =    -25920.75078948
  -exchange      EXHF   =         0.00000000
  -V(xc)+E(xc)   XCENC  =      3606.65261973
  PAW double counting   =     55594.23204139   -59034.67079123
  entropy T*S    EENTRO =        -0.04092260
  eigenvalues    EBANDS =     -9800.96504965
  atomic energy  EATOM  =     73862.19814772
  Solvation  Ediel_sol  =         0.00000000
  ---------------------------------------------------
  free energy    TOTEN  =      -723.45701723 eV

  energy without entropy =     -723.41609463  energy(sigma->0) =     -723.43655593


--------------------------------------------------------------------------------------------------------




--------------------------------------- Iteration      1(   3)  ---------------------------------------


    EDDIAG:  cpu time    4.3791: real time    4.7861
  RMM-DIIS:  cpu time    8.9724: real time    8.9973
    ORTHCH:  cpu time    1.1620: real time    1.2427
       DOS:  cpu time    0.0022: real time    0.0022
    --------------------------------------------
      LOOP:  cpu time   14.5157: real time   15.0284

 eigenvalue-minimisations  :  7680
 total energy-change (2. order) : 0.7774352E+02  (-0.1421370E+04)
 number of electron     672.0000000 magnetization      48.0000000
 augmentation part      672.0000000 magnetization      48.0000000

 Free energy of the ion-electron system (eV)
  ---------------------------------------------------
  alpha Z        PSCENC =      2652.81237852
  Ewald energy   TEWEN  =    -41682.92465163
  -Hartree energ DENC   =    -25920.75078948
  -exchange      EXHF   =         0.00000000
  -V(xc)+E(xc)   XCENC  =      3606.65261973
  PAW double counting   =     55594.23204139   -59034.67079123
  entropy T*S    EENTRO =        -0.03743648
  eigenvalues    EBANDS =     -9723.22501093
  atomic energy  EATOM  =     73862.19814772
  Solvation  Ediel_sol  =         0.00000000
  ---------------------------------------------------
  free energy    TOTEN  =      -645.71349238 eV

  energy without entropy =     -645.67605591  energy(sigma->0) =     -645.69477414


--------------------------------------------------------------------------------------------------------




--------------------------------------- Iteration      1(   4)  ---------------------------------------


    EDDIAG:  cpu time    4.4322: real time    4.8158
  RMM-DIIS:  cpu time    8.9709: real time    9.0199
    ORTHCH:  cpu time    1.1614: real time    1.2415
       DOS:  cpu time    0.0014: real time    0.0014
    --------------------------------------------
      LOOP:  cpu time   14.5659: real time   15.0786

 eigenvalue-minimisations  :  7680
 total energy-change (2. order) :-0.4664200E+03  (-0.4274396E+03)
 number of electron     672.0000000 magnetization      48.0000000
 augmentation part      672.0000000 magnetization      48.0000000

 Free energy of the ion-electron system (eV)
  ---------------------------------------------------
  alpha Z        PSCENC =      2652.81237852
  Ewald energy   TEWEN  =    -41682.92465163
  -Hartree energ DENC   =    -25920.75078948
  -exchange      EXHF   =         0.00000000
  -V(xc)+E(xc)   XCENC  =      3606.65261973
  PAW double counting   =     55594.23204139   -59034.67079123
  entropy T*S    EENTRO =        -0.00000000
  eigenvalues    EBANDS =    -10189.68245939
  atomic energy  EATOM  =     73862.19814772
  Solvation  Ediel_sol  =         0.00000000
  ---------------------------------------------------
  free energy    TOTEN  =     -1112.13350437 eV

  energy without entropy =    -1112.13350437  energy(sigma->0) =    -1112.13350437


--------------------------------------------------------------------------------------------------------




--------------------------------------- Iteration      1(   5)  ---------------------------------------


    EDDIAG:  cpu time    4.4413: real time    4.8195
  RMM-DIIS:  cpu time    9.0746: real time    9.0860
    ORTHCH:  cpu time    1.1661: real time    1.2431
       DOS:  cpu time    0.0012: real time    0.0012
    --------------------------------------------
      LOOP:  cpu time   14.6833: real time   15.1499

 eigenvalue-minimisations  :  7680
 total energy-change (2. order) :-0.1039164E+03  (-0.1595979E+03)
 number of electron     672.0000000 magnetization      48.0000000
 augmentation part      672.0000000 magnetization      48.0000000

 Free energy of the ion-electron system (eV)
  ---------------------------------------------------
  alpha Z        PSCENC =      2652.81237852
  Ewald energy   TEWEN  =    -41682.92465163
  -Hartree energ DENC   =    -25920.75078948
  -exchange      EXHF   =         0.00000000
  -V(xc)+E(xc)   XCENC  =      3606.65261973
  PAW double counting   =     55594.23204139   -59034.67079123
  entropy T*S    EENTRO =        -0.00000000
  eigenvalues    EBANDS =    -10293.59890769
  atomic energy  EATOM  =     73862.19814772
  Solvation  Ediel_sol  =         0.00000000
  ---------------------------------------------------
  free energy    TOTEN  =     -1216.04995267 eV

  energy without entropy =    -1216.04995267  energy(sigma->0) =    -1216.04995267


--------------------------------------------------------------------------------------------------------




--------------------------------------- Iteration      1(   6)  ---------------------------------------


    EDDIAG:  cpu time    4.5164: real time    4.8976
  RMM-DIIS:  cpu time    8.9198: real time    9.0173
    ORTHCH:  cpu time    1.1618: real time    1.2410
       DOS:  cpu time    0.0012: real time    0.0012
    --------------------------------------------
      LOOP:  cpu time   14.5993: real time   15.1572

 eigenvalue-minimisations  :  7680
 total energy-change (2. order) :-0.8768048E+01  (-0.7914228E+02)
 number of electron     672.0000000 magnetization      48.0000000
 augmentation part      672.0000000 magnetization      48.0000000

 Free energy of the ion-electron system (eV)
  ---------------------------------------------------
  alpha Z        PSCENC =      2652.81237852
  Ewald energy   TEWEN  =    -41682.92465163
  -Hartree energ DENC   =    -25920.75078948
  -exchange      EXHF   =         0.00000000
  -V(xc)+E(xc)   XCENC  =      3606.65261973
  PAW double counting   =     55594.23204139   -59034.67079123
  entropy T*S    EENTRO =        -0.00000000
  eigenvalues    EBANDS =    -10302.36695538
  atomic energy  EATOM  =     73862.19814772
  Solvation  Ediel_sol  =         0.00000000
  ---------------------------------------------------
  free energy    TOTEN  =     -1224.81800036 eV

  energy without entropy =    -1224.81800036  energy(sigma->0) =    -1224.81800036


--------------------------------------------------------------------------------------------------------




--------------------------------------- Iteration      1(   7)  ---------------------------------------


    EDDIAG:  cpu time    4.4114: real time    4.7752
  RMM-DIIS:  cpu time    9.0060: real time    9.0142
    ORTHCH:  cpu time    1.1698: real time    1.2458
       DOS:  cpu time    0.0012: real time    0.0012
    --------------------------------------------
      LOOP:  cpu time   14.5883: real time   15.0364

 eigenvalue-minimisations  :  7680
 total energy-change (2. order) :-0.1757935E+01  (-0.4822217E+02)
 number of electron     672.0000000 magnetization      48.0000000
 augmentation part      672.0000000 magnetization      48.0000000

 Free energy of the ion-electron system (eV)
  ---------------------------------------------------
  alpha Z        PSCENC =      2652.81237852
  Ewald energy   TEWEN  =    -41682.92465163
  -Hartree energ DENC   =    -25920.75078948
  -exchange      EXHF   =         0.00000000
  -V(xc)+E(xc)   XCENC  =      3606.65261973
  PAW double counting   =     55594.23204139   -59034.67079123
  entropy T*S    EENTRO =        -0.00000000
  eigenvalues    EBANDS =    -10304.12489057
  atomic energy  EATOM  =     73862.19814772
  Solvation  Ediel_sol  =         0.00000000
  ---------------------------------------------------
  free energy    TOTEN  =     -1226.57593555 eV

  energy without entropy =    -1226.57593555  energy(sigma->0) =    -1226.57593555


--------------------------------------------------------------------------------------------------------




--------------------------------------- Iteration      1(   8)  ---------------------------------------


    EDDIAG:  cpu time    4.4679: real time    4.8570
  RMM-DIIS:  cpu time    8.9916: real time    9.0332
    ORTHCH:  cpu time    1.1652: real time    1.2413
       DOS:  cpu time    0.0011: real time    0.0011
    --------------------------------------------
      LOOP:  cpu time   14.6258: real time   15.1326

 eigenvalue-minimisations  :  7680
 total energy-change (2. order) : 0.5056033E+01  (-0.2984339E+02)
 number of electron     672.0000000 magnetization      48.0000000
 augmentation part      672.0000000 magnetization      48.0000000

 Free energy of the ion-electron system (eV)
  ---------------------------------------------------
  alpha Z        PSCENC =      2652.81237852
  Ewald energy   TEWEN  =    -41682.92465163
  -Hartree energ DENC   =    -25920.75078948
  -exchange      EXHF   =         0.00000000
  -V(xc)+E(xc)   XCENC  =      3606.65261973
  PAW double counting   =     55594.23204139   -59034.67079123
  entropy T*S    EENTRO =        -0.00000000
  eigenvalues    EBANDS =    -10299.06885731
  atomic energy  EATOM  =     73862.19814772
  Solvation  Ediel_sol  =         0.00000000
  ---------------------------------------------------
  free energy    TOTEN  =     -1221.51990228 eV

  energy without entropy =    -1221.51990228  energy(sigma->0) =    -1221.51990228


--------------------------------------------------------------------------------------------------------




--------------------------------------- Iteration      1(   9)  ---------------------------------------


    EDDIAG:  cpu time    4.4187: real time    4.8007
  RMM-DIIS:  cpu time   18.6491: real time   18.7382
    ORTHCH:  cpu time    1.1583: real time    1.2391
       DOS:  cpu time    0.0015: real time    0.0015
    --------------------------------------------
      LOOP:  cpu time   24.2277: real time   24.7795

 eigenvalue-minimisations  : 21774
 total energy-change (2. order) : 0.9221382E+01  (-0.1315688E+02)
 number of electron     672.0000000 magnetization      48.0000000
 augmentation part      672.0000000 magnetization      48.0000000

 Free energy of the ion-electron system (eV)
  ---------------------------------------------------
  alpha Z        PSCENC =      2652.81237852
  Ewald energy   TEWEN  =    -41682.92465163
  -Hartree energ DENC   =    -25920.75078948
  -exchange      EXHF   =         0.00000000
  -V(xc)+E(xc)   XCENC  =      3606.65261973
  PAW double counting   =     55594.23204139   -59034.67079123
  entropy T*S    EENTRO =        -0.00000000
  eigenvalues    EBANDS =    -10289.84747535
  atomic energy  EATOM  =     73862.19814772
  Solvation  Ediel_sol  =         0.00000000
  ---------------------------------------------------
  free energy    TOTEN  =     -1212.29852033 eV

  energy without entropy =    -1212.29852033  energy(sigma->0) =    -1212.29852033


--------------------------------------------------------------------------------------------------------




--------------------------------------- Iteration      1(  10)  ---------------------------------------


    EDDIAG:  cpu time    4.4210: real time    4.8126
  RMM-DIIS:  cpu time   17.8790: real time   17.9062
    ORTHCH:  cpu time    1.1681: real time    1.2451
       DOS:  cpu time    0.0015: real time    0.0015
    --------------------------------------------
      LOOP:  cpu time   23.4696: real time   23.9655

 eigenvalue-minimisations  : 19681
 total energy-change (2. order) :-0.1856979E+01  (-0.5232320E+00)
 number of electron     672.0000000 magnetization      48.0000000
 augmentation part      672.0000000 magnetization      48.0000000

 Free energy of the ion-electron system (eV)
  ---------------------------------------------------
  alpha Z        PSCENC =      2652.81237852
  Ewald energy   TEWEN  =    -41682.92465163
  -Hartree energ DENC   =    -25920.75078948
  -exchange      EXHF   =         0.00000000
  -V(xc)+E(xc)   XCENC  =      3606.65261973
  PAW double counting   =     55594.23204139   -59034.67079123
  entropy T*S    EENTRO =        -0.00000003
  eigenvalues    EBANDS =    -10291.70445435
  atomic energy  EATOM  =     73862.19814772
  Solvation  Ediel_sol  =         0.00000000
  ---------------------------------------------------
  free energy    TOTEN  =     -1214.15549935 eV

  energy without entropy =    -1214.15549932  energy(sigma->0) =    -1214.15549934


--------------------------------------------------------------------------------------------------------




--------------------------------------- Iteration      1(  11)  ---------------------------------------


    EDDIAG:  cpu time    4.4089: real time    4.7944
  RMM-DIIS:  cpu time   19.7955: real time   19.8146
    ORTHCH:  cpu time    1.1692: real time    1.2456
       DOS:  cpu time    0.0016: real time    0.0016
    --------------------------------------------
      LOOP:  cpu time   25.3751: real time   25.8561

 eigenvalue-minimisations  : 22575
 total energy-change (2. order) : 0.6845567E-01  (-0.4323222E-01)
 number of electron     672.0000000 magnetization      48.0000000
 augmentation part      672.0000000 magnetization      48.0000000

 Free energy of the ion-electron system (eV)
  ---------------------------------------------------
  alpha Z        PSCENC =      2652.81237852
  Ewald energy   TEWEN  =    -41682.92465163
  -Hartree energ DENC   =    -25920.75078948
  -exchange      EXHF   =         0.00000000
  -V(xc)+E(xc)   XCENC  =      3606.65261973
  PAW double counting   =     55594.23204139   -59034.67079123
  entropy T*S    EENTRO =        -0.00000003
  eigenvalues    EBANDS =    -10291.63599867
  atomic energy  EATOM  =     73862.19814772
  Solvation  Ediel_sol  =         0.00000000
  ---------------------------------------------------
  free energy    TOTEN  =     -1214.08704368 eV

  energy without entropy =    -1214.08704364  energy(sigma->0) =    -1214.08704366


--------------------------------------------------------------------------------------------------------




--------------------------------------- Iteration      1(  12)  ---------------------------------------


    EDDIAG:  cpu time    4.4620: real time    4.8519
  RMM-DIIS:  cpu time   21.7104: real time   21.7471
    ORTHCH:  cpu time    1.1680: real time    1.2435
       DOS:  cpu time    0.0014: real time    0.0014
    CHARGE:  cpu time    1.7814: real time    1.7820
    MIXING:  cpu time    0.0009: real time    0.0011
    --------------------------------------------
      LOOP:  cpu time   29.1240: real time   29.6270

 eigenvalue-minimisations  : 24457
 total energy-change (2. order) :-0.7651328E-03  (-0.4233241E-02)
 number of electron     672.0000043 magnetization      47.9999975
 augmentation part      239.1521940 magnetization      29.0581742

 Broyden mixing:
  rms(total) = 0.12653E+02    rms(broyden)= 0.12644E+02
  rms(prec ) = 0.14485E+02
  weight for this iteration     100.00

 Free energy of the ion-electron system (eV)
  ---------------------------------------------------
  alpha Z        PSCENC =      2652.81237852
  Ewald energy   TEWEN  =    -41682.92465163
  -Hartree energ DENC   =    -25920.75078948
  -exchange      EXHF   =         0.00000000
  -V(xc)+E(xc)   XCENC  =      3606.65261973
  PAW double counting   =     55594.23204139   -59034.67079123
  entropy T*S    EENTRO =        -0.00000003
  eigenvalues    EBANDS =    -10291.63676380
  atomic energy  EATOM  =     73862.19814772
  Solvation  Ediel_sol  =         0.00000000
  ---------------------------------------------------
  free energy    TOTEN  =     -1214.08780881 eV

  energy without entropy =    -1214.08780878  energy(sigma->0) =    -1214.08780879


--------------------------------------------------------------------------------------------------------




--------------------------------------- Iteration      1(  13)  ---------------------------------------


    POTLOK:  cpu time    0.1767: real time    0.1768
    SETDIJ:  cpu time    4.9985: real time    5.0037
    EDDIAG:  cpu time    4.4024: real time    4.7897
  RMM-DIIS:  cpu time   17.3860: real time   17.4136
    ORTHCH:  cpu time    1.1616: real time    1.2390
       DOS:  cpu time    0.0016: real time    0.0016
    CHARGE:  cpu time    1.7852: real time    1.7857
    MIXING:  cpu time    0.0009: real time    0.0010
    --------------------------------------------
      LOOP:  cpu time   29.9129: real time   30.4111

 eigenvalue-minimisations  : 18777
 total energy-change (2. order) : 0.2295318E+03  (-0.1211614E+03)
 number of electron     671.9999942 magnetization      47.9999974
 augmentation part      268.7178523 magnetization      26.6330582

 Broyden mixing:
  rms(total) = 0.13843E+02    rms(broyden)= 0.13840E+02
  rms(prec ) = 0.15557E+02
  weight for this iteration     100.00

 eigenvalues of (default mixing * dielectric matrix)
  average eigenvalue GAMMA=   0.3210
  0.3210

 Free energy of the ion-electron system (eV)
  ---------------------------------------------------
  alpha Z        PSCENC =      2652.81237852
  Ewald energy   TEWEN  =    -41682.92465163
  -Hartree energ DENC   =    -25257.83245109
  -exchange      EXHF   =         0.00000000
  -V(xc)+E(xc)   XCENC  =      3697.22363806
  PAW double counting   =     59977.36067536   -63402.96064836
  entropy T*S    EENTRO =        -0.06853350
  eigenvalues    EBANDS =    -10830.36456145
  atomic energy  EATOM  =     73862.19814772
  Solvation  Ediel_sol  =         0.00000000
  ---------------------------------------------------
  free energy    TOTEN  =      -984.55600637 eV

  energy without entropy =     -984.48747288  energy(sigma->0) =     -984.52173963


--------------------------------------------------------------------------------------------------------




--------------------------------------- Iteration      1(  14)  ---------------------------------------


    POTLOK:  cpu time    0.1779: real time    0.1782
    SETDIJ:  cpu time    5.0091: real time    5.0111
    EDDIAG:  cpu time    4.4008: real time    4.8106
  RMM-DIIS:  cpu time   17.6188: real time   17.6656
    ORTHCH:  cpu time    1.1606: real time    1.2376
       DOS:  cpu time    0.0014: real time    0.0014
    CHARGE:  cpu time    1.7885: real time    1.7904
    MIXING:  cpu time    0.0009: real time    0.0009
    --------------------------------------------
      LOOP:  cpu time   30.1580: real time   30.6958

 eigenvalue-minimisations  : 19394
 total energy-change (2. order) : 0.6879883E+02  (-0.1747289E+02)
 number of electron     672.0000001 magnetization      47.9999958
 augmentation part      246.6509982 magnetization      32.1988468

 Broyden mixing:
  rms(total) = 0.53251E+01    rms(broyden)= 0.53210E+01
  rms(prec ) = 0.57435E+01
  weight for this iteration     100.00

 eigenvalues of (default mixing * dielectric matrix)
  average eigenvalue GAMMA=   0.7349
  1.1108  0.3590

 Free energy of the ion-electron system (eV)
  ---------------------------------------------------
  alpha Z        PSCENC =      2652.81237852
  Ewald energy   TEWEN  =    -41682.92465163
  -Hartree energ DENC   =    -25869.30042975
  -exchange      EXHF   =         0.00000000
  -V(xc)+E(xc)   XCENC  =      3674.92343501
  PAW double counting   =     63396.04233961   -66879.11548924
  entropy T*S    EENTRO =        -0.00000000
  eigenvalues    EBANDS =    -10070.39291107
  atomic energy  EATOM  =     73862.19814772
  Solvation  Ediel_sol  =         0.00000000
  ---------------------------------------------------
  free energy    TOTEN  =      -915.75718083 eV

  energy without entropy =     -915.75718083  energy(sigma->0) =     -915.75718083


--------------------------------------------------------------------------------------------------------




--------------------------------------- Iteration      1(  15)  ---------------------------------------


    POTLOK:  cpu time    0.1739: real time    0.1747
    SETDIJ:  cpu time    5.0065: real time    5.0094
    EDDIAG:  cpu time    4.4370: real time    4.7987
  RMM-DIIS:  cpu time   18.1551: real time   18.1740
    ORTHCH:  cpu time    1.1617: real time    1.2417
       DOS:  cpu time    0.0016: real time    0.0016
    CHARGE:  cpu time    1.7811: real time    1.7858
    MIXING:  cpu time    0.0009: real time    0.0009
    --------------------------------------------
      LOOP:  cpu time   30.7179: real time   31.1866

 eigenvalue-minimisations  : 20246
 total energy-change (2. order) : 0.1408590E+02  (-0.1892363E+01)
 number of electron     671.9999993 magnetization      47.9999944
 augmentation part      249.6630120 magnetization      33.8114171

 Broyden mixing:
  rms(total) = 0.21482E+01    rms(broyden)= 0.21479E+01
  rms(prec ) = 0.22323E+01
  weight for this iteration     100.00

 eigenvalues of (default mixing * dielectric matrix)
  average eigenvalue GAMMA=   0.9657
  0.3856  0.7605  1.7511

 Free energy of the ion-electron system (eV)
  ---------------------------------------------------
  alpha Z        PSCENC =      2652.81237852
  Ewald energy   TEWEN  =    -41682.92465163
  -Hartree energ DENC   =    -25794.86136498
  -exchange      EXHF   =         0.00000000
  -V(xc)+E(xc)   XCENC  =      3707.77915026
  PAW double counting   =     67539.35596509   -71063.03063466
  entropy T*S    EENTRO =        -0.00000000
  eigenvalues    EBANDS =    -10123.00027140
  atomic energy  EATOM  =     73862.19814772
  Solvation  Ediel_sol  =         0.00000000
  ---------------------------------------------------
  free energy    TOTEN  =      -901.67128108 eV

  energy without entropy =     -901.67128108  energy(sigma->0) =     -901.67128108


--------------------------------------------------------------------------------------------------------




--------------------------------------- Iteration      1(  16)  ---------------------------------------


    POTLOK:  cpu time    0.1731: real time    0.1745
    SETDIJ:  cpu time    5.0622: real time    5.0665
    EDDIAG:  cpu time    4.4940: real time    4.8390
  RMM-DIIS:  cpu time   17.3494: real time   17.3729
    ORTHCH:  cpu time    1.1687: real time    1.2468
       DOS:  cpu time    0.0015: real time    0.0015
    CHARGE:  cpu time    1.8051: real time    1.8067
    MIXING:  cpu time    0.0010: real time    0.0010
    --------------------------------------------
      LOOP:  cpu time   30.0550: real time   30.5089

 eigenvalue-minimisations  : 19028
 total energy-change (2. order) :-0.1563602E+01  (-0.6725913E+00)
 number of electron     671.9999990 magnetization      47.9999939
 augmentation part      251.2205752 magnetization      33.8863682

 Broyden mixing:
  rms(total) = 0.13838E+01    rms(broyden)= 0.13833E+01
  rms(prec ) = 0.14766E+01
  weight for this iteration     100.00

 eigenvalues of (default mixing * dielectric matrix)
  average eigenvalue GAMMA=   0.9827
  2.0955  0.9068  0.3927  0.5358

 Free energy of the ion-electron system (eV)
  ---------------------------------------------------
  alpha Z        PSCENC =      2652.81237852
  Ewald energy   TEWEN  =    -41682.92465163
  -Hartree energ DENC   =    -25742.55312861
  -exchange      EXHF   =         0.00000000
  -V(xc)+E(xc)   XCENC  =      3709.05483130
  PAW double counting   =     70583.02516904   -74137.22898372
  entropy T*S    EENTRO =        -0.00000000
  eigenvalues    EBANDS =    -10147.61864606
  atomic energy  EATOM  =     73862.19814772
  Solvation  Ediel_sol  =         0.00000000
  ---------------------------------------------------
  free energy    TOTEN  =      -903.23488344 eV

  energy without entropy =     -903.23488344  energy(sigma->0) =     -903.23488344


--------------------------------------------------------------------------------------------------------




--------------------------------------- Iteration      1(  17)  ---------------------------------------


    POTLOK:  cpu time    0.1751: real time    0.1762
    SETDIJ:  cpu time    5.0625: real time    5.0646
    EDDIAG:  cpu time    4.4484: real time    4.8054
  RMM-DIIS:  cpu time   18.2906: real time   18.3549
    ORTHCH:  cpu time    1.1589: real time    1.2436
       DOS:  cpu time    0.0014: real time    0.0014
    CHARGE:  cpu time    1.7880: real time    1.7909
    MIXING:  cpu time    0.0020: real time    0.0020
    --------------------------------------------
      LOOP:  cpu time   30.9270: real time   31.4391

 eigenvalue-minimisations  : 20536
 total energy-change (2. order) : 0.2096924E+00  (-0.5728500E-01)
 number of electron     671.9999990 magnetization      47.9999936
 augmentation part      251.1038215 magnetization      33.8821328

 Broyden mixing:
  rms(total) = 0.74365E+00    rms(broyden)= 0.74356E+00
  rms(prec ) = 0.83745E+00
  weight for this iteration     100.00

 eigenvalues of (default mixing * dielectric matrix)
  average eigenvalue GAMMA=   1.0121
  2.2531  1.1465  0.3836  0.7033  0.5743

 Free energy of the ion-electron system (eV)
  ---------------------------------------------------
  alpha Z        PSCENC =      2652.81237852
  Ewald energy   TEWEN  =    -41682.92465163
  -Hartree energ DENC   =    -25734.85657536
  -exchange      EXHF   =         0.00000000
  -V(xc)+E(xc)   XCENC  =      3705.88792433
  PAW double counting   =     71396.21149307   -74958.24514967
  entropy T*S    EENTRO =        -0.00000000
  eigenvalues    EBANDS =    -10144.10875799
  atomic energy  EATOM  =     73862.19814772
  Solvation  Ediel_sol  =         0.00000000
  ---------------------------------------------------
  free energy    TOTEN  =      -903.02519100 eV

  energy without entropy =     -903.02519100  energy(sigma->0) =     -903.02519100


--------------------------------------------------------------------------------------------------------




--------------------------------------- Iteration      1(  18)  ---------------------------------------


    POTLOK:  cpu time    0.1746: real time    0.1752
    SETDIJ:  cpu time    5.0008: real time    5.0286
    EDDIAG:  cpu time    4.4416: real time    4.7804
  RMM-DIIS:  cpu time   17.8266: real time   17.8415
    ORTHCH:  cpu time    1.2302: real time    1.3079
       DOS:  cpu time    0.0016: real time    0.0016
    CHARGE:  cpu time    1.7821: real time    1.7833
    MIXING:  cpu time    0.0011: real time    0.0011
    --------------------------------------------
      LOOP:  cpu time   30.4586: real time   30.9196

 eigenvalue-minimisations  : 19131
 total energy-change (2. order) : 0.3851336E+00  (-0.7027382E-01)
 number of electron     671.9999992 magnetization      47.9999934
 augmentation part      250.6082568 magnetization      33.8442045

 Broyden mixing:
  rms(total) = 0.26695E+00    rms(broyden)= 0.26666E+00
  rms(prec ) = 0.28234E+00
  weight for this iteration     100.00

 eigenvalues of (default mixing * dielectric matrix)
  average eigenvalue GAMMA=   1.0189
  2.4598  1.3585  0.8433  0.3849  0.5913  0.4754

 Free energy of the ion-electron system (eV)
[...]
   4      -0.666    -1.095     1.760     0.077     0.085    -0.123
   5      -0.794    -0.915     1.709     0.292    -0.025     0.033
   6      -0.796    -1.061     1.857    -0.300    -0.038    -0.019
   7      -0.771    -0.920     1.691     0.296    -0.043     0.039
   8      -0.703    -1.130     1.834     0.070     0.009     0.087
   9      -0.545    -0.793     1.338    -0.143    -0.056    -0.030
  10      -0.988    -0.908     1.896     0.110     0.078     0.017
  11      -1.133    -0.583     1.716     0.019     0.039    -0.067
  12      -0.590    -0.682     1.272    -0.157    -0.041     0.039
  13      -0.942    -0.823     1.764     0.260    -0.028     0.027
  14      -0.637    -0.792     1.428    -0.196    -0.014    -0.151
  15      -0.849    -0.533     1.381    -0.038     0.040     0.100
  16      -0.633    -0.777     1.411    -0.182    -0.055    -0.017
  17       1.649     1.431    -3.080    -0.222    -0.065     0.019
  18       1.305     1.688    -2.993     0.101     0.146     0.096
  19       1.548     1.446    -2.994    -0.103     0.078     0.041
  20       1.851     1.142    -2.992    -0.086    -0.152     0.068
  21       1.538     1.388    -2.926     0.052    -0.034    -0.035
  22       1.615     1.330    -2.945    -0.028    -0.132    -0.146
  23       1.492     1.420    -2.912     0.004     0.056    -0.153
  24       1.543     1.383    -2.926     0.054     0.132     0.105
  25      -1.135     0.670     0.465     0.271     0.186     0.169
  26      -0.809    -0.279     1.088     0.150    -0.314     0.606
  27       0.288     0.588    -0.876     0.372    -0.558     0.669
  28      -1.858    -1.132     2.990     1.352    -0.208     0.834
  29      -1.916     0.022     1.894     0.156    -0.379    -0.667
  30      -1.524     0.951     0.574     0.370    -0.166    -0.046
  31      -0.496    -1.477     1.973    -0.328    -0.335    -0.585
  32      -0.998     1.905    -0.907    -1.192     0.565     0.141
  33      -2.035     0.833     1.201     1.142     0.173    -0.529
  34      -1.550     0.518     1.032    -0.503     0.358    -0.594
  35       0.318    -1.501     1.182    -0.155    -0.015     0.477
  36       0.202    -0.749     0.547     0.171    -0.086     0.635
  37       0.271    -0.419     0.148     0.186     0.605    -0.950
  38       0.154    -0.744     0.589    -1.326     0.389     0.452
  39      -0.734    -0.141     0.875     0.867    -0.215    -0.236
  40      -1.012     0.188     0.824     1.787    -0.003     0.089
  41      -1.693     2.958    -1.266    -5.330     2.706    -3.114
  42      -5.445     3.788     1.658     3.656     1.966     4.974
  43       3.186    -6.185     2.999     0.433    -4.397     0.889
  44      -3.854     3.348     0.506    -4.559    -2.487     2.730
  45       4.712    -6.502     1.790    -0.238     5.043     0.388
  46      -2.263     1.228     1.034     5.747    -3.151    -4.584
  47      -1.215     0.870     0.345    -5.002     2.641    -3.630
  48       4.953    -5.829     0.877    -0.614    -4.565     1.014
  49      -5.404     3.947     1.457     4.763     1.448     6.054
  50      -4.894     2.512     2.383    -4.342    -2.765     5.058
  51      -3.943     0.946     2.997     4.756    -2.859    -5.031
  52       5.751    -6.162     0.411    -2.111     4.859     2.173
  53      -2.691     2.725    -0.035    -5.209     1.873    -4.510
  54      -4.921     4.087     0.834     4.694     1.324     4.621
  55       4.680    -4.921     0.241     0.877    -5.450    -0.332
  56      -1.739     2.448    -0.709    -5.247    -2.919     4.382
  57       4.557    -5.840     1.282    -1.761     5.114     0.160
  58      -2.581     2.682    -0.101     4.834    -2.351    -2.404
  59      -2.301     1.746     0.555    -4.824     3.130    -4.123
  60       4.899    -7.144     2.245    -0.900    -4.335    -1.219
  61      -3.744     2.506     1.238     4.170     2.372     4.827
  62      -3.353     2.215     1.138    -5.653    -3.059     2.841
  63      -1.721     3.153    -1.432     5.857    -1.281    -1.893
  64       4.417    -5.856     1.439     0.302     4.741    -1.478
  65      -2.048     1.060     0.988    -5.363     3.473    -5.729
  66      -1.018     2.571    -1.553     6.370     2.300     3.160
  67       3.495    -4.938     1.443     0.654    -4.318    -0.191
  68      -3.232     1.690     1.542    -5.389    -2.007     4.454
  69       3.317    -5.352     2.035    -0.724     4.510     0.558
  70      -4.039     2.408     1.630     4.056    -3.218    -3.860
  71      -3.014     1.684     1.331    -5.605     2.069    -4.189
  72       3.797    -5.730     1.934     0.134    -4.228    -0.150
  73      -4.159     1.290     2.869     3.387     3.578     3.556
  74      -3.392     3.441    -0.049    -4.315    -2.753     4.237
  75      -2.276     2.746    -0.470     5.706    -2.104    -4.397
  76       5.640    -5.252    -0.388     0.844     3.739    -0.595
  77      -3.037     3.168    -0.131    -5.682     3.317    -3.006
  78      -3.943     2.774     1.169     4.540     3.673     2.706
  79       4.804    -6.327     1.524    -2.333    -4.485    -0.108
  80      -4.065     2.126     1.939    -3.852    -3.416     2.716
  81       5.789    -6.731     0.942     2.438     4.597    -0.068
  82      -2.756     1.229     1.527     6.884    -2.106    -4.575
  83      -3.132     1.730     1.403    -4.595     1.903    -3.512
  84       4.917    -4.833    -0.084    -0.312    -4.755     2.909
  85      -2.456     4.151    -1.695     4.906     1.168     3.368
  86      -1.470     1.332     0.138    -4.974    -1.967     3.325
  87      -2.652     3.107    -0.455     4.141    -2.888    -3.613
  88       5.922    -5.372    -0.549    -1.049     4.992     1.963
 ---------------------------------------------------------------------


 Total hyperfine coupling parameters after diagonalization (MHz)
 (convention: |A_zz| > |A_xx| > |A_yy|)
 ----------------------------------------------------------------------
  ion      A_xx      A_yy      A_zz     asymmetry (A_yy - A_xx)/ A_zz 
 ----------------------------------------------------------------------
   1       0.171     0.012     2.956      -0.054
   2       2.165     1.905     4.014      -0.065
   3       2.150     1.625     4.021      -0.131
   4       0.451    -0.010     2.873      -0.160
   5       2.476     1.879     4.742      -0.126
   6       0.713     0.057     3.171      -0.207
   7       1.792     1.181     4.025      -0.152
   8       0.681     0.229     3.209      -0.141
   9       2.279     1.899     4.100      -0.093
  10      -0.252    -0.019     2.711       0.086
  11       2.317     1.766     4.620      -0.119
  12       1.827     1.502     3.576      -0.091
  13       0.696     0.161     3.075      -0.174
  14       2.260     1.835     4.206      -0.101
  15       2.361     2.039     4.281      -0.075
  16       1.790     1.398     3.712      -0.105
  17      15.548    11.175    16.044      -0.273
  18      15.180    10.898    15.614      -0.274
  19      14.521    10.142    14.749      -0.297
  20      15.171    11.041    15.905      -0.260
  21      13.605     9.306    13.788      -0.312
  22      14.336    10.050    14.624      -0.293
  23      14.034     9.690    14.101      -0.308
  24      14.258     9.958    14.456      -0.297
  25      97.173    95.613    97.623      -0.016
  26      95.323    94.726    97.042      -0.006
  27      91.799    89.914    92.206      -0.020
  28      99.590    96.799   102.924      -0.027
  29      97.460    95.694    99.800      -0.018
  30     102.135    99.971   102.577      -0.021
  31      99.855    98.566   102.360      -0.013
  32      94.096    92.827    96.961      -0.013
  33      98.026    94.769    98.907      -0.033
  34      98.649    96.812   100.027      -0.018
  35      98.350    96.427    99.288      -0.019
  36      96.463    95.195    97.040      -0.013
  37      96.095    94.559    96.923      -0.016
  38      94.102    91.535    94.487      -0.027
  39      97.833    96.175    98.581      -0.017
  40     100.510    97.394   101.172      -0.031
  41       7.936     5.548    19.064      -0.125
  42       2.712    -1.773    13.921      -0.322
  43       5.675     0.440    14.304      -0.366
  44       6.472     1.359    15.013      -0.341
  45       6.119     1.527    16.576      -0.277
  46       6.423     2.612    18.394      -0.207
  47       6.108     3.191    16.167      -0.180
  48       6.087     2.123    16.099      -0.246
  49       2.995    -1.876    15.950      -0.305
  50       5.069     0.528    16.752      -0.271
  51       5.432     0.954    17.028      -0.263
  52       6.606    -0.361    16.114      -0.432
  53       5.259     1.877    16.466      -0.205
  54       6.481     1.432    17.326      -0.291
  55       2.704     1.087    14.507      -0.111
  56       3.408     1.709    15.896      -0.107
  57       5.497     1.285    16.012      -0.263
  58       3.950    -0.177    12.472      -0.331
  59       7.599     4.894    18.804      -0.144
  60       9.739     2.854    18.454      -0.373
  61       4.247     1.135    15.514      -0.201
  62       7.387     1.393    16.529      -0.363
  63       4.058     0.438    13.702      -0.264
  64       5.976     1.257    15.507      -0.304
  65       4.543     2.140    18.376      -0.131
  66       5.041     2.215    16.920      -0.167
  67       3.866     0.820    12.754      -0.239
  68       4.992    -0.045    15.249      -0.330
  69       6.127     2.216    15.023      -0.260
  70       5.697     1.278    15.637      -0.283
  71       7.481     2.325    17.565      -0.294
  72       3.402    -0.868    12.064      -0.354
  73       5.257     0.579    14.542      -0.322
  74       6.020     3.301    17.385      -0.156
  75       4.121     0.861    15.922      -0.205
  76       4.420     0.839    13.802      -0.259
  77       4.765    -0.065    15.326      -0.315
  78       5.703    -0.322    14.265      -0.422
  79       6.791     1.092    16.209      -0.352
  80       6.949     1.192    14.747      -0.390
  81       7.636     1.846    17.994      -0.322
  82       6.852     0.182    17.732      -0.376
  83       5.889     1.308    14.444      -0.317
  84       3.850    -1.223    13.376      -0.379
  85       1.769    -0.574    12.657      -0.185
  86       3.949     0.571    13.048      -0.259
  87       3.908     1.478    14.378      -0.169
  88       5.822     0.896    16.311      -0.302
 ---------------------------------------------------------------------



--------------------------------------------------------------------------------------------------------


 stress matrix after NEB project (eV)
    -42.34958     -1.40128     -5.94574
     -1.39416    -42.64803      1.92903
     -5.94459      1.90938    -53.45712
  FORCES: max atom, RMS     2.856293    1.122261
  FORCE total and by dimension   10.527739    2.739152
  Stress total and by dimension   80.944238   53.457118
     LOOP+:  cpu time  769.4112: real time  784.1212
    4ORBIT:  cpu time    0.0000: real time    0.0000
 


 total charge     
 
# of ion       s       p       d       tot
------------------------------------------
    1        0.051   5.996   0.000   6.048
    2        0.051   5.992   0.000   6.044
    3        0.049   5.991   0.000   6.040
    4        0.047   5.990   0.000   6.037
    5        0.054   5.996   0.000   6.050
    6        0.057   6.003   0.000   6.060
    7        0.050   5.992   0.000   6.043
    8        0.049   5.993   0.000   6.042
    9        0.046   5.989   0.000   6.035
   10        0.055   6.000   0.000   6.055
   11        0.053   5.996   0.000   6.049
   12        0.047   5.989   0.000   6.036
   13        0.052   5.995   0.000   6.047
   14        0.046   5.988   0.000   6.035
   15        0.048   5.989   0.000   6.037
   16        0.053   5.996   0.000   6.048
   17        0.152   6.134   0.089   6.374
   18        0.148   6.128   0.084   6.360
   19        0.152   6.133   0.087   6.372
   20        0.149   6.129   0.085   6.363
   21        0.152   6.133   0.088   6.372
   22        0.147   6.127   0.083   6.357
   23        0.146   6.124   0.081   6.351
   24        0.144   6.121   0.078   6.343
   25        0.382   6.471   4.844  11.696
   26        0.376   6.458   4.832  11.666
   27        0.390   6.485   4.862  11.737
   28        0.375   6.448   4.829  11.653
   29        0.381   6.465   4.841  11.686
   30        0.377   6.462   4.837  11.677
   31        0.391   6.489   4.866  11.746
   32        0.386   6.480   4.855  11.722
   33        0.369   6.439   4.821  11.629
   34        0.368   6.439   4.815  11.622
   35        0.380   6.462   4.847  11.689
   36        0.374   6.452   4.826  11.653
   37        0.382   6.469   4.841  11.692
   38        0.379   6.459   4.833  11.671
   39        0.368   6.438   4.810  11.616
   40        0.377   6.454   4.839  11.670
   41        1.599   3.504   0.000   5.103
   42        1.598   3.508   0.000   5.106
   43        1.601   3.523   0.000   5.123
   44        1.597   3.501   0.000   5.098
   45        1.600   3.536   0.000   5.136
   46        1.604   3.530   0.000   5.134
   47        1.599   3.508   0.000   5.107
   48        1.598   3.506   0.000   5.104
   49        1.599   3.475   0.000   5.074
   50        1.599   3.507   0.000   5.106
   51        1.600   3.530   0.000   5.129
   52        1.599   3.497   0.000   5.096
   53        1.600   3.522   0.000   5.121
   54        1.602   3.523   0.000   5.125
   55        1.600   3.489   0.000   5.089
   56        1.599   3.506   0.000   5.105
   57        1.600   3.473   0.000   5.073
   58        1.595   3.481   0.000   5.076
   59        1.599   3.506   0.000   5.104
   60        1.600   3.526   0.000   5.126
   61        1.598   3.521   0.000   5.119
   62        1.598   3.543   0.000   5.142
   63        1.599   3.513   0.000   5.112
   64        1.602   3.550   0.000   5.152
   65        1.600   3.467   0.000   5.067
   66        1.604   3.491   0.000   5.095
   67        1.597   3.509   0.000   5.106
   68        1.598   3.511   0.000   5.109
   69        1.599   3.529   0.000   5.128
   70        1.597   3.494   0.000   5.091
   71        1.601   3.540   0.000   5.140
   72        1.597   3.487   0.000   5.084
   73        1.598   3.515   0.000   5.113
   74        1.600   3.485   0.000   5.085
   75        1.603   3.502   0.000   5.105
   76        1.599   3.525   0.000   5.125
   77        1.598   3.496   0.000   5.094
   78        1.594   3.500   0.000   5.094
   79        1.599   3.521   0.000   5.120
   80        1.596   3.508   0.000   5.104
   81        1.601   3.514   0.000   5.115
   82        1.603   3.528   0.000   5.130
   83        1.598   3.547   0.000   5.144
   84        1.599   3.491   0.000   5.090
   85        1.596   3.469   0.000   5.066
   86        1.597   3.511   0.000   5.108
   87        1.596   3.496   0.000   5.092
   88        1.600   3.492   0.000   5.092
--------------------------------------------------
tot         84.810 416.696  78.073 579.578
 


 magnetization (x)
 
# of ion       s       p       d       tot
------------------------------------------
    1        0.001   0.000   0.000   0.001
    2        0.002   0.000   0.000   0.002
    3        0.002   0.000   0.000   0.002
    4        0.001   0.000   0.000   0.001
    5        0.002   0.000   0.000   0.002
    6        0.001   0.000   0.000   0.001
    7        0.002   0.000   0.000   0.002
    8        0.001   0.000   0.000   0.002
    9        0.002   0.000   0.000   0.002
   10        0.001   0.000   0.000   0.001
   11        0.002   0.000   0.000   0.002
   12        0.002   0.000   0.000   0.002
   13        0.001   0.000   0.000   0.001
   14        0.002   0.000   0.000   0.002
   15        0.002   0.000   0.000   0.002
   16        0.002   0.000   0.000   0.002
   17        0.008   0.003   0.001   0.012
   18        0.008   0.003   0.001   0.012
   19        0.007   0.002   0.001   0.011
   20        0.008   0.003   0.001   0.012
   21        0.007   0.002   0.001   0.010
   22        0.007   0.002   0.001   0.011
   23        0.007   0.002   0.001   0.011
   24        0.007   0.002   0.001   0.011
   25        0.015   0.030   2.743   2.789
   26        0.015   0.030   2.747   2.793
   27        0.014   0.030   2.718   2.762
   28        0.016   0.030   2.766   2.812
   29        0.016   0.031   2.748   2.794
   30        0.017   0.031   2.755   2.804
   31        0.017   0.033   2.725   2.775
   32        0.015   0.031   2.725   2.770
   33        0.015   0.029   2.766   2.811
   34        0.015   0.029   2.779   2.824
   35        0.015   0.030   2.737   2.783
   36        0.015   0.030   2.760   2.805
   37        0.015   0.031   2.742   2.788
   38        0.014   0.030   2.746   2.790
   39        0.015   0.029   2.783   2.828
   40        0.016   0.031   2.751   2.798
   41        0.003   0.052   0.000   0.054
   42        0.001   0.024   0.000   0.026
   43        0.002   0.027   0.000   0.029
   44        0.002   0.032   0.000   0.034
   45        0.002   0.047   0.000   0.049
   46        0.002   0.045   0.000   0.047
   47        0.002   0.042   0.000   0.044
   48        0.002   0.038   0.000   0.040
   49        0.002   0.021   0.000   0.023
   50        0.002   0.040   0.000   0.042
   51        0.002   0.045   0.000   0.047
   52        0.002   0.028   0.000   0.030
   53        0.002   0.042   0.000   0.044
   54        0.002   0.050   0.000   0.052
   55        0.002   0.015   0.000   0.017
   56        0.002   0.033   0.000   0.035
   57        0.002   0.023   0.000   0.026
   58        0.002   0.021   0.000   0.022
   59        0.003   0.050   0.000   0.053
   60        0.002   0.064   0.000   0.066
   61        0.002   0.036   0.000   0.038
   62        0.002   0.056   0.000   0.058
   63        0.002   0.028   0.000   0.029
   64        0.002   0.047   0.000   0.049
   65        0.002   0.028   0.000   0.030
   66        0.002   0.025   0.000   0.027
   67        0.002   0.018   0.000   0.020
   68        0.002   0.035   0.000   0.037
   69        0.002   0.040   0.000   0.042
   70        0.002   0.034   0.000   0.036
   71        0.002   0.053   0.000   0.056
   72        0.002   0.009   0.000   0.011
   73        0.002   0.033   0.000   0.035
   74        0.002   0.033   0.000   0.036
   75        0.002   0.022   0.000   0.024
   76        0.002   0.030   0.000   0.031
   77        0.002   0.030   0.000   0.032
   78        0.002   0.033   0.000   0.035
   79        0.002   0.046   0.000   0.048
   80        0.002   0.031   0.000   0.033
   81        0.002   0.053   0.000   0.055
   82        0.002   0.052   0.000   0.054
   83        0.002   0.041   0.000   0.043
   84        0.002   0.011   0.000   0.012
   85        0.001   0.004   0.000   0.006
   86        0.002   0.017   0.000   0.018
   87        0.002   0.021   0.000   0.023
   88        0.002   0.029   0.000   0.031
--------------------------------------------------
tot          0.426   2.146  44.002  46.574
 

 total amount of memory used by VASP MPI-rank0    94416. kBytes
=======================================================================

   base      :      30000. kBytes
   nonlr-proj:      13657. kBytes
   fftplans  :       1275. kBytes
   grid      :      22786. kBytes
   one-center:       2737. kBytes
   wavefun   :      23961. kBytes
 
  
  
 General timing and accounting informations for this job:
 ========================================================
  
                  Total CPU time used (sec):      790.505
                            User time (sec):      782.233
                          System time (sec):        8.272
                         Elapsed time (sec):      807.651
  
                   Maximum memory used (kb):      193088.
                   Average memory used (kb):           0.
  
                          Minor page faults:       317452
                          Major page faults:            0
                 Voluntary context switches:       260700
