 vasp.5.4.4.18Apr17-6-g9f103f2a35 (build Dec 02 2020 12:53:39) complex          
  
 executed on             LinuxIFC date 2021.08.04  07:12:22
 running on   96 total cores
 distrk:  each k-point on   96 cores,    1 groups
 distr:  one band on NCORES_PER_BAND=   1 cores,   96 groups


--------------------------------------------------------------------------------------------------------


 INCAR:
 POTCAR:    PAW_PBE Na_pv 19Sep2006               
 POTCAR:    PAW_PBE Mg_pv 13Apr2007               
 POTCAR:    PAW_PBE Mn_pv 02Aug2007               
 POTCAR:    PAW_PBE O 08Apr2002                   

 ----------------------------------------------------------------------------- 
|                                                                             |
|           W    W    AA    RRRRR   N    N  II  N    N   GGGG   !!!           |
|           W    W   A  A   R    R  NN   N  II  NN   N  G    G  !!!           |
|           W    W  A    A  R    R  N N  N  II  N N  N  G       !!!           |
|           W WW W  AAAAAA  RRRRR   N  N N  II  N  N N  G  GGG   !            |
|           WW  WW  A    A  R   R   N   NN  II  N   NN  G    G                |
|           W    W  A    A  R    R  N    N  II  N    N   GGGG   !!!           |
|                                                                             |
|      For optimal performance we recommend to set                            |
|        NCORE= 4 - approx SQRT( number of cores)                             |
|      NCORE specifies how many cores store one orbital (NPAR=cpu/NCORE).     |
|      This setting can  greatly improve the performance of VASP for DFT.     |
|      The default,   NCORE=1            might be grossly inefficient         |
|      on modern multi-core architectures or massively parallel machines.     |
|      Do your own testing !!!!                                               |
|      Unfortunately you need to use the default for GW and RPA calculations. |
|      (for HF NCORE is supported but not extensively tested yet)             |
|                                                                             |
 ----------------------------------------------------------------------------- 

 POTCAR:    PAW_PBE Na_pv 19Sep2006               
   VRHFIN =Na: p6s1                                                             
   LEXCH  = PE                                                                  
   EATOM  =   766.0439 eV,   56.3026 Ry                                         
                                                                                
   TITEL  = PAW_PBE Na_pv 19Sep2006                                             
   LULTRA =        F    use ultrasoft PP ?                                      
   IUNSCR =        1    unscreen: 0-lin 1-nonlin 2-no                           
   RPACOR =    1.800    partial core radius                                     
   POMASS =   22.990; ZVAL   =    7.000    mass and valenz                      
   RCORE  =    2.200    outmost cutoff radius                                   
   RWIGS  =    2.200; RWIGS  =    1.164    wigner-seitz radius (au A)           
   ENMAX  =  259.561; ENMIN  =  194.671 eV                                      
   ICORE  =        2    local potential                                         
   LCOR   =        T    correct aug charges                                     
   LPAW   =        T    paw PP                                                  
   EAUG   =  368.056                                                            
   DEXC   =    0.000                                                            
   RMAX   =    2.245    core radius for proj-oper                               
   RAUG   =    1.300    factor for augmentation sphere                          
   RDEP   =    2.259    radius for radial grids                                 
   RDEPT  =    1.738    core radius for aug-charge                              
                                                                                
   Atomic configuration                                                         
    5 entries                                                                   
     n  l   j            E        occ.                                          
     1  0  0.50     -1033.6933   2.0000                                         
     2  0  0.50       -56.7526   2.0000                                         
     2  1  1.50       -28.6721   6.0000                                         
     3  0  0.50        -2.7440   1.0000                                         
     3  2  1.50        -1.3606   0.0000                                         
   Description                                                                  
     l       E           TYP  RCUT    TYP  RCUT                                 
     1    -28.6720912     23  2.000                                             
     1      6.8029130     23  2.000                                             
     0     -2.7439560     23  2.200                                             
     0     34.0145650     23  2.200                                             
     2     -1.3605826     23  2.200                                             
  local pseudopotential read in
  partial core-charges read in
  partial kinetic energy density read in
  atomic valenz-charges read in
  non local Contribution for L=           1  read in
    real space projection operators read in
  non local Contribution for L=           1  read in
    real space projection operators read in
  non local Contribution for L=           0  read in
    real space projection operators read in
  non local Contribution for L=           0  read in
    real space projection operators read in
    PAW grid and wavefunctions read in
 
   number of l-projection  operators is LMAX  =           4
   number of lm-projection operators is LMMAX =           8
 
 POTCAR:    PAW_PBE Mg_pv 13Apr2007               
   VRHFIN =Mg: p6s2                                                             
   LEXCH  = PE                                                                  
   EATOM  =  1056.7344 eV,   77.6678 Ry                                         
                                                                                
   TITEL  = PAW_PBE Mg_pv 13Apr2007                                             
   LULTRA =        F    use ultrasoft PP ?                                      
   IUNSCR =        1    unscreen: 0-lin 1-nonlin 2-no                           
   RPACOR =    1.500    partial core radius                                     
   POMASS =   24.305; ZVAL   =    8.000    mass and valenz                      
   RCORE  =    2.000    outmost cutoff radius                                   
   RWIGS  =    2.000; RWIGS  =    1.058    wigner-seitz radius (au A)           
   ENMAX  =  403.929; ENMIN  =  302.947 eV                                      
   RCLOC  =    1.506    cutoff for local pot                                    
   LCOR   =        T    correct aug charges                                     
   LPAW   =        T    paw PP                                                  
   EAUG   =  758.780                                                            
   DEXC   =    0.000                                                            
   RMAX   =    2.045    core radius for proj-oper                               
   RAUG   =    1.300    factor for augmentation sphere                          
   RDEP   =    2.025    radius for radial grids                                 
   RDEPT  =    1.557    core radius for aug-charge                              
                                                                                
   Atomic configuration                                                         
    5 entries                                                                   
     n  l   j            E        occ.                                          
     1  0  0.50     -1259.6230   2.0000                                         
     2  0  0.50       -79.8442   2.0000                                         
     2  1  1.50       -46.6121   6.0000                                         
     3  0  0.50        -4.7055   2.0000                                         
     3  2  1.50        -1.3606   0.0000                                         
   Description                                                                  
     l       E           TYP  RCUT    TYP  RCUT                                 
     1    -46.6121073     23  1.600                                             
     1      2.7211652     23  1.600                                             
     0     -4.7054661     23  2.000                                             
     0     61.2262170     23  2.000                                             
     2     -1.3605826     23  2.000                                             
  local pseudopotential read in
  partial core-charges read in
  partial kinetic energy density read in
  atomic valenz-charges read in
  non local Contribution for L=           1  read in
    real space projection operators read in
  non local Contribution for L=           1  read in
    real space projection operators read in
  non local Contribution for L=           0  read in
    real space projection operators read in
  non local Contribution for L=           0  read in
    real space projection operators read in
  non local Contribution for L=           2  read in
    real space projection operators read in
    PAW grid and wavefunctions read in
 
   number of l-projection  operators is LMAX  =           5
   number of lm-projection operators is LMMAX =          13
 
 POTCAR:    PAW_PBE Mn_pv 02Aug2007               
   VRHFIN =Mn: 3p4s3d                                                           
   LEXCH  = PE                                                                  
   EATOM  =  2025.2664 eV,  148.8529 Ry                                         
                                                                                
   TITEL  = PAW_PBE Mn_pv 02Aug2007                                             
   LULTRA =        F    use ultrasoft PP ?                                      
   IUNSCR =        1    unscreen: 0-lin 1-nonlin 2-no                           
   RPACOR =    2.080    partial core radius                                     
   POMASS =   54.938; ZVAL   =   13.000    mass and valenz                      
   RCORE  =    2.300    outmost cutoff radius                                   
   RWIGS  =    2.500; RWIGS  =    1.323    wigner-seitz radius (au A)           
   ENMAX  =  269.864; ENMIN  =  202.398 eV                                      
   ICORE  =        3    local potential                                         
   LCOR   =        T    correct aug charges                                     
   LPAW   =        T    paw PP                                                  
   EAUG   =  569.085                                                            
   DEXC   =    0.000                                                            
   RMAX   =    2.343    core radius for proj-oper                               
   RAUG   =    1.300    factor for augmentation sphere                          
   RDEP   =    2.338    radius for radial grids                                 
   RDEPT  =    1.798    core radius for aug-charge                              
                                                                                
   Atomic configuration                                                         
    8 entries                                                                   
     n  l   j            E        occ.                                          
     1  0  0.50     -6424.8287   2.0000                                         
     2  0  0.50      -739.1154   2.0000                                         
     2  1  1.50      -625.3949   6.0000                                         
     3  0  0.50       -81.6100   2.0000                                         
     3  1  1.50       -50.4667   6.0000                                         
     3  2  2.50        -3.3745   6.0000                                         
     4  0  0.50        -4.1331   1.0000                                         
     4  3  2.50        -1.3606   0.0000                                         
   Description                                                                  
     l       E           TYP  RCUT    TYP  RCUT                                 
     1    -50.4666628     23  2.000                                             
     1     -1.3605826     23  2.000                                             
     2     -3.3744729     23  2.300                                             
     2     -4.7350555     23  2.300                                             
     0     -4.1331431     23  2.300                                             
     0      7.6656591     23  2.300                                             
     3      9.5240782     23  2.300                                             
  local pseudopotential read in
  partial core-charges read in
  partial kinetic energy density read in
  atomic valenz-charges read in
  non local Contribution for L=           1  read in
    real space projection operators read in
  non local Contribution for L=           1  read in
    real space projection operators read in
  non local Contribution for L=           2  read in
    real space projection operators read in
  non local Contribution for L=           2  read in
    real space projection operators read in
  non local Contribution for L=           0  read in
    real space projection operators read in
  non local Contribution for L=           0  read in
    real space projection operators read in
    PAW grid and wavefunctions read in
 
   number of l-projection  operators is LMAX  =           6
   number of lm-projection operators is LMMAX =          18
 
 POTCAR:    PAW_PBE O 08Apr2002                   
   VRHFIN =O: s2p4                                                              
   LEXCH  = PE                                                                  
   EATOM  =   432.3788 eV,   31.7789 Ry                                         
                                                                                
   TITEL  = PAW_PBE O 08Apr2002                                                 
   LULTRA =        F    use ultrasoft PP ?                                      
   IUNSCR =        1    unscreen: 0-lin 1-nonlin 2-no                           
   RPACOR =    1.200    partial core radius                                     
   POMASS =   16.000; ZVAL   =    6.000    mass and valenz                      
   RCORE  =    1.520    outmost cutoff radius                                   
   RWIGS  =    1.550; RWIGS  =    0.820    wigner-seitz radius (au A)           
   ENMAX  =  400.000; ENMIN  =  300.000 eV                                      
   ICORE  =        2    local potential                                         
   LCOR   =        T    correct aug charges                                     
   LPAW   =        T    paw PP                                                  
   EAUG   =  605.392                                                            
   DEXC   =    0.000                                                            
   RMAX   =    1.553    core radius for proj-oper                               
   RAUG   =    1.300    factor for augmentation sphere                          
   RDEP   =    1.550    radius for radial grids                                 
   RDEPT  =    1.329    core radius for aug-charge                              
                                                                                
   Atomic configuration                                                         
    4 entries                                                                   
     n  l   j            E        occ.                                          
     1  0  0.50      -514.6923   2.0000                                         
     2  0  0.50       -23.9615   2.0000                                         
     2  1  0.50        -9.0305   4.0000                                         
     3  2  1.50        -9.5241   0.0000                                         
   Description                                                                  
     l       E           TYP  RCUT    TYP  RCUT                                 
     0    -23.9615318     23  1.200                                             
     0     -9.5240782     23  1.200                                             
     1     -9.0304911     23  1.520                                             
     1      8.1634956     23  1.520                                             
     2     -9.5240782      7  1.500                                             
  local pseudopotential read in
  partial core-charges read in
  partial kinetic energy density read in
  kinetic energy density of atom read in
  atomic valenz-charges read in
  non local Contribution for L=           0  read in
    real space projection operators read in
  non local Contribution for L=           0  read in
    real space projection operators read in
  non local Contribution for L=           1  read in
    real space projection operators read in
  non local Contribution for L=           1  read in
    real space projection operators read in
    PAW grid and wavefunctions read in
 
   number of l-projection  operators is LMAX  =           4
   number of lm-projection operators is LMMAX =           8
 
 Optimization of the real space projectors (new method)

 maximal supplied QI-value         = 17.01
 optimisation between [QCUT,QGAM] = [ 10.20, 20.41] = [ 29.16,116.64] Ry 
 Optimized for a Real-space Cutoff    1.30 Angstroem

   l    n(q)    QCUT    max X(q) W(low)/X(q) W(high)/X(q)  e(spline) 
   1      7    10.205     4.940    0.23E-03    0.84E-03    0.11E-06
   1      7    10.205     6.253    0.40E-03    0.13E-02    0.18E-06
   0      8    10.205    37.438    0.23E-03    0.37E-03    0.42E-07
   0      8    10.205     9.606    0.16E-03    0.26E-03    0.31E-07
 Optimization of the real space projectors (new method)

 maximal supplied QI-value         = 18.90
 optimisation between [QCUT,QGAM] = [ 10.20, 20.41] = [ 29.16,116.64] Ry 
 Optimized for a Real-space Cutoff    1.26 Angstroem

   l    n(q)    QCUT    max X(q) W(low)/X(q) W(high)/X(q)  e(spline) 
   1      7    10.205     2.974    0.63E-04    0.14E-03    0.13E-06
   1      7    10.205     4.279    0.11E-03    0.45E-03    0.24E-06
   0      8    10.205    16.381    0.44E-03    0.15E-03    0.55E-07
   0      8    10.205     5.611    0.31E-03    0.11E-03    0.40E-07
   2      7    10.205     4.652    0.50E-03    0.47E-03    0.57E-07
 Optimization of the real space projectors (new method)

 maximal supplied QI-value         = 16.25
 optimisation between [QCUT,QGAM] = [ 10.24, 20.48] = [ 29.35,117.42] Ry 
 Optimized for a Real-space Cutoff    1.34 Angstroem

   l    n(q)    QCUT    max X(q) W(low)/X(q) W(high)/X(q)  e(spline) 
   1      8    10.239     3.658    0.23E-03    0.30E-03    0.98E-07
   1      8    10.239     5.612    0.32E-03    0.65E-03    0.21E-06
   2      7    10.239    55.373    0.42E-03    0.45E-03    0.65E-07
   2      7    10.239    50.863    0.43E-03    0.48E-03    0.67E-07
   0      8    10.239    79.536    0.11E-03    0.21E-03    0.56E-07
   0      8    10.239    38.668    0.96E-04    0.19E-03    0.52E-07
 Optimization of the real space projectors (new method)

 maximal supplied QI-value         = 24.76
 optimisation between [QCUT,QGAM] = [ 10.15, 20.30] = [ 28.85,115.39] Ry 
 Optimized for a Real-space Cutoff    1.38 Angstroem

   l    n(q)    QCUT    max X(q) W(low)/X(q) W(high)/X(q)  e(spline) 
   0      8    10.150    20.381    0.22E-03    0.32E-03    0.29E-06
   0      8    10.150    15.268    0.23E-03    0.35E-03    0.30E-06
   1      8    10.150     5.964    0.46E-03    0.53E-03    0.21E-06
   1      8    10.150     5.382    0.38E-03    0.45E-03    0.19E-06
  PAW_PBE Na_pv 19Sep2006               :
 energy of atom  1       EATOM= -766.0439
 kinetic energy error for atom=    0.0103 (will be added to EATOM!!)
  PAW_PBE Mg_pv 13Apr2007               :
 energy of atom  2       EATOM=-1056.7344
 kinetic energy error for atom=    0.0820 (will be added to EATOM!!)
  PAW_PBE Mn_pv 02Aug2007               :
 energy of atom  3       EATOM=-2025.2664
 kinetic energy error for atom=    0.0284 (will be added to EATOM!!)
  PAW_PBE O 08Apr2002                   :
 energy of atom  4       EATOM= -432.3788
 kinetic energy error for atom=    0.1156 (will be added to EATOM!!)
 
 
 POSCAR: Na Mg Mn  O                             
  positions in cartesian coordinates
  No initial velocities read in

 METAGGA = SCAN     LMAXTAU =  6    LMIXTAU =  F

 exchange correlation table for  LEXCH =        8
   RHO(1)=    0.500       N(1)  =     2000
   RHO(2)=  100.500       N(2)  =     4000

 VTST: version 3.2, (02/03/18)

 CHAIN: initializing optimizer
 
 OPT: Using VASP Dynamics algorithm
 CHAIN: Read ICHAIN            0
 
 POSCAR: Na Mg Mn  O                             
  positions in cartesian coordinates
  No initial velocities read in
 


--------------------------------------------------------------------------------------------------------


 ion  position               nearest neighbor table
   1  0.579  0.192  0.250-  43 2.27  52 2.38
   2  0.732  0.663  0.748-  68 2.33
   3  0.069  0.940  0.754-  47 2.18  72 2.23  69 2.31  44 2.36  25 2.78  27 2.98
   4  0.549  0.976  0.755-  84 2.34  31 2.85  29 2.87
   5  0.002  0.440  0.245-  66 2.27  55 2.32  75 2.32  64 2.33  37 2.86  39 2.89
   6  0.089  0.193  0.261-  64 2.22  50 2.25
   7  0.871  0.473  0.752-  70 2.31  68 2.36  60 2.36
   8  0.916  0.179  0.749-  60 2.25  61 2.28  57 2.28  58 2.37  32 2.79  30 2.86
   9  0.704  0.971  0.249-  79 2.34
  10  0.859  0.763  0.257-  74 2.20  65 2.28
  11  0.211  0.943  0.252-  76 2.29  42 2.31  67 2.32
  12  0.434  0.194  0.749-  45 2.20  48 2.26  49 2.29  46 2.29  28 2.84  26 2.94
  13  0.240  0.672  0.734-  81 2.24  70 2.29  80 2.34
  14  0.365  0.446  0.748-  45 2.25  48 2.30
  15  0.535  0.454  0.251-  52 2.23  43 2.24  33 2.88  35 2.90
  16  0.392  0.656  0.239-  79 2.22  77 2.31  78 2.35  38 2.75  40 2.93
  17  0.723  0.315  0.997-  53 1.93  60 2.02  49 2.07  71 2.09  43 2.11  66 2.12  30 2.83
  18  0.722  0.319  0.501-  52 1.98  46 2.02  75 2.06  57 2.08  62 2.08  68 2.11  28 2.86
  19  0.227  0.330  0.005-  78 1.91  55 1.96  41 2.05  83 2.07  48 2.13  61 2.15  38 2.80  37 2.84

  20  0.228  0.320  0.498-  87 1.98  50 2.00  58 2.00  80 2.07  45 2.13  64 2.14  40 2.80
  21  0.221  0.821  1.000-  73 1.97  67 2.00  42 2.02  84 2.07  47 2.08  77 2.13  34 2.80
  22  0.226  0.818  0.504-  81 2.01  44 2.03  51 2.07  76 2.07  86 2.13  70 2.20  31 2.77
  23  0.714  0.809  0.994-  85 2.03  59 2.03  54 2.07  65 2.07  79 2.10  72 2.10  38 2.79  33 2.80

  24  0.719  0.818  0.508-  56 2.03  88 2.07  63 2.08  69 2.10  82 2.11  74 2.14  32 2.81  35 2.82

  25  0.049  0.988  0.995-  47 1.88  72 1.90  61 1.91  67 1.94  41 1.98  54 1.98   3 2.78  30 2.84
                            34 2.87  26 2.96
  26  0.390  0.160  0.008-  43 1.86  42 1.92  48 1.93  41 1.93  49 1.96  47 2.00  33 2.83  12 2.94
                            25 2.96  29 2.98
  27  0.055  0.982  0.492-  63 1.88  69 1.89  76 1.92  44 1.92  50 1.93  58 2.01  36 2.85  32 2.88
                            28 2.93   3 2.98
  28  0.393  0.155  0.498-  46 1.87  44 1.88  51 1.89  45 1.97  52 2.00  50 2.01  31 2.79  12 2.84
                            18 2.86  27 2.93  35 2.94
  29  0.553  0.979  0.011-  79 1.88  84 1.92  59 1.92  53 1.93  49 2.02  42 2.03  38 2.84   4 2.87
                            30 2.90  26 2.98
  30  0.887  0.153  0.002-  54 1.87  61 1.88  53 1.89  55 1.90  59 1.92  60 1.97  17 2.83  25 2.84
                             8 2.86  29 2.90  37 2.92
  31  0.546  0.987  0.501-  81 1.86  46 1.87  51 1.87  62 1.90  88 1.95  56 2.03  22 2.77  28 2.79
                             4 2.85  32 2.93  40 2.99
  32  0.883  0.142  0.502-  56 1.84  58 1.92  57 1.93  62 1.94  63 1.96  64 1.96   8 2.79  24 2.81
                            27 2.88  39 2.93  31 2.93
  33  0.558  0.486  0.996-  85 1.82  71 1.85  65 1.90  48 1.93  43 1.96  78 1.96  23 2.80  26 2.83
                            15 2.88  38 2.88  34 2.96
  34  0.899  0.658  1.000-  73 1.79  66 1.85  67 1.91  71 1.94  72 1.95  65 2.00  21 2.80  37 2.86
                            25 2.87  33 2.96
  35  0.563  0.493  0.508-  74 1.84  82 1.87  52 1.91  45 1.93  68 1.93  87 1.99  24 2.82  40 2.85
                            36 2.90  15 2.90  28 2.94
  36  0.897  0.653  0.503-  68 1.86  75 1.89  76 1.90  69 1.94  70 1.99  74 1.99  27 2.85  39 2.86
                            35 2.90
  37  0.059  0.490  0.995-  66 1.86  55 1.88  77 1.89  83 1.92  73 1.99  60 2.03  19 2.84   5 2.86
                            34 2.86  38 2.89  30 2.92
  38  0.392  0.652  0.993-  84 1.85  77 1.86  83 1.89  85 1.90  78 1.91  79 1.94  16 2.75  23 2.79
                            19 2.80  29 2.84  33 2.88  37 2.89
  39  0.053  0.480  0.499-  75 1.89  57 1.90  86 1.90  64 1.92  80 1.94  70 1.97  36 2.86  40 2.87
                             5 2.89  32 2.93
  40  0.383  0.642  0.500-  80 1.85  87 1.86  86 1.91  82 1.92  88 1.96  81 1.97  20 2.80  35 2.85
                            39 2.87  16 2.93  31 2.99
  41  0.217  0.147  0.094-  26 1.93  25 1.98  19 2.05
  42  0.384  0.994  0.099-  26 1.92  21 2.02  29 2.03  11 2.31
  43  0.547  0.320  0.096-  26 1.86  33 1.96  17 2.11  15 2.24   1 2.27
  44  0.226  1.000  0.583-  28 1.88  27 1.92  22 2.03   3 2.36
  45  0.409  0.323  0.600-  35 1.93  28 1.97  20 2.13  12 2.20  14 2.25
  46  0.544  0.144  0.588-  28 1.87  31 1.87  18 2.02  12 2.29
  47  0.217  0.000  0.911-  25 1.88  26 2.00  21 2.08   3 2.18
  48  0.400  0.318  0.904-  33 1.93  26 1.93  19 2.13  12 2.26  14 2.30
  49  0.538  0.137  0.909-  26 1.96  29 2.02  17 2.07  12 2.29
  50  0.220  0.147  0.403-  27 1.93  20 2.00  28 2.01   6 2.25
  51  0.397  0.998  0.407-  31 1.87  28 1.89  22 2.07
  52  0.561  0.336  0.411-  35 1.91  18 1.98  28 2.00  15 2.23   1 2.38
  53  0.725  0.153  0.088-  30 1.89  17 1.93  29 1.93
  54  0.883  0.992  0.089-  30 1.87  25 1.98  23 2.07
  55  0.049  0.325  0.083-  37 1.88  30 1.90  19 1.96   5 2.32
  56  0.724  0.999  0.595-  32 1.84  31 2.03  24 2.03
  57  0.901  0.314  0.591-  39 1.90  32 1.93  18 2.08   8 2.28
  58  0.053  0.150  0.588-  32 1.92  20 2.00  27 2.01   8 2.37
  59  0.718  0.993  0.915-  29 1.92  30 1.92  23 2.03
  60  0.892  0.314  0.899-  30 1.97  17 2.02  37 2.03   8 2.25   7 2.36
  61  0.040  0.147  0.908-  30 1.88  25 1.91  19 2.15   8 2.28
  62  0.716  0.135  0.410-  31 1.90  32 1.94  18 2.08
  63  0.896  0.986  0.405-  27 1.88  32 1.96  24 2.08
  64  0.038  0.312  0.405-  39 1.92  32 1.96  20 2.14   6 2.22   5 2.33
  65  0.718  0.637  0.092-  33 1.90  34 2.00  23 2.07  10 2.28
  66  0.910  0.504  0.083-  34 1.85  37 1.86  17 2.12   5 2.27
  67  0.051  0.827  0.089-  34 1.91  25 1.94  21 2.00  11 2.32
  68  0.735  0.507  0.595-  36 1.86  35 1.93  18 2.11   2 2.33   7 2.36
  69  0.909  0.825  0.592-  27 1.89  36 1.94  24 2.10   3 2.31
  70  0.043  0.628  0.608-  39 1.97  36 1.99  22 2.20  13 2.29   7 2.31
  71  0.724  0.502  0.912-  33 1.85  34 1.94  17 2.09
  72  0.903  0.821  0.902-  25 1.90  34 1.95  23 2.10   3 2.23
  73  0.047  0.658  0.910-  34 1.79  21 1.97  37 1.99
  74  0.718  0.634  0.411-  35 1.84  36 1.99  24 2.14  10 2.20
  75  0.902  0.498  0.411-  36 1.89  39 1.89  18 2.06   5 2.32
  76  0.049  0.813  0.407-  36 1.90  27 1.92  22 2.07  11 2.29
  77  0.229  0.636  0.085-  38 1.86  37 1.89  21 2.13  16 2.31
  78  0.395  0.495  0.087-  19 1.91  38 1.91  33 1.96  16 2.35
  79  0.542  0.813  0.097-  29 1.88  38 1.94  23 2.10  16 2.22   9 2.34
  80  0.223  0.495  0.592-  40 1.85  39 1.94  20 2.07  13 2.34
  81  0.403  0.819  0.591-  31 1.86  40 1.97  22 2.01  13 2.24
  82  0.535  0.634  0.600-  35 1.87  40 1.92  24 2.11
  83  0.226  0.502  0.902-  38 1.89  37 1.92  19 2.07
  84  0.402  0.819  0.912-  38 1.85  29 1.92  21 2.07   4 2.34
  85  0.541  0.628  0.906-  33 1.82  38 1.90  23 2.03
  86  0.219  0.631  0.407-  39 1.90  40 1.91  22 2.13
  87  0.397  0.493  0.410-  40 1.86  20 1.98  35 1.99
  88  0.543  0.819  0.412-  31 1.95  40 1.96  24 2.07
 
  LATTYP: Found a hexagonal cell.
 ALAT       =    10.0190000534
 C/A-ratio  =     1.1196726572
  
  Lattice vectors:
  
 A1 = (  10.0190000534,   0.0000000000,   0.0000000000)
 A2 = (  -5.0095000267,   8.6767085668,   0.0000000000)
 A3 = (   0.0000000000,   0.0000000000,  11.2180004120)


Analysis of symmetry for initial positions (statically):
=====================================================================
 Subroutine PRICEL returns:
 Original cell was already a primitive cell.
 

 Routine SETGRP: Setting up the symmetry group for a 
 hexagonal supercell.


 Subroutine GETGRP returns: Found  1 space group operations
 (whereof  1 operations were pure point group operations)
 out of a pool of 24 trial point group operations.


The static configuration has the point symmetry C_1 .


Analysis of symmetry for dynamics (positions and initial velocities):
=====================================================================
 Subroutine PRICEL returns:
 Original cell was already a primitive cell.
 

 Routine SETGRP: Setting up the symmetry group for a 
 hexagonal supercell.


 Subroutine GETGRP returns: Found  1 space group operations
 (whereof  1 operations were pure point group operations)
 out of a pool of 24 trial point group operations.


The dynamic configuration has the point symmetry C_1 .


Analysis of structural, dynamic, and magnetic symmetry:
=====================================================================
 Subroutine PRICEL returns:
 Original cell was already a primitive cell.
 

 Routine SETGRP: Setting up the symmetry group for a 
 hexagonal supercell.


 Subroutine GETGRP returns: Found  1 space group operations
 (whereof  1 operations were pure point group operations)
 out of a pool of 24 trial point group operations.


The magnetic configuration has the point symmetry C_1 .


 Subroutine INISYM returns: Found  1 space group operations
 (whereof  1 operations are pure point group operations),
 and found     1 'primitive' translations

 
 

Automatic generation of k-mesh.
 generate k-points for:    2    2    2
Space group operators:
 irot       det(A)        alpha          n_x          n_y          n_z        tau_x        tau_y        tau_z
    1     1.000000     0.000000     1.000000     0.000000     0.000000     0.000000     0.000000     0.000000
 
 Subroutine IBZKPT returns following result:
 ===========================================
 
 Found      8 irreducible k-points:
 
 Following reciprocal coordinates:
            Coordinates               Weight
  0.000000  0.000000  0.000000      1.000000
  0.500000 -0.000000 -0.000000      1.000000
  0.000000  0.500000  0.000000      1.000000
  0.500000  0.500000 -0.000000      1.000000
  0.000000  0.000000  0.500000      1.000000
  0.500000 -0.000000  0.500000      1.000000
  0.000000  0.500000  0.500000      1.000000
  0.500000  0.500000  0.500000      1.000000
 
 Following cartesian coordinates:
            Coordinates               Weight
  0.000000  0.000000  0.000000      1.000000
  0.049905  0.028813 -0.000000      1.000000
  0.000000  0.057626  0.000000      1.000000
  0.049905  0.086438 -0.000000      1.000000
  0.000000  0.000000  0.044571      1.000000
  0.049905  0.028813  0.044571      1.000000
  0.000000  0.057626  0.044571      1.000000
  0.049905  0.086438  0.044571      1.000000
 


--------------------------------------------------------------------------------------------------------




 Dimension of arrays:
   k-points           NKPTS =      8   k-points in BZ     NKDIM =      8   number of bands    NBANDS=    480
   number of dos      NEDOS =    301   number of ions     NIONS =     88
   non local maximal  LDIM  =      6   non local SUM 2l+1 LMDIM =     18
   total plane-waves  NPLWV = 140000
   max r-space proj   IRMAX =   1632   max aug-charges    IRDMAX=   4555
   dimension x,y,z NGX =    50 NGY =   50 NGZ =   56
   dimension x,y,z NGXF=   100 NGYF=  100 NGZF=  112
   support grid    NGXF=   100 NGYF=  100 NGZF=  112
   ions per type =              16   8  16  48
   NGX,Y,Z   is equivalent  to a cutoff of   8.30,  8.30,  8.30 a.u.
   NGXF,Y,Z  is equivalent  to a cutoff of  16.59, 16.59, 16.60 a.u.

 SYSTEM =  unknown system                          
 POSCAR =  Na Mg Mn  O                             

 Startparameter for this run:
   NWRITE =      2    write-flag & timer
   PREC   = normal    normal or accurate (medium, high low for compatibility)
   ISTART =      0    job   : 0-new  1-cont  2-samecut
   ICHARG =      1    charge: 1-file 2-atom 10-const
   ISPIN  =      2    spin polarized calculation?
   LNONCOLLINEAR =      F non collinear calculations
   LSORBIT =      F    spin-orbit coupling
   INIWAV =      1    electr: 0-lowe 1-rand  2-diag
   LASPH  =      T    aspherical Exc in radial PAW
   METAGGA=      F    non-selfconsistent MetaGGA calc.

 Electronic Relaxation 1
   ENCUT  =  400.0 eV  29.40 Ry    5.42 a.u.  16.34 16.34 18.29*2*pi/ulx,y,z
   ENINI  =  400.0     initial cutoff
   ENAUG  =  758.8 eV  augmentation charge cutoff
   NELM   =    200;   NELMIN=  6; NELMDL=-12     # of ELM steps 
   EDIFF  = 0.1E-04   stopping-criterion for ELM
   LREAL  =      T    real-space projection
   NLSPLINE    = F    spline interpolate recip. space projectors
   LCOMPAT=      F    compatible to vasp.4.4
   GGA_COMPAT  = T    GGA compatible to vasp.4.4-vasp.4.6
   LMAXPAW     = -100 max onsite density
   LMAXMIX     =    4 max onsite mixed and CHGCAR
   VOSKOWN=      0    Vosko Wilk Nusair interpolation
   ROPT   =   -0.00050  -0.00050  -0.00050  -0.00050
 Ionic relaxation
   EDIFFG = 0.1E-03   stopping-criterion for IOM
   NSW    =      1    number of steps for IOM
   NBLOCK =      1;   KBLOCK =      1    inner block; outer block 
   IBRION =     -1    ionic relax: 0-MD 1-quasi-New 2-CG
   NFREE  =      0    steps in history (QN), initial steepest desc. (CG)
   ISIF   =      2    stress and relaxation
   IWAVPR =     10    prediction:  0-non 1-charg 2-wave 3-comb
   ISYM   =      2    0-nonsym 1-usesym 2-fastsym
   LCORR  =      T    Harris-Foulkes like correction to forces

   POTIM  = 0.5000    time-step for ionic-motion
   TEIN   =    0.0    initial temperature
   TEBEG  =    0.0;   TEEND  =   0.0 temperature during run
   SMASS  =  -3.00    Nose mass-parameter (am)
   estimated Nose-frequenzy (Omega)   =  0.10E-29 period in steps =****** mass=  -0.229E-26a.u.
   SCALEE = 1.0000    scale energy and forces
   NPACO  =    256;   APACO  = 16.0  distance and # of slots for P.C.
   PSTRESS=    0.0 pullay stress

  Mass of Ions in am
   POMASS =  22.99 24.30 54.94 16.00
  Ionic Valenz
   ZVAL   =   7.00  8.00 13.00  6.00
  Atomic Wigner-Seitz radii
   RWIGS  =  -1.00 -1.00 -1.00 -1.00
  virtual crystal weights 
   VCA    =   1.00  1.00  1.00  1.00
   NELECT =     672.0000    total number of electrons
   NUPDOWN=      48.0000    fix difference up-down

 DOS related values:
   EMIN   =  10.00;   EMAX   =-10.00  energy-range for DOS
   EFERMI =   0.00
   ISMEAR =     0;   SIGMA  =   0.05  broadening in eV -4-tet -1-fermi 0-gaus

 Electronic relaxation 2 (details)
   IALGO  =     48    algorithm
   LDIAG  =      T    sub-space diagonalisation (order eigenvalues)
   LSUBROT=      F    optimize rotation matrix (better conditioning)
   TURBO    =      0    0=normal 1=particle mesh
   IRESTART =      0    0=no restart 2=restart with 2 vectors
   NREBOOT  =      0    no. of reboots
   NMIN     =      0    reboot dimension
   EREF     =   0.00    reference energy to select bands
   IMIX   =      4    mixing-type and parameters
     AMIX     =   0.40;   BMIX     =  1.00
     AMIX_MAG =   1.60;   BMIX_MAG =  1.00
     AMIN     =   0.10
     WC   =   100.;   INIMIX=   1;  MIXPRE=   1;  MAXMIX= -45

 Intra band minimization:
   WEIMIN = 0.0000     energy-eigenvalue tresh-hold
   EBREAK =  0.52E-08  absolut break condition
   DEPER  =   0.30     relativ break condition  

   TIME   =   0.40     timestep for ELM

  volume/ion in A,a.u.               =      11.08        74.78
  Fermi-wavevector in a.u.,A,eV,Ry     =   1.445993  2.732531 28.448379  2.090897
  Thomas-Fermi vector in A             =   2.564112
 
 Write flags
   LWAVE        =      F    write WAVECAR
   LDOWNSAMPLE  =      F    k-point downsampling of WAVECAR
   LCHARG       =      F    write CHGCAR
   LVTOT        =      F    write LOCPOT, total local potential
   LVHAR        =      F    write LOCPOT, Hartree potential only
   LELF         =      F    write electronic localiz. function (ELF)
   LORBIT       =     11    0 simple, 1 ext, 2 COOP (PROOUT), +10 PAW based schemes


 Dipole corrections
   LMONO  =      F    monopole corrections only (constant potential shift)
   LDIPOL =      F    correct potential (dipole corrections)
   IDIPOL =      0    1-x, 2-y, 3-z, 4-all directions 
   EPSILON=  1.0000000 bulk dielectric constant

 Exchange correlation treatment:
   GGA     =    --    GGA type
   LEXCH   =     8    internal setting for exchange type
   VOSKOWN=      0    Vosko Wilk Nusair interpolation
   LHFCALC =     F    Hartree Fock is set to
   LHFONE  =     F    Hartree Fock one center treatment
   AEXX    =    0.0000 exact exchange contribution

 Linear response parameters
   LEPSILON=     F    determine dielectric tensor
   LRPA    =     F    only Hartree local field effects (RPA)
   LNABLA  =     F    use nabla operator in PAW spheres
   LVEL    =     F    velocity operator in full k-point grid
   LINTERFAST=   F  fast interpolation
   KINTER  =     0    interpolate to denser k-point grid
   CSHIFT  =0.1000    complex shift for real part using Kramers Kronig
   OMEGAMAX=  -1.0    maximum frequency
   DEG_THRESHOLD= 0.2000000E-02 threshold for treating states as degnerate
   RTIME   =   -0.100 relaxation time in fs
  (WPLASMAI=    0.000 imaginary part of plasma frequency in eV, 0.658/RTIME)
   DFIELD  = 0.0000000 0.0000000 0.0000000 field for delta impulse in time
 
 Orbital magnetization related:
   ORBITALMAG=     F  switch on orbital magnetization
   LCHIMAG   =     F  perturbation theory with respect to B field
   DQ        =  0.001000  dq finite difference perturbation B field
   LLRAUG    =     F  two centre corrections for induced B field



--------------------------------------------------------------------------------------------------------


 Static calculation
 charge density and potential will be updated during run
 spin polarized calculation
 RMM-DIIS sequential band-by-band
 perform sub-space diagonalisation
    before iterative eigenvector-optimisation
 modified Broyden-mixing scheme, WC =      100.0
 initial mixing is a Kerker type mixing with AMIX =  0.4000 and BMIX =      1.0000
 Hartree-type preconditioning will be used
 using additional bands          144
 real space projection scheme for non local part
 use partial core corrections
 calculate Harris-corrections to forces 
   (improved forces if not selfconsistent)
 use gradient corrections 
 use of overlap-Matrix (Vanderbilt PP)
 Gauss-broadening in eV      SIGMA  =   0.05


--------------------------------------------------------------------------------------------------------


  energy-cutoff  :      400.00
  volume of cell :      975.20
      direct lattice vectors                 reciprocal lattice vectors
    10.019000053  0.000000000  0.000000000     0.099810360  0.057625538 -0.000000000
    -5.009500027  8.676708567  0.000000000     0.000000000  0.115251076  0.000000000
     0.000000000  0.000000000 11.218000412     0.000000000  0.000000000  0.089142446

  length of vectors
    10.019000053 10.019000053 11.218000412     0.115251076  0.115251076  0.089142446


 
 k-points in units of 2pi/SCALE and weight: read from INCAR                         
   0.00000000  0.00000000  0.00000000       0.125
   0.04990518  0.02881277 -0.00000000       0.125
   0.00000000  0.05762554  0.00000000       0.125
   0.04990518  0.08643831 -0.00000000       0.125
   0.00000000  0.00000000  0.04457122       0.125
   0.04990518  0.02881277  0.04457122       0.125
   0.00000000  0.05762554  0.04457122       0.125
   0.04990518  0.08643831  0.04457122       0.125
 
 k-points in reciprocal lattice and weights: read from INCAR                         
   0.00000000  0.00000000  0.00000000       0.125
   0.50000000 -0.00000000 -0.00000000       0.125
   0.00000000  0.50000000  0.00000000       0.125
   0.50000000  0.50000000 -0.00000000       0.125
   0.00000000  0.00000000  0.50000000       0.125
   0.50000000 -0.00000000  0.50000000       0.125
   0.00000000  0.50000000  0.50000000       0.125
   0.50000000  0.50000000  0.50000000       0.125
 
 position of ions in fractional coordinates (direct lattice) 
   0.57894770  0.19209243  0.24996166
   0.73183388  0.66254189  0.74831964
   0.06934818  0.94039313  0.75396859
   0.54903871  0.97574986  0.75469332
   0.00199025  0.44003997  0.24494116
   0.08869312  0.19253746  0.26096629
   0.87127252  0.47255806  0.75222943
   0.91631238  0.17875310  0.74862183
   0.70436691  0.97124502  0.24857104
   0.85883086  0.76345474  0.25652700
   0.21079129  0.94299188  0.25206899
   0.43381343  0.19432813  0.74853090
   0.24018699  0.67199791  0.73449097
   0.36486702  0.44629250  0.74826615
   0.53487654  0.45356584  0.25136922
   0.39204804  0.65564016  0.23875824
   0.72297343  0.31505956  0.99650335
   0.72234976  0.31906223  0.50051701
   0.22680257  0.33025311  0.00517374
   0.22837628  0.31973530  0.49770278
   0.22123643  0.82091382  0.99968796
   0.22630667  0.81755195  0.50440184
   0.71398535  0.80884704  0.99370887
   0.71854727  0.81791499  0.50776875
   0.04889727  0.98800714  0.99539036
   0.38990996  0.16005147  0.00797339
   0.05510316  0.98207978  0.49194150
   0.39310715  0.15495968  0.49832143
   0.55277630  0.97942324  0.01089317
   0.88708076  0.15301770  0.00228201
   0.54563769  0.98661145  0.50093687
   0.88331099  0.14199278  0.50171687
   0.55753672  0.48584898  0.99583945
   0.89859571  0.65820351  0.99963131
   0.56259912  0.49324695  0.50830093
   0.89693103  0.65342289  0.50294168
   0.05949319  0.48977789  0.99505144
   0.39205958  0.65247668  0.99322245
   0.05278791  0.47954129  0.49915580
   0.38312771  0.64202225  0.49985468
   0.21719031  0.14685292  0.09438759
   0.38374740  0.99427791  0.09850151
   0.54650306  0.31968344  0.09551346
   0.22594335  0.99964197  0.58273219
   0.40882427  0.32269495  0.59961845
   0.54406074  0.14433469  0.58835441
   0.21672767  0.00040814  0.91086643
   0.40030735  0.31828313  0.90389549
   0.53782342  0.13701624  0.90850416
   0.22002693  0.14657747  0.40258779
   0.39710703  0.99767548  0.40730164
   0.56057727  0.33552124  0.41140933
   0.72468628  0.15251060  0.08753967
   0.88310609  0.99194131  0.08911606
   0.04884092  0.32485821  0.08304796
   0.72436362  0.99867235  0.59485022
   0.90089759  0.31429545  0.59081652
   0.05311557  0.15004192  0.58803260
   0.71762728  0.99344002  0.91478870
   0.89174197  0.31423552  0.89861826
   0.03959853  0.14703617  0.90781776
   0.71595997  0.13476654  0.41021304
   0.89630714  0.98614060  0.40508021
   0.03774451  0.31222323  0.40462915
   0.71816592  0.63664925  0.09236405
   0.90965812  0.50422692  0.08312426
   0.05135789  0.82713738  0.08939472
   0.73526681  0.50701830  0.59487250
   0.90895478  0.82481046  0.59217149
   0.04258291  0.62802040  0.60784095
   0.72385300  0.50163953  0.91199854
   0.90250918  0.82075247  0.90164910
   0.04698223  0.65787504  0.91030483
   0.71755333  0.63377719  0.41100016
   0.90215091  0.49826728  0.41124887
   0.04866007  0.81308021  0.40681314
   0.22926499  0.63553247  0.08488554
   0.39527935  0.49506215  0.08747851
   0.54153236  0.81330725  0.09654127
   0.22343112  0.49456081  0.59152164
   0.40327385  0.81934410  0.59096093
   0.53488765  0.63382560  0.59970046
   0.22576262  0.50150469  0.90214830
   0.40181345  0.81850738  0.91219465
   0.54074618  0.62772651  0.90574074
   0.21850774  0.63084521  0.40687287
   0.39690694  0.49327691  0.41022997
   0.54300588  0.81884737  0.41166784
 
 position of ions in cartesian coordinates  (Angst):
   4.83819005  1.66673000  2.80407000
   4.01324005  5.74868287  8.39465000
  -4.01609995  8.15951713  8.45802000
   0.61279995  8.46629713  8.46615000
  -2.18443997  3.81809857  2.74775000
  -0.07590008  1.67059143  2.92752000
   6.36199976  4.10024857  8.43851000
   8.28507008  1.55098857  8.39804000
   2.19160011  8.42721000  2.78847000
   4.78009992  6.62427430  2.87772000
  -2.61199995  8.18206573  2.82771000
   3.37288997  1.68612857  8.39702000
  -0.95994005  5.83073000  8.23952000
   1.41990037  3.87235000  8.39405000
   3.08679003  3.93545857  2.81986000
   0.64349992  5.68879857  2.67839000
   5.66518000  2.73368000 11.17877501
   5.63888000  2.76841000  5.61480000
   0.61793200  2.86551000  0.05803900
   0.68638800  2.77425000  5.58323000
  -1.89580000  7.12283000 11.21450000
  -1.82816000  7.09366000  5.65838000
   3.10150000  7.01813000 11.14742651
   3.10178000  7.09681000  5.69615000
  -4.45952005  8.57265000 11.16628951
   3.10473000  1.38872000  0.08944550
  -4.36765005  8.52122000  5.51860000
   3.16227000  1.34454000  5.59017000
   0.63184500  8.49817000  0.12219959
   8.12112000  1.32769000  0.02559959
   0.52431400  8.56054000  5.61951000
   8.13858000  1.23203000  5.62826000
   3.15210000  4.21557000 11.17132741
   5.70576000  5.71104000 11.21386442
   3.16576000  4.27976000  5.70212000
   5.71303000  5.66956000  5.64200000
  -1.85748005  4.24966000 11.16248741
   0.65946300  5.66135000 11.14196981
  -1.87338005  4.16084000  5.59953000
   0.62234600  5.57064000  5.60737000
   1.44037000  1.27420000  1.05884000
  -1.13607003  8.62705967  1.10499000
   3.87396000  2.77380000  1.07147000
  -2.74398003  8.67360204  6.53709000
   2.47947000  2.79993000  6.72652000
   4.72790000  1.25235000  6.60016000
   2.16935000  0.00354131 10.21810000
   2.41624000  2.76165000 10.13990000
   4.70207000  1.18885000 10.19160000
   1.47017000  1.27181000  4.51623000
  -1.01924003  8.65653937  4.56911000
   3.93563000  2.91122000  4.61519000
   6.49663000  1.32329000  0.98202000
   3.87870997  8.60678567  0.99970400
  -1.13804005  2.81870000  0.93163200
   2.25454997  8.66518897  6.67303000
   7.45163000  2.72705000  6.62778000
  -0.21947005  1.30187000  6.59655000
   2.21326997  8.61978957 10.26210000
   7.36020000  2.72653000 10.08070000
  -0.33984005  1.27579000 10.18390000
   6.49809000  1.16933000  4.60177000
   4.04002997  8.55645457  4.54419000
  -1.18592005  2.70907000  4.53913000
   4.00601000  5.52402000  1.03614000
   6.58794000  4.37503000  0.93248800
  -3.62899005  7.17683000  1.00283000
   4.82673000  4.39925000  6.67328000
   4.97493000  7.15664000  6.64298000
  -2.71943005  5.44915000  6.81876000
   4.73932000  4.35258000 10.23080000
   4.93068000  7.12143000 10.11470000
  -2.82491005  5.70819000 10.21180000
   4.01426000  5.49910000  4.61060000
   6.54258000  4.32332000  4.61339000
  -3.58560005  7.05486000  4.56363000
  -0.88669400  5.51433000  0.95224600
   1.48029000  4.29551000  0.98133400
   1.35135000  7.05683000  1.08300000
  -0.23894600  4.29116000  6.63569000
  -0.06410360  7.10921000  6.62940000
   2.18389000  5.49952000  6.72744000
  -0.25037200  4.35141000 10.12030000
  -0.07454380  7.10195000 10.23300000
   2.27314000  5.44660000 10.16060000
  -0.97099000  5.47366000  4.56430000
   1.50554000  4.28002000  4.60196000
   1.33836000  7.10490000  4.61809000
 


--------------------------------------------------------------------------------------------------------


 k-point  1 :   0.0000 0.0000 0.0000  plane waves:   17725
 k-point  2 :   0.5000-0.0000-0.0000  plane waves:   17736
 k-point  3 :   0.0000 0.5000 0.0000  plane waves:   17736
 k-point  4 :   0.5000 0.5000-0.0000  plane waves:   17736
 k-point  5 :   0.0000 0.0000 0.5000  plane waves:   17676
 k-point  6 :   0.5000-0.0000 0.5000  plane waves:   17700
 k-point  7 :   0.0000 0.5000 0.5000  plane waves:   17700
 k-point  8 :   0.5000 0.5000 0.5000  plane waves:   17700

 maximum and minimum number of plane-waves per node :     17736    17676

 maximum number of plane-waves:     17736
 maximum index in each direction: 
   IXMAX=   16   IYMAX=   16   IZMAX=   18
   IXMIN=  -16   IYMIN=  -16   IZMIN=  -18


 serial   3D FFT for wavefunctions
 parallel 3D FFT for charge:
    minimum data exchange during FFTs selected (reduces bandwidth)


 total amount of memory used by VASP MPI-rank0    94430. kBytes
=======================================================================

   base      :      30000. kBytes
   nonlr-proj:      13671. kBytes
   fftplans  :       1275. kBytes
   grid      :      22786. kBytes
   one-center:       2737. kBytes
   wavefun   :      23961. kBytes
 
     INWAV:  cpu time    0.0000: real time    0.0001
 Broyden mixing: mesh for mixing (old mesh)
   NGX = 33   NGY = 33   NGZ = 37
  (NGX  =100   NGY  =100   NGZ  =112)
  gives a total of  40293 points

 initial charge density was supplied:
 charge density of overlapping atoms calculated
 number of electron     672.0000000 magnetization      48.0000000
 keeping initial charge density in first step


--------------------------------------------------------------------------------------------------------


 Maximum index for non-local projection operator         1546
 Maximum index for augmentation-charges          497 (set IRDMAX)


--------------------------------------------------------------------------------------------------------


 First call to EWALD:  gamma=   0.179
 Maximum number of real-space cells 3x 3x 2
 Maximum number of reciprocal cells 3x 3x 3

    FEWALD:  cpu time    0.0028: real time    0.0028


--------------------------------------- Iteration      1(   1)  ---------------------------------------


    POTLOK:  cpu time    0.1928: real time    0.1938
    SETDIJ:  cpu time    4.6087: real time    4.6101
    EDDIAG:  cpu time    4.4146: real time    4.8229
  RMM-DIIS:  cpu time    9.2004: real time    9.2038
    ORTHCH:  cpu time    1.1672: real time    1.2524
       DOS:  cpu time    0.0022: real time    0.0023
    --------------------------------------------
      LOOP:  cpu time   19.5859: real time   20.0853

 eigenvalue-minimisations  :  7680
 total energy-change (2. order) : 0.1507756E+04  (-0.3499102E+05)
 number of electron     672.0000000 magnetization      48.0000000
 augmentation part      672.0000000 magnetization      48.0000000

 Free energy of the ion-electron system (eV)
  ---------------------------------------------------
  alpha Z        PSCENC =      2652.81237852
  Ewald energy   TEWEN  =    -41589.16043390
  -Hartree energ DENC   =    -26006.70534907
  -exchange      EXHF   =         0.00000000
  -V(xc)+E(xc)   XCENC  =      3607.09834317
  PAW double counting   =     55594.23204139   -59034.67079123
  entropy T*S    EENTRO =        -0.06077546
  eigenvalues    EBANDS =     -7577.98730353
  atomic energy  EATOM  =     73862.19814772
  Solvation  Ediel_sol  =         0.00000000
  ---------------------------------------------------
  free energy    TOTEN  =      1507.75625762 eV

  energy without entropy =     1507.81703307  energy(sigma->0) =     1507.78664534


--------------------------------------------------------------------------------------------------------




--------------------------------------- Iteration      1(   2)  ---------------------------------------


    EDDIAG:  cpu time    4.4430: real time    4.8515
  RMM-DIIS:  cpu time    9.1019: real time    9.2203
    ORTHCH:  cpu time    1.1718: real time    1.2555
       DOS:  cpu time    0.0022: real time    0.0022
    --------------------------------------------
      LOOP:  cpu time   14.7189: real time   15.3294

 eigenvalue-minimisations  :  7680
 total energy-change (2. order) :-0.2223864E+04  (-0.8014350E+04)
 number of electron     672.0000000 magnetization      48.0000000
 augmentation part      672.0000000 magnetization      48.0000000

 Free energy of the ion-electron system (eV)
  ---------------------------------------------------
  alpha Z        PSCENC =      2652.81237852
  Ewald energy   TEWEN  =    -41589.16043390
  -Hartree energ DENC   =    -26006.70534907
  -exchange      EXHF   =         0.00000000
  -V(xc)+E(xc)   XCENC  =      3607.09834317
  PAW double counting   =     55594.23204139   -59034.67079123
  entropy T*S    EENTRO =        -0.04643356
  eigenvalues    EBANDS =     -9801.86549486
  atomic energy  EATOM  =     73862.19814772
  Solvation  Ediel_sol  =         0.00000000
  ---------------------------------------------------
  free energy    TOTEN  =      -716.10759181 eV

  energy without entropy =     -716.06115826  energy(sigma->0) =     -716.08437503


--------------------------------------------------------------------------------------------------------




--------------------------------------- Iteration      1(   3)  ---------------------------------------


    EDDIAG:  cpu time    4.4265: real time    4.8483
  RMM-DIIS:  cpu time    9.2061: real time    9.2119
    ORTHCH:  cpu time    1.1718: real time    1.2553
       DOS:  cpu time    0.0022: real time    0.0022
    --------------------------------------------
      LOOP:  cpu time   14.8067: real time   15.3178

 eigenvalue-minimisations  :  7680
 total energy-change (2. order) : 0.7195906E+02  (-0.1422250E+04)
 number of electron     672.0000000 magnetization      48.0000000
 augmentation part      672.0000000 magnetization      48.0000000

 Free energy of the ion-electron system (eV)
  ---------------------------------------------------
  alpha Z        PSCENC =      2652.81237852
  Ewald energy   TEWEN  =    -41589.16043390
  -Hartree energ DENC   =    -26006.70534907
  -exchange      EXHF   =         0.00000000
  -V(xc)+E(xc)   XCENC  =      3607.09834317
  PAW double counting   =     55594.23204139   -59034.67079123
  entropy T*S    EENTRO =        -0.03198219
  eigenvalues    EBANDS =     -9729.92088868
  atomic energy  EATOM  =     73862.19814772
  Solvation  Ediel_sol  =         0.00000000
  ---------------------------------------------------
  free energy    TOTEN  =      -644.14853427 eV

  energy without entropy =     -644.11655208  energy(sigma->0) =     -644.13254317


--------------------------------------------------------------------------------------------------------




--------------------------------------- Iteration      1(   4)  ---------------------------------------


    EDDIAG:  cpu time    4.4321: real time    4.8569
  RMM-DIIS:  cpu time    9.1775: real time    9.2186
    ORTHCH:  cpu time    1.1717: real time    1.2557
       DOS:  cpu time    0.0013: real time    0.0013
    --------------------------------------------
      LOOP:  cpu time   14.7826: real time   15.3325

 eigenvalue-minimisations  :  7680
 total energy-change (2. order) :-0.4674451E+03  (-0.4298196E+03)
 number of electron     672.0000000 magnetization      48.0000000
 augmentation part      672.0000000 magnetization      48.0000000

 Free energy of the ion-electron system (eV)
  ---------------------------------------------------
  alpha Z        PSCENC =      2652.81237852
  Ewald energy   TEWEN  =    -41589.16043390
  -Hartree energ DENC   =    -26006.70534907
  -exchange      EXHF   =         0.00000000
  -V(xc)+E(xc)   XCENC  =      3607.09834317
  PAW double counting   =     55594.23204139   -59034.67079123
  entropy T*S    EENTRO =        -0.00000000
  eigenvalues    EBANDS =    -10197.39801938
  atomic energy  EATOM  =     73862.19814772
  Solvation  Ediel_sol  =         0.00000000
  ---------------------------------------------------
  free energy    TOTEN  =     -1111.59368278 eV

  energy without entropy =    -1111.59368278  energy(sigma->0) =    -1111.59368278


--------------------------------------------------------------------------------------------------------




--------------------------------------- Iteration      1(   5)  ---------------------------------------


    EDDIAG:  cpu time    4.4271: real time    4.8392
  RMM-DIIS:  cpu time    9.2001: real time    9.2189
    ORTHCH:  cpu time    1.1700: real time    1.2547
       DOS:  cpu time    0.0016: real time    0.0016
    --------------------------------------------
      LOOP:  cpu time   14.7987: real time   15.3143

 eigenvalue-minimisations  :  7680
 total energy-change (2. order) :-0.1040846E+03  (-0.1598970E+03)
 number of electron     672.0000000 magnetization      48.0000000
 augmentation part      672.0000000 magnetization      48.0000000

 Free energy of the ion-electron system (eV)
  ---------------------------------------------------
  alpha Z        PSCENC =      2652.81237852
  Ewald energy   TEWEN  =    -41589.16043390
  -Hartree energ DENC   =    -26006.70534907
  -exchange      EXHF   =         0.00000000
  -V(xc)+E(xc)   XCENC  =      3607.09834317
  PAW double counting   =     55594.23204139   -59034.67079123
  entropy T*S    EENTRO =        -0.00000000
  eigenvalues    EBANDS =    -10301.48266385
  atomic energy  EATOM  =     73862.19814772
  Solvation  Ediel_sol  =         0.00000000
  ---------------------------------------------------
  free energy    TOTEN  =     -1215.67832725 eV

  energy without entropy =    -1215.67832725  energy(sigma->0) =    -1215.67832725


--------------------------------------------------------------------------------------------------------




--------------------------------------- Iteration      1(   6)  ---------------------------------------


    EDDIAG:  cpu time    4.4767: real time    4.8872
  RMM-DIIS:  cpu time    9.2040: real time    9.2243
    ORTHCH:  cpu time    1.1657: real time    1.2526
       DOS:  cpu time    0.0020: real time    0.0020
    --------------------------------------------
      LOOP:  cpu time   14.8485: real time   15.3662

 eigenvalue-minimisations  :  7680
 total energy-change (2. order) :-0.8892065E+01  (-0.7928908E+02)
 number of electron     672.0000000 magnetization      48.0000000
 augmentation part      672.0000000 magnetization      48.0000000

 Free energy of the ion-electron system (eV)
  ---------------------------------------------------
  alpha Z        PSCENC =      2652.81237852
  Ewald energy   TEWEN  =    -41589.16043390
  -Hartree energ DENC   =    -26006.70534907
  -exchange      EXHF   =         0.00000000
  -V(xc)+E(xc)   XCENC  =      3607.09834317
  PAW double counting   =     55594.23204139   -59034.67079123
  entropy T*S    EENTRO =        -0.00000000
  eigenvalues    EBANDS =    -10310.37472921
  atomic energy  EATOM  =     73862.19814772
  Solvation  Ediel_sol  =         0.00000000
  ---------------------------------------------------
  free energy    TOTEN  =     -1224.57039261 eV

  energy without entropy =    -1224.57039261  energy(sigma->0) =    -1224.57039261


--------------------------------------------------------------------------------------------------------




--------------------------------------- Iteration      1(   7)  ---------------------------------------


    EDDIAG:  cpu time    4.4096: real time    4.8177
  RMM-DIIS:  cpu time    9.2011: real time    9.2083
    ORTHCH:  cpu time    1.2214: real time    1.3042
       DOS:  cpu time    0.0012: real time    0.0012
    --------------------------------------------
      LOOP:  cpu time   14.8332: real time   15.3314

 eigenvalue-minimisations  :  7680
 total energy-change (2. order) :-0.1743967E+01  (-0.4830994E+02)
 number of electron     672.0000000 magnetization      48.0000000
 augmentation part      672.0000000 magnetization      48.0000000

 Free energy of the ion-electron system (eV)
  ---------------------------------------------------
  alpha Z        PSCENC =      2652.81237852
  Ewald energy   TEWEN  =    -41589.16043390
  -Hartree energ DENC   =    -26006.70534907
  -exchange      EXHF   =         0.00000000
  -V(xc)+E(xc)   XCENC  =      3607.09834317
  PAW double counting   =     55594.23204139   -59034.67079123
  entropy T*S    EENTRO =        -0.00000000
  eigenvalues    EBANDS =    -10312.11869629
  atomic energy  EATOM  =     73862.19814772
  Solvation  Ediel_sol  =         0.00000000
  ---------------------------------------------------
  free energy    TOTEN  =     -1226.31435969 eV

  energy without entropy =    -1226.31435969  energy(sigma->0) =    -1226.31435969


--------------------------------------------------------------------------------------------------------




--------------------------------------- Iteration      1(   8)  ---------------------------------------


    EDDIAG:  cpu time    4.4119: real time    4.8275
  RMM-DIIS:  cpu time    9.1995: real time    9.2210
    ORTHCH:  cpu time    1.1707: real time    1.2538
       DOS:  cpu time    0.0015: real time    0.0015
    --------------------------------------------
      LOOP:  cpu time   14.7837: real time   15.3038

 eigenvalue-minimisations  :  7680
 total energy-change (2. order) : 0.4948284E+01  (-0.3004664E+02)
 number of electron     672.0000000 magnetization      48.0000000
 augmentation part      672.0000000 magnetization      48.0000000

 Free energy of the ion-electron system (eV)
  ---------------------------------------------------
  alpha Z        PSCENC =      2652.81237852
  Ewald energy   TEWEN  =    -41589.16043390
  -Hartree energ DENC   =    -26006.70534907
  -exchange      EXHF   =         0.00000000
  -V(xc)+E(xc)   XCENC  =      3607.09834317
  PAW double counting   =     55594.23204139   -59034.67079123
  entropy T*S    EENTRO =        -0.00000000
  eigenvalues    EBANDS =    -10307.17041193
  atomic energy  EATOM  =     73862.19814772
  Solvation  Ediel_sol  =         0.00000000
  ---------------------------------------------------
  free energy    TOTEN  =     -1221.36607533 eV

  energy without entropy =    -1221.36607533  energy(sigma->0) =    -1221.36607533


--------------------------------------------------------------------------------------------------------




--------------------------------------- Iteration      1(   9)  ---------------------------------------


    EDDIAG:  cpu time    4.4109: real time    4.8211
  RMM-DIIS:  cpu time   19.5360: real time   19.5934
    ORTHCH:  cpu time    1.2323: real time    1.3129
       DOS:  cpu time    0.0013: real time    0.0013
    --------------------------------------------
      LOOP:  cpu time   25.1805: real time   25.7287

 eigenvalue-minimisations  : 21807
 total energy-change (2. order) : 0.9323485E+01  (-0.1325464E+02)
 number of electron     672.0000000 magnetization      48.0000000
 augmentation part      672.0000000 magnetization      48.0000000

 Free energy of the ion-electron system (eV)
  ---------------------------------------------------
  alpha Z        PSCENC =      2652.81237852
  Ewald energy   TEWEN  =    -41589.16043390
  -Hartree energ DENC   =    -26006.70534907
  -exchange      EXHF   =         0.00000000
  -V(xc)+E(xc)   XCENC  =      3607.09834317
  PAW double counting   =     55594.23204139   -59034.67079123
  entropy T*S    EENTRO =        -0.00000000
  eigenvalues    EBANDS =    -10297.84692692
  atomic energy  EATOM  =     73862.19814772
  Solvation  Ediel_sol  =         0.00000000
  ---------------------------------------------------
  free energy    TOTEN  =     -1212.04259032 eV

  energy without entropy =    -1212.04259032  energy(sigma->0) =    -1212.04259032


--------------------------------------------------------------------------------------------------------




--------------------------------------- Iteration      1(  10)  ---------------------------------------


    EDDIAG:  cpu time    4.4116: real time    4.8280
  RMM-DIIS:  cpu time   17.8415: real time   17.8571
    ORTHCH:  cpu time    1.1717: real time    1.2555
       DOS:  cpu time    0.0018: real time    0.0018
    --------------------------------------------
      LOOP:  cpu time   23.4266: real time   23.9424

 eigenvalue-minimisations  : 19680
 total energy-change (2. order) :-0.1897261E+01  (-0.5306660E+00)
 number of electron     672.0000000 magnetization      48.0000000
 augmentation part      672.0000000 magnetization      48.0000000

 Free energy of the ion-electron system (eV)
  ---------------------------------------------------
  alpha Z        PSCENC =      2652.81237852
  Ewald energy   TEWEN  =    -41589.16043390
  -Hartree energ DENC   =    -26006.70534907
  -exchange      EXHF   =         0.00000000
  -V(xc)+E(xc)   XCENC  =      3607.09834317
  PAW double counting   =     55594.23204139   -59034.67079123
  entropy T*S    EENTRO =        -0.00000000
  eigenvalues    EBANDS =    -10299.74418823
  atomic energy  EATOM  =     73862.19814772
  Solvation  Ediel_sol  =         0.00000000
  ---------------------------------------------------
  free energy    TOTEN  =     -1213.93985163 eV

  energy without entropy =    -1213.93985163  energy(sigma->0) =    -1213.93985163


--------------------------------------------------------------------------------------------------------




--------------------------------------- Iteration      1(  11)  ---------------------------------------


    EDDIAG:  cpu time    4.4345: real time    4.8720
  RMM-DIIS:  cpu time   20.0442: real time   20.0610
    ORTHCH:  cpu time    1.2063: real time    1.2897
       DOS:  cpu time    0.0019: real time    0.0019
    --------------------------------------------
      LOOP:  cpu time   25.6869: real time   26.2246

 eigenvalue-minimisations  : 22576
 total energy-change (2. order) : 0.7030130E-01  (-0.4339087E-01)
 number of electron     672.0000000 magnetization      48.0000000
 augmentation part      672.0000000 magnetization      48.0000000

 Free energy of the ion-electron system (eV)
  ---------------------------------------------------
  alpha Z        PSCENC =      2652.81237852
  Ewald energy   TEWEN  =    -41589.16043390
  -Hartree energ DENC   =    -26006.70534907
  -exchange      EXHF   =         0.00000000
  -V(xc)+E(xc)   XCENC  =      3607.09834317
  PAW double counting   =     55594.23204139   -59034.67079123
  entropy T*S    EENTRO =        -0.00000000
  eigenvalues    EBANDS =    -10299.67388693
  atomic energy  EATOM  =     73862.19814772
  Solvation  Ediel_sol  =         0.00000000
  ---------------------------------------------------
  free energy    TOTEN  =     -1213.86955033 eV

  energy without entropy =    -1213.86955032  energy(sigma->0) =    -1213.86955032


--------------------------------------------------------------------------------------------------------




--------------------------------------- Iteration      1(  12)  ---------------------------------------


    EDDIAG:  cpu time    4.4130: real time    4.8294
  RMM-DIIS:  cpu time   21.7925: real time   21.8470
    ORTHCH:  cpu time    1.1694: real time    1.2521
       DOS:  cpu time    0.0022: real time    0.0022
    CHARGE:  cpu time    1.7888: real time    1.7904
    MIXING:  cpu time    0.0010: real time    0.0011
    --------------------------------------------
      LOOP:  cpu time   29.1668: real time   29.7223

 eigenvalue-minimisations  : 24413
 total energy-change (2. order) :-0.8134383E-03  (-0.4317309E-02)
 number of electron     671.9999748 magnetization      47.9999986
 augmentation part      239.2153217 magnetization      29.0648047

 Broyden mixing:
  rms(total) = 0.12730E+02    rms(broyden)= 0.12721E+02
  rms(prec ) = 0.14545E+02
  weight for this iteration     100.00

 Free energy of the ion-electron system (eV)
  ---------------------------------------------------
  alpha Z        PSCENC =      2652.81237852
  Ewald energy   TEWEN  =    -41589.16043390
  -Hartree energ DENC   =    -26006.70534907
  -exchange      EXHF   =         0.00000000
  -V(xc)+E(xc)   XCENC  =      3607.09834317
  PAW double counting   =     55594.23204139   -59034.67079123
  entropy T*S    EENTRO =        -0.00000000
  eigenvalues    EBANDS =    -10299.67470036
  atomic energy  EATOM  =     73862.19814772
  Solvation  Ediel_sol  =         0.00000000
  ---------------------------------------------------
  free energy    TOTEN  =     -1213.87036376 eV

  energy without entropy =    -1213.87036376  energy(sigma->0) =    -1213.87036376


--------------------------------------------------------------------------------------------------------




--------------------------------------- Iteration      1(  13)  ---------------------------------------


    POTLOK:  cpu time    0.1715: real time    0.1717
    SETDIJ:  cpu time    4.9536: real time    4.9632
    EDDIAG:  cpu time    4.4935: real time    4.9316
  RMM-DIIS:  cpu time   17.2832: real time   17.3098
    ORTHCH:  cpu time    1.1655: real time    1.2484
       DOS:  cpu time    0.0022: real time    0.0022
    CHARGE:  cpu time    1.7904: real time    1.7924
    MIXING:  cpu time    0.0011: real time    0.0012
    --------------------------------------------
      LOOP:  cpu time   29.8610: real time   30.4205

 eigenvalue-minimisations  : 18781
 total energy-change (2. order) : 0.2304090E+03  (-0.1207850E+03)
 number of electron     671.9999733 magnetization      47.9999986
 augmentation part      268.5189964 magnetization      26.7293764

 Broyden mixing:
  rms(total) = 0.13782E+02    rms(broyden)= 0.13779E+02
  rms(prec ) = 0.15450E+02
  weight for this iteration     100.00

 eigenvalues of (default mixing * dielectric matrix)
  average eigenvalue GAMMA=   0.3231
  0.3231

 Free energy of the ion-electron system (eV)
  ---------------------------------------------------
  alpha Z        PSCENC =      2652.81237852
  Ewald energy   TEWEN  =    -41589.16043390
  -Hartree energ DENC   =    -25350.33922067
  -exchange      EXHF   =         0.00000000
  -V(xc)+E(xc)   XCENC  =      3697.75313633
  PAW double counting   =     60042.39935665   -63468.36435062
  entropy T*S    EENTRO =        -0.08460285
  eigenvalues    EBANDS =    -10830.67578835
  atomic energy  EATOM  =     73862.19814772
  Solvation  Ediel_sol  =         0.00000000
  ---------------------------------------------------
  free energy    TOTEN  =      -983.46137716 eV

  energy without entropy =     -983.37677432  energy(sigma->0) =     -983.41907574


--------------------------------------------------------------------------------------------------------




--------------------------------------- Iteration      1(  14)  ---------------------------------------


    POTLOK:  cpu time    0.1717: real time    0.1719
    SETDIJ:  cpu time    4.9362: real time    4.9384
    EDDIAG:  cpu time    4.5040: real time    4.9365
  RMM-DIIS:  cpu time   17.8709: real time   17.9226
    ORTHCH:  cpu time    1.2122: real time    1.2924
       DOS:  cpu time    0.0013: real time    0.0013
    CHARGE:  cpu time    1.7907: real time    1.7932
    MIXING:  cpu time    0.0009: real time    0.0009
    --------------------------------------------
      LOOP:  cpu time   30.4878: real time   31.0573

 eigenvalue-minimisations  : 19390
 total energy-change (2. order) : 0.6755653E+02  (-0.1746475E+02)
 number of electron     671.9999745 magnetization      47.9999977
 augmentation part      246.6989879 magnetization      32.1954282

 Broyden mixing:
  rms(total) = 0.53714E+01    rms(broyden)= 0.53675E+01
  rms(prec ) = 0.57837E+01
  weight for this iteration     100.00

 eigenvalues of (default mixing * dielectric matrix)
  average eigenvalue GAMMA=   0.7380
  1.1158  0.3602

 Free energy of the ion-electron system (eV)
  ---------------------------------------------------
  alpha Z        PSCENC =      2652.81237852
  Ewald energy   TEWEN  =    -41589.16043390
  -Hartree energ DENC   =    -25960.70259433
  -exchange      EXHF   =         0.00000000
  -V(xc)+E(xc)   XCENC  =      3675.82343812
  PAW double counting   =     63487.60866008   -66971.06584029
  entropy T*S    EENTRO =        -0.00000000
  eigenvalues    EBANDS =    -10073.41860758
  atomic energy  EATOM  =     73862.19814772
  Solvation  Ediel_sol  =         0.00000000
  ---------------------------------------------------
  free energy    TOTEN  =      -915.90485166 eV

  energy without entropy =     -915.90485166  energy(sigma->0) =     -915.90485166


--------------------------------------------------------------------------------------------------------




--------------------------------------- Iteration      1(  15)  ---------------------------------------


    POTLOK:  cpu time    0.1726: real time    0.1727
    SETDIJ:  cpu time    4.9352: real time    4.9564
    EDDIAG:  cpu time    4.4306: real time    4.8479
  RMM-DIIS:  cpu time   18.1834: real time   18.2109
    ORTHCH:  cpu time    1.1706: real time    1.2512
       DOS:  cpu time    0.0013: real time    0.0013
    CHARGE:  cpu time    1.7895: real time    1.7927
    MIXING:  cpu time    0.0009: real time    0.0009
    --------------------------------------------
      LOOP:  cpu time   30.6842: real time   31.2339

 eigenvalue-minimisations  : 20281
 total energy-change (2. order) : 0.1405383E+02  (-0.1895777E+01)
 number of electron     671.9999748 magnetization      47.9999970
 augmentation part      249.6347175 magnetization      33.7805779

 Broyden mixing:
  rms(total) = 0.21853E+01    rms(broyden)= 0.21850E+01
  rms(prec ) = 0.22729E+01
  weight for this iteration     100.00

 eigenvalues of (default mixing * dielectric matrix)
  average eigenvalue GAMMA=   0.9592
  1.7394  0.3888  0.7494

 Free energy of the ion-electron system (eV)
  ---------------------------------------------------
  alpha Z        PSCENC =      2652.81237852
  Ewald energy   TEWEN  =    -41589.16043390
  -Hartree energ DENC   =    -25890.95679904
  -exchange      EXHF   =         0.00000000
  -V(xc)+E(xc)   XCENC  =      3708.58361083
  PAW double counting   =     67671.03033513   -71195.23584824
  entropy T*S    EENTRO =        -0.00000000
  eigenvalues    EBANDS =    -10121.12240777
  atomic energy  EATOM  =     73862.19814772
  Solvation  Ediel_sol  =         0.00000000
  ---------------------------------------------------
  free energy    TOTEN  =      -901.85101675 eV

  energy without entropy =     -901.85101675  energy(sigma->0) =     -901.85101675


--------------------------------------------------------------------------------------------------------




--------------------------------------- Iteration      1(  16)  ---------------------------------------


    POTLOK:  cpu time    0.1714: real time    0.1724
    SETDIJ:  cpu time    4.9924: real time    5.0154
    EDDIAG:  cpu time    4.4945: real time    4.9101
  RMM-DIIS:  cpu time   17.5217: real time   17.5420
    ORTHCH:  cpu time    1.1694: real time    1.2531
       DOS:  cpu time    0.0013: real time    0.0013
    CHARGE:  cpu time    1.7896: real time    1.7941
    MIXING:  cpu time    0.0010: real time    0.0010
    --------------------------------------------
      LOOP:  cpu time   30.1413: real time   30.6894

 eigenvalue-minimisations  : 19027
 total energy-change (2. order) :-0.1505230E+01  (-0.6762527E+00)
 number of electron     671.9999747 magnetization      47.9999967
 augmentation part      251.2057424 magnetization      33.8536738

 Broyden mixing:
  rms(total) = 0.14237E+01    rms(broyden)= 0.14232E+01
  rms(prec ) = 0.15093E+01
  weight for this iteration     100.00

 eigenvalues of (default mixing * dielectric matrix)
  average eigenvalue GAMMA=   0.9793
  2.1015  0.8977  0.3967  0.5215

 Free energy of the ion-electron system (eV)
  ---------------------------------------------------
  alpha Z        PSCENC =      2652.81237852
  Ewald energy   TEWEN  =    -41589.16043390
  -Hartree energ DENC   =    -25838.94641905
  -exchange      EXHF   =         0.00000000
  -V(xc)+E(xc)   XCENC  =      3709.87796117
  PAW double counting   =     70722.28129968   -74276.76972693
  entropy T*S    EENTRO =        -0.00000000
  eigenvalues    EBANDS =    -10145.64945443
  atomic energy  EATOM  =     73862.19814772
  Solvation  Ediel_sol  =         0.00000000
  ---------------------------------------------------
  free energy    TOTEN  =      -903.35624722 eV

  energy without entropy =     -903.35624722  energy(sigma->0) =     -903.35624722


--------------------------------------------------------------------------------------------------------




--------------------------------------- Iteration      1(  17)  ---------------------------------------


    POTLOK:  cpu time    0.1726: real time    0.1739
    SETDIJ:  cpu time    5.0028: real time    5.0164
    EDDIAG:  cpu time    4.4948: real time    4.9169
  RMM-DIIS:  cpu time   18.6897: real time   18.7302
    ORTHCH:  cpu time    1.1706: real time    1.2524
       DOS:  cpu time    0.0017: real time    0.0017
    CHARGE:  cpu time    1.7882: real time    1.7890
    MIXING:  cpu time    0.0017: real time    0.0017
    --------------------------------------------
      LOOP:  cpu time   31.3222: real time   31.8822

 eigenvalue-minimisations  : 20616
 total energy-change (2. order) : 0.1509549E+00  (-0.5980364E-01)
 number of electron     671.9999747 magnetization      47.9999965
 augmentation part      251.1378478 magnetization      33.8464738

 Broyden mixing:
  rms(total) = 0.76210E+00    rms(broyden)= 0.76199E+00
  rms(prec ) = 0.85770E+00
  weight for this iteration     100.00

 eigenvalues of (default mixing * dielectric matrix)
  average eigenvalue GAMMA=   1.0038
  2.2467  1.1330  0.3856  0.6857  0.5682

 Free energy of the ion-electron system (eV)
  ---------------------------------------------------
  alpha Z        PSCENC =      2652.81237852
  Ewald energy   TEWEN  =    -41589.16043390
  -Hartree energ DENC   =    -25830.01648088
  -exchange      EXHF   =         0.00000000
  -V(xc)+E(xc)   XCENC  =      3706.72209873
  PAW double counting   =     71554.37192437   -75116.87238538
  entropy T*S    EENTRO =        -0.00000000
  eigenvalues    EBANDS =    -10143.26054149
  atomic energy  EATOM  =     73862.19814772
  Solvation  Ediel_sol  =         0.00000000
  ---------------------------------------------------
  free energy    TOTEN  =      -903.20529230 eV

  energy without entropy =     -903.20529230  energy(sigma->0) =     -903.20529230


--------------------------------------------------------------------------------------------------------




--------------------------------------- Iteration      1(  18)  ---------------------------------------


    POTLOK:  cpu time    0.1703: real time    0.1705
    SETDIJ:  cpu time    4.9546: real time    5.0235
    EDDIAG:  cpu time    4.4057: real time    4.8242
  RMM-DIIS:  cpu time   17.7006: real time   17.7098
    ORTHCH:  cpu time    1.1661: real time    1.2501
       DOS:  cpu time    0.0018: real time    0.0018
    CHARGE:  cpu time    1.7835: real time    1.8007
    MIXING:  cpu time    0.0013: real time    0.0013
    --------------------------------------------
      LOOP:  cpu time   30.1839: real time   30.7820

 eigenvalue-minimisations  : 19050
 total energy-change (2. order) : 0.3946257E+00  (-0.6973913E-01)
 number of electron     671.9999747 magnetization      47.9999965
 augmentation part      250.6402006 magnetization      33.8100549

 Broyden mixing:
  rms(total) = 0.26722E+00    rms(broyden)= 0.26694E+00
  rms(prec ) = 0.28030E+00
  weight for this iteration     100.00

 eigenvalues of (default mixing * dielectric matrix)
  average eigenvalue GAMMA=   1.0212
  2.4601  1.3748  0.8376  0.3872  0.5915  0.4762

 Free energy of the ion-electron system (eV)
[...]
   4      -0.999    -0.858     1.857     0.029     0.051    -0.165
   5      -1.108    -0.700     1.808    -0.127    -0.003     0.018
   6      -0.561    -0.646     1.207    -0.141    -0.017    -0.112
   7      -0.602    -0.862     1.464    -0.151    -0.005     0.051
   8      -1.102    -0.819     1.921    -0.075     0.109    -0.015
   9      -0.647    -0.899     1.545     0.197     0.027    -0.004
  10      -0.914    -0.542     1.456     0.053     0.098     0.047
  11      -0.553    -0.704     1.257     0.179    -0.039     0.002
  12      -1.174    -0.684     1.859    -0.092    -0.138     0.076
  13      -0.697    -0.826     1.523     0.135    -0.019     0.034
  14      -0.645    -0.783     1.428    -0.096     0.010    -0.013
  15      -1.112    -0.737     1.849    -0.031     0.001     0.059
  16      -1.010    -0.872     1.882     0.019    -0.023    -0.084
  17       1.433     1.541    -2.974    -0.095    -0.013    -0.199
  18       1.461     1.580    -3.041     0.114    -0.001     0.027
  19       1.570     1.477    -3.047     0.137     0.043    -0.051
  20       1.246     1.713    -2.959     0.061    -0.017     0.086
  21       1.687     1.383    -3.069     0.082     0.066     0.199
  22       1.451     1.432    -2.882    -0.062     0.113    -0.033
  23       1.366     1.569    -2.934     0.051    -0.094     0.177
  24       1.424     1.434    -2.858     0.092    -0.042    -0.091
  25      -1.590    -0.219     1.809     0.367    -0.015     0.186
  26       0.004    -0.324     0.319    -0.665    -0.059     0.200
  27      -0.717    -1.209     1.927    -0.488    -0.511     0.695
  28      -0.461    -1.088     1.549    -0.951    -0.797    -1.092
  29       0.168    -2.239     2.071    -0.325    -0.008     0.422
  30      -0.611    -1.943     2.554    -0.551     0.727     0.778
  31       0.380    -1.498     1.118     0.240    -0.629     0.647
  32      -1.242    -0.034     1.276    -1.635     0.896    -0.184
  33      -1.779     1.555     0.224    -0.062    -1.502     0.740
  34      -0.999    -0.374     1.373    -0.636     0.802     0.234
  35      -1.162     2.038    -0.876     0.071     2.480     0.025
  36       1.162     0.003    -1.165     0.110     1.245     1.032
  37      -2.267     0.008     2.259    -0.096     0.365     0.604
  38      -0.371     0.283     0.088     0.609    -0.590     0.008
  39       0.117     0.909    -1.026    -0.394     0.188     0.232
  40       0.176    -0.281     0.105    -0.300     0.628    -0.293
  41      -4.020     2.756     1.264    -4.856     1.424    -4.112
  42      -2.931    -0.578     3.509     4.952     2.425     4.272
  43       4.984    -5.735     0.751    -2.801    -3.881    -0.942
  44      -2.471     1.568     0.903    -5.388    -1.771     4.636
  45       5.752    -6.223     0.471    -0.087     4.498    -1.163
  46      -3.132     1.504     1.628     4.096    -3.467    -4.340
  47      -4.552     3.701     0.851    -3.781     3.643    -4.190
  48       5.031    -5.024    -0.006    -0.879    -4.639     1.284
  49      -1.027     2.831    -1.804     5.063     1.862     2.742
  50      -2.570     0.094     2.477    -4.576    -3.050     4.383
  51      -3.085     1.695     1.391     5.518    -3.058    -4.074
  52       5.449    -5.715     0.266    -0.917     4.016     0.128
  53      -2.801    -1.689     4.490    -3.712     2.583    -3.464
  54      -1.125    -1.145     2.270     4.869     2.375     4.516
  55       4.346    -6.086     1.740     0.046    -4.411     1.283
  56      -3.343     2.533     0.810    -5.285    -0.411     5.130
  57       6.011    -6.588     0.578     0.375     4.849    -0.087
  58      -4.376     2.053     2.323     2.467    -2.175    -5.260
  59      -2.246     2.877    -0.630    -4.781     3.897    -3.232
  60       3.781    -3.747    -0.034     0.127    -3.968    -0.098
  61      -2.929     1.534     1.395     5.230     3.952     4.817
  62      -4.180     3.955     0.224    -3.910    -1.445     4.060
  63      -4.304     3.529     0.775     3.858    -1.959    -3.179
  64       5.325    -6.021     0.695     1.154     4.184    -0.171
  65      -2.420     2.722    -0.301    -4.310     0.673    -4.820
  66      -4.162     1.393     2.769     5.915     4.036     5.119
  67       5.228    -5.344     0.116     0.978    -3.707    -0.875
  68      -4.356     3.445     0.911    -4.322    -1.674     4.609
  69       5.115    -4.998    -0.117     0.454     4.549     1.524
  70      -1.565     3.425    -1.860     5.120    -2.266    -2.298
  71      -4.788     3.520     1.268    -4.450     2.466    -3.316
  72       4.846    -5.267     0.421     0.154    -4.003    -0.882
  73      -3.949     2.759     1.190     4.406     4.393     4.369
  74      -3.924     4.506    -0.582    -4.979    -0.523     4.196
  75      -3.210     2.362     0.848     6.301    -2.138    -4.202
  76       5.018    -6.282     1.263     2.156     4.863     0.273
  77      -2.360     2.861    -0.501    -6.680     2.203    -3.956
  78      -1.967     2.793    -0.826     3.805     1.813     4.076
  79       5.896    -6.485     0.589     2.112    -4.250     0.898
  80      -2.062     3.118    -1.057    -6.037    -0.502     4.520
  81       6.228    -5.945    -0.283     0.838     2.926     1.460
  82      -3.605     3.245     0.359     5.135    -0.566    -3.578
  83      -2.415     1.817     0.597    -5.994     2.160    -4.309
  84       5.019    -5.449     0.429     1.188    -5.334    -1.647
  85      -3.174     2.130     1.044     6.526     0.546     4.023
  86      -4.847     3.963     0.884    -5.000    -2.717     4.613
  87      -3.147     3.087     0.059     4.391    -0.905    -4.519
  88       4.094    -5.876     1.782     1.460     5.526    -0.285
 ---------------------------------------------------------------------


 Total hyperfine coupling parameters after diagonalization (MHz)
 (convention: |A_zz| > |A_xx| > |A_yy|)
 ----------------------------------------------------------------------
  ion      A_xx      A_yy      A_zz     asymmetry (A_yy - A_xx)/ A_zz 
 ----------------------------------------------------------------------
   1       1.924     1.611     3.776      -0.083
   2       2.807     2.335     4.988      -0.095
   3       0.701     0.181     3.222      -0.161
   4      -0.079     0.068     2.797       0.052
   5       0.725     0.245     3.198      -0.150
   6       1.622     1.325     3.294      -0.090
   7       2.141     1.742     4.140      -0.096
   8      -0.243     0.080     2.806       0.115
   9       1.943     1.475     4.027      -0.116
  10       1.061     0.673     3.059      -0.127
  11       1.912     1.523     3.604      -0.108
  12       1.026     0.502     3.565      -0.147
  13       1.995     1.695     4.131      -0.073
  14       2.501     2.265     4.526      -0.052
  15       0.736     0.357     3.323      -0.114
  16       0.282     0.142     3.040      -0.046
  17      14.392    10.028    14.613      -0.299
  18      15.913    11.479    16.170      -0.274
  19      14.787    10.358    15.075      -0.294
  20      13.743     9.545    14.228      -0.295
  21      16.025    11.576    16.366      -0.272
  22      14.277    10.013    14.405      -0.296
  23      14.327    10.026    14.556      -0.295
  24      13.914     9.717    14.100      -0.298
  25      98.168    96.627   100.136      -0.015
  26      92.753    91.661    93.142      -0.012
  27      96.587    95.695    99.440      -0.009
  28      99.852    97.369   101.655      -0.024
  29     100.681    98.149   102.584      -0.025
  30      95.781    93.902    99.045      -0.019
  31      97.404    95.511    98.778      -0.019
  32      95.778    92.710    97.114      -0.032
  33      94.445    91.271    95.912      -0.033
  34      97.500    95.892    99.124      -0.016
  35      96.994    92.034    97.583      -0.051
  36      98.580    96.233   100.202      -0.023
  37     103.556   101.378   106.118      -0.021
  38      98.162    96.989    98.786      -0.012
  39      96.934    95.814    97.996      -0.011
  40      95.382    95.320    96.725      -0.001
  41       4.270    -0.930    13.725      -0.379
  42       5.683     0.154    15.364      -0.360
  43       7.841     1.561    16.070      -0.391
  44       4.821     0.317    15.211      -0.296
  45       5.117     0.543    15.366      -0.298
  46       6.271     3.305    17.374      -0.171
  47       2.832    -1.816    13.618      -0.341
  48       5.448     2.709    15.995      -0.171
  49       1.002    -0.531    11.487      -0.133
  50       4.194     0.539    14.915      -0.245
  51       7.221     2.577    18.109      -0.256
  52       5.043     1.055    14.568      -0.274
  53       6.152     1.697    15.271      -0.292
  54       6.625     1.883    16.252      -0.292
  55       5.511     0.480    14.517      -0.347
  56       6.145     0.202    15.985      -0.372
  57       3.802    -0.559    14.907      -0.293
  58       3.515     1.312    14.862      -0.148
  59       3.599     0.041    14.333      -0.248
  60       3.655     2.434    12.462      -0.098
  61       5.642     2.347    18.476      -0.178
  62       4.664     1.076    14.773      -0.243
  63       7.323     2.643    15.819      -0.296
  64       3.804    -0.746    13.307      -0.342
  65       4.238     0.492    14.039      -0.267
  66       6.385     0.995    19.534      -0.276
  67       6.211     2.514    15.316      -0.241
  68       3.906    -0.178    14.637      -0.279
  69       5.697     2.493    15.873      -0.202
  70       3.780     1.483    14.139      -0.162
  71       5.454    -0.337    14.428      -0.401
  72       5.967     2.347    15.009      -0.241
  73       6.684     2.198    18.414      -0.244
  74       4.879     0.319    15.502      -0.294
  75       7.923     2.346    18.822      -0.296
  76       7.133     2.257    17.604      -0.277
  77       5.279     0.835    17.255      -0.258
  78       3.371     2.296    13.825      -0.078
  79       8.812     2.772    18.376      -0.329
  80       7.182     2.099    17.855      -0.285
  81       6.739     1.616    15.394      -0.333
  82       8.694     3.146    17.361      -0.320
  83       6.318     1.647    17.224      -0.271
  84       5.335     2.350    17.020      -0.175
  85       9.286     1.740    18.086      -0.417
  86       6.380     1.569    18.243      -0.264
  87       4.181     0.466    14.172      -0.262
  88       2.729    -1.223    13.723      -0.288
 ---------------------------------------------------------------------



--------------------------------------------------------------------------------------------------------


 stress matrix after NEB project (eV)
    -40.93356     -2.50717     -4.81939
     -2.51983    -39.69164     -5.94223
     -4.81425     -5.93163    -49.30904
  FORCES: max atom, RMS     2.876702    1.085878
  FORCE total and by dimension   10.186437    2.584262
  Stress total and by dimension   76.235804   49.309042
     LOOP+:  cpu time  769.1882: real time  784.9681
    4ORBIT:  cpu time    0.0000: real time    0.0000
 


 total charge     
 
# of ion       s       p       d       tot
------------------------------------------
    1        0.046   5.988   0.000   6.034
    2        0.048   5.990   0.000   6.038
    3        0.055   6.000   0.000   6.055
    4        0.049   5.992   0.000   6.042
    5        0.050   5.994   0.000   6.044
    6        0.050   5.992   0.000   6.042
    7        0.050   5.991   0.000   6.041
    8        0.054   5.999   0.000   6.053
    9        0.047   5.988   0.000   6.035
   10        0.049   5.991   0.000   6.040
   11        0.049   5.991   0.000   6.040
   12        0.057   6.002   0.000   6.059
   13        0.050   5.993   0.000   6.043
   14        0.051   5.993   0.000   6.044
   15        0.053   5.997   0.000   6.050
   16        0.051   5.996   0.000   6.047
   17        0.150   6.130   0.086   6.365
   18        0.149   6.129   0.085   6.362
   19        0.154   6.136   0.091   6.381
   20        0.151   6.132   0.087   6.369
   21        0.150   6.132   0.088   6.369
   22        0.145   6.121   0.078   6.344
   23        0.147   6.125   0.082   6.355
   24        0.143   6.118   0.076   6.338
   25        0.372   6.446   4.821  11.639
   26        0.372   6.446   4.814  11.633
   27        0.376   6.456   4.827  11.660
   28        0.373   6.448   4.828  11.649
   29        0.366   6.430   4.812  11.608
   30        0.387   6.479   4.850  11.715
   31        0.386   6.477   4.857  11.720
   32        0.377   6.456   4.831  11.663
   33        0.392   6.487   4.868  11.747
   34        0.390   6.482   4.865  11.737
   35        0.385   6.478   4.855  11.718
   36        0.374   6.455   4.830  11.659
   37        0.376   6.454   4.839  11.669
   38        0.395   6.498   4.883  11.776
   39        0.379   6.463   4.837  11.680
   40        0.386   6.473   4.856  11.715
   41        1.597   3.484   0.000   5.081
   42        1.597   3.490   0.000   5.087
   43        1.598   3.527   0.000   5.124
   44        1.600   3.517   0.000   5.117
   45        1.597   3.512   0.000   5.109
   46        1.602   3.538   0.000   5.140
   47        1.600   3.501   0.000   5.101
   48        1.598   3.509   0.000   5.107
   49        1.596   3.485   0.000   5.081
   50        1.597   3.500   0.000   5.097
   51        1.602   3.509   0.000   5.111
   52        1.597   3.524   0.000   5.122
   53        1.597   3.539   0.000   5.136
   54        1.597   3.502   0.000   5.099
   55        1.599   3.541   0.000   5.140
   56        1.599   3.501   0.000   5.100
   57        1.599   3.511   0.000   5.110
   58        1.601   3.481   0.000   5.081
   59        1.601   3.497   0.000   5.099
   60        1.596   3.496   0.000   5.091
   61        1.602   3.493   0.000   5.095
   62        1.597   3.509   0.000   5.106
   63        1.596   3.505   0.000   5.101
   64        1.596   3.507   0.000   5.103
   65        1.596   3.504   0.000   5.100
   66        1.603   3.519   0.000   5.122
   67        1.599   3.517   0.000   5.116
   68        1.599   3.521   0.000   5.121
   69        1.598   3.511   0.000   5.109
   70        1.598   3.472   0.000   5.070
   71        1.598   3.524   0.000   5.122
   72        1.598   3.515   0.000   5.113
   73        1.603   3.527   0.000   5.129
   74        1.601   3.505   0.000   5.105
   75        1.603   3.503   0.000   5.106
   76        1.599   3.518   0.000   5.117
   77        1.603   3.509   0.000   5.112
   78        1.599   3.535   0.000   5.134
   79        1.599   3.522   0.000   5.121
   80        1.601   3.519   0.000   5.120
   81        1.596   3.539   0.000   5.136
   82        1.600   3.506   0.000   5.106
   83        1.599   3.506   0.000   5.106
   84        1.600   3.524   0.000   5.124
   85        1.601   3.537   0.000   5.138
   86        1.601   3.487   0.000   5.088
   87        1.600   3.513   0.000   5.113
   88        1.596   3.496   0.000   5.092
--------------------------------------------------
tot         84.837 416.856  78.144 579.836
 


 magnetization (x)
 
# of ion       s       p       d       tot
------------------------------------------
    1        0.002   0.000   0.000   0.002
    2        0.003   0.000   0.000   0.003
    3        0.001   0.000   0.000   0.001
    4        0.001   0.000   0.000   0.001
    5        0.001   0.000   0.000   0.001
    6        0.001   0.000   0.000   0.002
    7        0.002   0.000   0.000   0.002
    8        0.001   0.000   0.000   0.001
    9        0.002   0.000   0.000   0.002
   10        0.001  -0.000   0.000   0.001
   11        0.002   0.000   0.000   0.002
   12        0.001   0.001   0.000   0.002
   13        0.002   0.000   0.000   0.002
   14        0.002   0.000   0.000   0.003
   15        0.001   0.000   0.000   0.001
   16        0.001   0.000   0.000   0.001
   17        0.008   0.003   0.001   0.012
   18        0.008   0.003   0.001   0.012
   19        0.007   0.003   0.001   0.011
   20        0.007   0.002   0.001   0.010
   21        0.008   0.003   0.001   0.013
   22        0.007   0.002   0.001   0.010
   23        0.007   0.002   0.001   0.010
   24        0.007   0.002   0.001   0.010
   25        0.015   0.029   2.765   2.810
   26        0.014   0.029   2.760   2.803
   27        0.016   0.030   2.764   2.810
   28        0.016   0.030   2.769   2.815
   29        0.016   0.030   2.784   2.831
   30        0.015   0.030   2.737   2.783
   31        0.016   0.031   2.730   2.777
   32        0.015   0.030   2.749   2.793
   33        0.014   0.030   2.718   2.762
   34        0.015   0.031   2.727   2.773
   35        0.015   0.031   2.724   2.770
   36        0.016   0.031   2.756   2.802
   37        0.017   0.032   2.757   2.806
   38        0.016   0.033   2.710   2.759
   39        0.016   0.031   2.742   2.789
   40        0.015   0.031   2.732   2.778
   41        0.002   0.019   0.000   0.021
   42        0.002   0.027   0.000   0.029
   43        0.002   0.049   0.000   0.051
   44        0.002   0.031   0.000   0.032
   45        0.002   0.035   0.000   0.037
   46        0.002   0.050   0.000   0.052
   47        0.002   0.015   0.000   0.016
   48        0.002   0.039   0.000   0.041
   49        0.001  -0.000   0.000   0.001
   50        0.002   0.026   0.000   0.028
   51        0.002   0.046   0.000   0.049
   52        0.002   0.026   0.000   0.027
   53        0.002   0.043   0.000   0.045
   54        0.002   0.045   0.000   0.047
   55        0.002   0.036   0.000   0.038
   56        0.002   0.037   0.000   0.039
   57        0.002   0.026   0.000   0.028
   58        0.002   0.017   0.000   0.019
   59        0.002   0.010   0.000   0.012
   60        0.002   0.015   0.000   0.017
   61        0.002   0.046   0.000   0.048
   62        0.002   0.031   0.000   0.033
   63        0.002   0.043   0.000   0.045
   64        0.001   0.024   0.000   0.025
   65        0.002   0.028   0.000   0.030
   66        0.002   0.057   0.000   0.060
   67        0.002   0.032   0.000   0.034
   68        0.002   0.030   0.000   0.031
   69        0.002   0.039   0.000   0.041
   70        0.002   0.016   0.000   0.018
   71        0.002   0.038   0.000   0.039
   72        0.002   0.038   0.000   0.040
   73        0.002   0.045   0.000   0.048
   74        0.002   0.033   0.000   0.035
   75        0.002   0.049   0.000   0.051
   76        0.002   0.048   0.000   0.050
   77        0.002   0.036   0.000   0.038
   78        0.002   0.025   0.000   0.027
   79        0.002   0.053   0.000   0.056
   80        0.002   0.043   0.000   0.045
   81        0.002   0.043   0.000   0.045
   82        0.002   0.053   0.000   0.055
   83        0.002   0.040   0.000   0.042
   84        0.002   0.046   0.000   0.048
   85        0.002   0.061   0.000   0.063
   86        0.002   0.046   0.000   0.048
   87        0.002   0.027   0.000   0.029
   88        0.001   0.022   0.000   0.024
--------------------------------------------------
tot          0.424   2.195  43.934  46.553
 

 total amount of memory used by VASP MPI-rank0    94430. kBytes
=======================================================================

   base      :      30000. kBytes
   nonlr-proj:      13671. kBytes
   fftplans  :       1275. kBytes
   grid      :      22786. kBytes
   one-center:       2737. kBytes
   wavefun   :      23961. kBytes
 
  
  
 General timing and accounting informations for this job:
 ========================================================
  
                  Total CPU time used (sec):      790.188
                            User time (sec):      781.900
                          System time (sec):        8.288
                         Elapsed time (sec):      808.464
  
                   Maximum memory used (kb):      194400.
                   Average memory used (kb):           0.
  
                          Minor page faults:       294166
                          Major page faults:            0
                 Voluntary context switches:       269237
