 vasp.5.4.4.18Apr17-6-g9f103f2a35 (build Dec 02 2020 12:53:39) complex          
  
 executed on             LinuxIFC date 2021.07.31  14:33:52
 running on   64 total cores
 distrk:  each k-point on   64 cores,    1 groups
 distr:  one band on NCORES_PER_BAND=   1 cores,   64 groups


--------------------------------------------------------------------------------------------------------


 INCAR:
 POTCAR:    PAW_PBE Na_pv 19Sep2006               
 POTCAR:    PAW_PBE Mg_pv 13Apr2007               
 POTCAR:    PAW_PBE Mn_pv 02Aug2007               
 POTCAR:    PAW_PBE O 08Apr2002                   

 ----------------------------------------------------------------------------- 
|                                                                             |
|           W    W    AA    RRRRR   N    N  II  N    N   GGGG   !!!           |
|           W    W   A  A   R    R  NN   N  II  NN   N  G    G  !!!           |
|           W    W  A    A  R    R  N N  N  II  N N  N  G       !!!           |
|           W WW W  AAAAAA  RRRRR   N  N N  II  N  N N  G  GGG   !            |
|           WW  WW  A    A  R   R   N   NN  II  N   NN  G    G                |
|           W    W  A    A  R    R  N    N  II  N    N   GGGG   !!!           |
|                                                                             |
|      For optimal performance we recommend to set                            |
|        NCORE= 4 - approx SQRT( number of cores)                             |
|      NCORE specifies how many cores store one orbital (NPAR=cpu/NCORE).     |
|      This setting can  greatly improve the performance of VASP for DFT.     |
|      The default,   NCORE=1            might be grossly inefficient         |
|      on modern multi-core architectures or massively parallel machines.     |
|      Do your own testing !!!!                                               |
|      Unfortunately you need to use the default for GW and RPA calculations. |
|      (for HF NCORE is supported but not extensively tested yet)             |
|                                                                             |
 ----------------------------------------------------------------------------- 

 POTCAR:    PAW_PBE Na_pv 19Sep2006               
   VRHFIN =Na: p6s1                                                             
   LEXCH  = PE                                                                  
   EATOM  =   766.0439 eV,   56.3026 Ry                                         
                                                                                
   TITEL  = PAW_PBE Na_pv 19Sep2006                                             
   LULTRA =        F    use ultrasoft PP ?                                      
   IUNSCR =        1    unscreen: 0-lin 1-nonlin 2-no                           
   RPACOR =    1.800    partial core radius                                     
   POMASS =   22.990; ZVAL   =    7.000    mass and valenz                      
   RCORE  =    2.200    outmost cutoff radius                                   
   RWIGS  =    2.200; RWIGS  =    1.164    wigner-seitz radius (au A)           
   ENMAX  =  259.561; ENMIN  =  194.671 eV                                      
   ICORE  =        2    local potential                                         
   LCOR   =        T    correct aug charges                                     
   LPAW   =        T    paw PP                                                  
   EAUG   =  368.056                                                            
   DEXC   =    0.000                                                            
   RMAX   =    2.245    core radius for proj-oper                               
   RAUG   =    1.300    factor for augmentation sphere                          
   RDEP   =    2.259    radius for radial grids                                 
   RDEPT  =    1.738    core radius for aug-charge                              
                                                                                
   Atomic configuration                                                         
    5 entries                                                                   
     n  l   j            E        occ.                                          
     1  0  0.50     -1033.6933   2.0000                                         
     2  0  0.50       -56.7526   2.0000                                         
     2  1  1.50       -28.6721   6.0000                                         
     3  0  0.50        -2.7440   1.0000                                         
     3  2  1.50        -1.3606   0.0000                                         
   Description                                                                  
     l       E           TYP  RCUT    TYP  RCUT                                 
     1    -28.6720912     23  2.000                                             
     1      6.8029130     23  2.000                                             
     0     -2.7439560     23  2.200                                             
     0     34.0145650     23  2.200                                             
     2     -1.3605826     23  2.200                                             
  local pseudopotential read in
  partial core-charges read in
  partial kinetic energy density read in
  atomic valenz-charges read in
  non local Contribution for L=           1  read in
    real space projection operators read in
  non local Contribution for L=           1  read in
    real space projection operators read in
  non local Contribution for L=           0  read in
    real space projection operators read in
  non local Contribution for L=           0  read in
    real space projection operators read in
    PAW grid and wavefunctions read in
 
   number of l-projection  operators is LMAX  =           4
   number of lm-projection operators is LMMAX =           8
 
 POTCAR:    PAW_PBE Mg_pv 13Apr2007               
   VRHFIN =Mg: p6s2                                                             
   LEXCH  = PE                                                                  
   EATOM  =  1056.7344 eV,   77.6678 Ry                                         
                                                                                
   TITEL  = PAW_PBE Mg_pv 13Apr2007                                             
   LULTRA =        F    use ultrasoft PP ?                                      
   IUNSCR =        1    unscreen: 0-lin 1-nonlin 2-no                           
   RPACOR =    1.500    partial core radius                                     
   POMASS =   24.305; ZVAL   =    8.000    mass and valenz                      
   RCORE  =    2.000    outmost cutoff radius                                   
   RWIGS  =    2.000; RWIGS  =    1.058    wigner-seitz radius (au A)           
   ENMAX  =  403.929; ENMIN  =  302.947 eV                                      
   RCLOC  =    1.506    cutoff for local pot                                    
   LCOR   =        T    correct aug charges                                     
   LPAW   =        T    paw PP                                                  
   EAUG   =  758.780                                                            
   DEXC   =    0.000                                                            
   RMAX   =    2.045    core radius for proj-oper                               
   RAUG   =    1.300    factor for augmentation sphere                          
   RDEP   =    2.025    radius for radial grids                                 
   RDEPT  =    1.557    core radius for aug-charge                              
                                                                                
   Atomic configuration                                                         
    5 entries                                                                   
     n  l   j            E        occ.                                          
     1  0  0.50     -1259.6230   2.0000                                         
     2  0  0.50       -79.8442   2.0000                                         
     2  1  1.50       -46.6121   6.0000                                         
     3  0  0.50        -4.7055   2.0000                                         
     3  2  1.50        -1.3606   0.0000                                         
   Description                                                                  
     l       E           TYP  RCUT    TYP  RCUT                                 
     1    -46.6121073     23  1.600                                             
     1      2.7211652     23  1.600                                             
     0     -4.7054661     23  2.000                                             
     0     61.2262170     23  2.000                                             
     2     -1.3605826     23  2.000                                             
  local pseudopotential read in
  partial core-charges read in
  partial kinetic energy density read in
  atomic valenz-charges read in
  non local Contribution for L=           1  read in
    real space projection operators read in
  non local Contribution for L=           1  read in
    real space projection operators read in
  non local Contribution for L=           0  read in
    real space projection operators read in
  non local Contribution for L=           0  read in
    real space projection operators read in
  non local Contribution for L=           2  read in
    real space projection operators read in
    PAW grid and wavefunctions read in
 
   number of l-projection  operators is LMAX  =           5
   number of lm-projection operators is LMMAX =          13
 
 POTCAR:    PAW_PBE Mn_pv 02Aug2007               
   VRHFIN =Mn: 3p4s3d                                                           
   LEXCH  = PE                                                                  
   EATOM  =  2025.2664 eV,  148.8529 Ry                                         
                                                                                
   TITEL  = PAW_PBE Mn_pv 02Aug2007                                             
   LULTRA =        F    use ultrasoft PP ?                                      
   IUNSCR =        1    unscreen: 0-lin 1-nonlin 2-no                           
   RPACOR =    2.080    partial core radius                                     
   POMASS =   54.938; ZVAL   =   13.000    mass and valenz                      
   RCORE  =    2.300    outmost cutoff radius                                   
   RWIGS  =    2.500; RWIGS  =    1.323    wigner-seitz radius (au A)           
   ENMAX  =  269.864; ENMIN  =  202.398 eV                                      
   ICORE  =        3    local potential                                         
   LCOR   =        T    correct aug charges                                     
   LPAW   =        T    paw PP                                                  
   EAUG   =  569.085                                                            
   DEXC   =    0.000                                                            
   RMAX   =    2.343    core radius for proj-oper                               
   RAUG   =    1.300    factor for augmentation sphere                          
   RDEP   =    2.338    radius for radial grids                                 
   RDEPT  =    1.798    core radius for aug-charge                              
                                                                                
   Atomic configuration                                                         
    8 entries                                                                   
     n  l   j            E        occ.                                          
     1  0  0.50     -6424.8287   2.0000                                         
     2  0  0.50      -739.1154   2.0000                                         
     2  1  1.50      -625.3949   6.0000                                         
     3  0  0.50       -81.6100   2.0000                                         
     3  1  1.50       -50.4667   6.0000                                         
     3  2  2.50        -3.3745   6.0000                                         
     4  0  0.50        -4.1331   1.0000                                         
     4  3  2.50        -1.3606   0.0000                                         
   Description                                                                  
     l       E           TYP  RCUT    TYP  RCUT                                 
     1    -50.4666628     23  2.000                                             
     1     -1.3605826     23  2.000                                             
     2     -3.3744729     23  2.300                                             
     2     -4.7350555     23  2.300                                             
     0     -4.1331431     23  2.300                                             
     0      7.6656591     23  2.300                                             
     3      9.5240782     23  2.300                                             
  local pseudopotential read in
  partial core-charges read in
  partial kinetic energy density read in
  atomic valenz-charges read in
  non local Contribution for L=           1  read in
    real space projection operators read in
  non local Contribution for L=           1  read in
    real space projection operators read in
  non local Contribution for L=           2  read in
    real space projection operators read in
  non local Contribution for L=           2  read in
    real space projection operators read in
  non local Contribution for L=           0  read in
    real space projection operators read in
  non local Contribution for L=           0  read in
    real space projection operators read in
    PAW grid and wavefunctions read in
 
   number of l-projection  operators is LMAX  =           6
   number of lm-projection operators is LMMAX =          18
 
 POTCAR:    PAW_PBE O 08Apr2002                   
   VRHFIN =O: s2p4                                                              
   LEXCH  = PE                                                                  
   EATOM  =   432.3788 eV,   31.7789 Ry                                         
                                                                                
   TITEL  = PAW_PBE O 08Apr2002                                                 
   LULTRA =        F    use ultrasoft PP ?                                      
   IUNSCR =        1    unscreen: 0-lin 1-nonlin 2-no                           
   RPACOR =    1.200    partial core radius                                     
   POMASS =   16.000; ZVAL   =    6.000    mass and valenz                      
   RCORE  =    1.520    outmost cutoff radius                                   
   RWIGS  =    1.550; RWIGS  =    0.820    wigner-seitz radius (au A)           
   ENMAX  =  400.000; ENMIN  =  300.000 eV                                      
   ICORE  =        2    local potential                                         
   LCOR   =        T    correct aug charges                                     
   LPAW   =        T    paw PP                                                  
   EAUG   =  605.392                                                            
   DEXC   =    0.000                                                            
   RMAX   =    1.553    core radius for proj-oper                               
   RAUG   =    1.300    factor for augmentation sphere                          
   RDEP   =    1.550    radius for radial grids                                 
   RDEPT  =    1.329    core radius for aug-charge                              
                                                                                
   Atomic configuration                                                         
    4 entries                                                                   
     n  l   j            E        occ.                                          
     1  0  0.50      -514.6923   2.0000                                         
     2  0  0.50       -23.9615   2.0000                                         
     2  1  0.50        -9.0305   4.0000                                         
     3  2  1.50        -9.5241   0.0000                                         
   Description                                                                  
     l       E           TYP  RCUT    TYP  RCUT                                 
     0    -23.9615318     23  1.200                                             
     0     -9.5240782     23  1.200                                             
     1     -9.0304911     23  1.520                                             
     1      8.1634956     23  1.520                                             
     2     -9.5240782      7  1.500                                             
  local pseudopotential read in
  partial core-charges read in
  partial kinetic energy density read in
  kinetic energy density of atom read in
  atomic valenz-charges read in
  non local Contribution for L=           0  read in
    real space projection operators read in
  non local Contribution for L=           0  read in
    real space projection operators read in
  non local Contribution for L=           1  read in
    real space projection operators read in
  non local Contribution for L=           1  read in
    real space projection operators read in
    PAW grid and wavefunctions read in
 
   number of l-projection  operators is LMAX  =           4
   number of lm-projection operators is LMMAX =           8
 
 Optimization of the real space projectors (new method)

 maximal supplied QI-value         = 17.01
 optimisation between [QCUT,QGAM] = [ 10.20, 20.41] = [ 29.16,116.64] Ry 
 Optimized for a Real-space Cutoff    1.30 Angstroem

   l    n(q)    QCUT    max X(q) W(low)/X(q) W(high)/X(q)  e(spline) 
   1      7    10.205     4.940    0.23E-03    0.84E-03    0.11E-06
   1      7    10.205     6.253    0.40E-03    0.13E-02    0.18E-06
   0      8    10.205    37.438    0.23E-03    0.37E-03    0.42E-07
   0      8    10.205     9.606    0.16E-03    0.26E-03    0.31E-07
 Optimization of the real space projectors (new method)

 maximal supplied QI-value         = 18.90
 optimisation between [QCUT,QGAM] = [ 10.20, 20.41] = [ 29.16,116.64] Ry 
 Optimized for a Real-space Cutoff    1.26 Angstroem

   l    n(q)    QCUT    max X(q) W(low)/X(q) W(high)/X(q)  e(spline) 
   1      7    10.205     2.974    0.63E-04    0.14E-03    0.13E-06
   1      7    10.205     4.279    0.11E-03    0.45E-03    0.24E-06
   0      8    10.205    16.381    0.44E-03    0.15E-03    0.55E-07
   0      8    10.205     5.611    0.31E-03    0.11E-03    0.40E-07
   2      7    10.205     4.652    0.50E-03    0.47E-03    0.57E-07
 Optimization of the real space projectors (new method)

 maximal supplied QI-value         = 16.25
 optimisation between [QCUT,QGAM] = [ 10.24, 20.48] = [ 29.35,117.42] Ry 
 Optimized for a Real-space Cutoff    1.34 Angstroem

   l    n(q)    QCUT    max X(q) W(low)/X(q) W(high)/X(q)  e(spline) 
   1      8    10.239     3.658    0.23E-03    0.30E-03    0.98E-07
   1      8    10.239     5.612    0.32E-03    0.65E-03    0.21E-06
   2      7    10.239    55.373    0.42E-03    0.45E-03    0.65E-07
   2      7    10.239    50.863    0.43E-03    0.48E-03    0.67E-07
   0      8    10.239    79.536    0.11E-03    0.21E-03    0.56E-07
   0      8    10.239    38.668    0.96E-04    0.19E-03    0.52E-07
 Optimization of the real space projectors (new method)

 maximal supplied QI-value         = 24.76
 optimisation between [QCUT,QGAM] = [ 10.15, 20.30] = [ 28.85,115.39] Ry 
 Optimized for a Real-space Cutoff    1.38 Angstroem

   l    n(q)    QCUT    max X(q) W(low)/X(q) W(high)/X(q)  e(spline) 
   0      8    10.150    20.381    0.22E-03    0.32E-03    0.29E-06
   0      8    10.150    15.268    0.23E-03    0.35E-03    0.30E-06
   1      8    10.150     5.964    0.46E-03    0.53E-03    0.21E-06
   1      8    10.150     5.382    0.38E-03    0.45E-03    0.19E-06
  PAW_PBE Na_pv 19Sep2006               :
 energy of atom  1       EATOM= -766.0439
 kinetic energy error for atom=    0.0103 (will be added to EATOM!!)
  PAW_PBE Mg_pv 13Apr2007               :
 energy of atom  2       EATOM=-1056.7344
 kinetic energy error for atom=    0.0820 (will be added to EATOM!!)
  PAW_PBE Mn_pv 02Aug2007               :
 energy of atom  3       EATOM=-2025.2664
 kinetic energy error for atom=    0.0284 (will be added to EATOM!!)
  PAW_PBE O 08Apr2002                   :
 energy of atom  4       EATOM= -432.3788
 kinetic energy error for atom=    0.1156 (will be added to EATOM!!)
 
 
 POSCAR: Na Mg Mn  O                             
  positions in cartesian coordinates
  No initial velocities read in

 METAGGA = SCAN     LMAXTAU =  6    LMIXTAU =  F

 exchange correlation table for  LEXCH =        8
   RHO(1)=    0.500       N(1)  =     2000
   RHO(2)=  100.500       N(2)  =     4000

 VTST: version 3.2, (02/03/18)

 CHAIN: initializing optimizer
 
 OPT: Using VASP Dynamics algorithm
 CHAIN: Read ICHAIN            0
 
 POSCAR: Na Mg Mn  O                             
  positions in cartesian coordinates
  No initial velocities read in
 


--------------------------------------------------------------------------------------------------------


 ion  position               nearest neighbor table
   1  0.305  0.620  0.251-  79 2.28  87 2.30  88 2.32  40 2.83  38 2.90
   2  0.616  0.143  0.752-  60 2.23
   3  0.871  0.930  0.754-  69 2.20  61 2.26  58 2.29  72 2.31  27 2.89  25 2.93
   4  0.462  0.778  0.751-  59 2.36
   5  0.953  0.572  0.243-  66 2.30  77 2.30  75 2.33
   6  0.817  0.124  0.252-  64 2.26  55 2.29  63 2.35  54 2.37  30 2.84  32 2.85
   7  0.127  0.633  0.742-  81 2.32  80 2.33  84 2.37
   8  0.263  0.067  0.752-  46 2.31  44 2.34  49 2.34  26 2.93
   9  0.763  0.793  0.257-  63 2.26  74 2.36
  10  0.603  0.400  0.247-  52 2.26  43 2.35  66 2.38
  11  0.123  0.950  0.245-  42 2.29  51 2.30  41 2.36
  12  0.393  0.434  0.745-  85 2.30  82 2.31  45 2.34  48 2.36  35 2.85  33 2.98
  13  0.957  0.293  0.745-  83 2.27  57 2.34  80 2.38
  14  0.781  0.592  0.748-  73 2.27  70 2.37  36 2.83
  15  0.453  0.961  0.247-  53 2.28  51 2.31  62 2.35  31 2.81  29 2.82
  16  0.238  0.290  0.249-  78 2.23  87 2.31
  17  0.595  0.264  0.003-  53 1.98  49 2.01  71 2.02  66 2.08  43 2.17  60 2.19  29 2.80
  18  0.624  0.287  0.493-  75 1.95  62 2.03  57 2.05  68 2.07  52 2.13  39 2.81
  19  0.095  0.271  0.988-  83 1.94  55 1.97  61 1.98  41 2.09  48 2.12  78 2.16  37 2.78  30 2.80

  20  0.111  0.282  0.510-  45 1.91  80 2.03  58 2.05  64 2.12  87 2.14  50 2.16  32 2.82
  21  0.104  0.778  0.001-  42 2.04  47 2.06  77 2.08  84 2.09  73 2.12  67 2.16  26 2.85
  22  0.106  0.773  0.487-  76 1.95  86 1.97  70 2.01  44 2.02  51 2.12  81 2.22  39 2.81  36 2.81
                            27 2.85
  23  0.603  0.760  0.002-  72 2.01  85 2.01  54 2.10  65 2.10  59 2.10  79 2.23  33 2.79  34 2.86

  24  0.607  0.783  0.502-  82 1.97  88 1.97  63 2.05  74 2.06  56 2.07  69 2.21  40 2.79
  25  0.933  0.940  0.010-  47 1.86  72 1.86  54 1.87  41 1.91  61 1.99  67 1.99  30 2.82  26 2.85
                             3 2.93  34 2.96
  26  0.261  0.106  0.011-  42 1.88  43 1.89  48 1.90  41 1.91  47 1.92  49 2.07  25 2.85  21 2.85
                            33 2.88   8 2.93  29 2.97
  27  0.942  0.937  0.504-  69 1.83  44 1.88  76 1.89  63 1.97  50 1.97  58 2.01  36 2.74  22 2.85
                             3 2.89  32 2.93  28 2.94
  28  0.281  0.112  0.488-  50 1.86  51 1.91  52 1.93  45 1.93  46 1.96  44 2.00  31 2.79  35 2.91
                            27 2.94
  29  0.438  0.941  0.997-  49 1.83  79 1.87  53 1.88  84 1.91  59 1.98  42 1.99  17 2.80  15 2.82
                            30 2.91  38 2.94  26 2.97
  30  0.773  0.105  0.001-  55 1.82  61 1.88  54 1.88  53 1.92  59 1.93  60 1.96  19 2.80  37 2.82
                            25 2.82   6 2.84  29 2.91
  31  0.445  0.955  0.498-  46 1.88  62 1.94  81 1.94  56 1.94  88 1.98  51 2.00  28 2.79  15 2.81
                            40 2.88  32 2.96
  32  0.786  0.118  0.505-  57 1.86  64 1.88  56 1.91  58 1.93  63 1.98  62 1.99  20 2.82   6 2.85
                            39 2.89  27 2.93  31 2.96
  33  0.436  0.438  0.008-  78 1.84  43 1.86  48 1.87  85 1.95  71 1.97  65 2.00  23 2.79  26 2.88
                            38 2.90  34 2.91  12 2.98
  34  0.770  0.599  0.014-  66 1.85  67 1.90  65 1.93  71 1.93  72 1.97  73 2.03  23 2.86  37 2.89
                            33 2.91  25 2.96
  35  0.441  0.447  0.494-  87 1.89  45 1.90  68 1.91  52 1.92  82 1.93  74 1.98  12 2.85  40 2.87
                            28 2.91  36 2.96
  36  0.782  0.621  0.497-  69 1.87  74 1.91  68 1.92  70 1.93  76 1.96  75 1.97  27 2.74  22 2.81
                            14 2.83  39 2.92  35 2.96
  37  0.933  0.430  0.995-  83 1.88  55 1.89  60 1.91  66 1.92  73 1.96  77 1.98  19 2.78  30 2.82
                            38 2.88  34 2.89
  38  0.266  0.602  0.994-  77 1.83  79 1.85  84 1.93  83 1.96  85 1.98  78 2.00  37 2.88   1 2.90
                            33 2.90  29 2.94
  39  0.948  0.451  0.500-  70 1.87  57 1.89  64 1.91  75 1.94  86 1.95  80 2.00  22 2.81  18 2.81
                            32 2.89  36 2.92  40 2.93
  40  0.286  0.623  0.503-  81 1.85  88 1.87  86 1.91  80 1.92  82 1.96  87 1.99  24 2.79   1 2.83
                            35 2.87  31 2.88  39 2.93
  41  0.096  0.103  0.098-  25 1.91  26 1.91  19 2.09  11 2.36
  42  0.279  0.953  0.094-  26 1.88  29 1.99  21 2.04  11 2.29
  43  0.412  0.273  0.100-  33 1.86  26 1.89  17 2.17  10 2.35
  44  0.111  0.946  0.585-  27 1.88  28 2.00  22 2.02   8 2.34
  45  0.283  0.277  0.578-  35 1.90  20 1.91  28 1.93  12 2.34
  46  0.426  0.097  0.596-  31 1.88  28 1.96   8 2.31
  47  0.093  0.954  0.917-  25 1.86  26 1.92  21 2.06
  48  0.292  0.275  0.914-  33 1.87  26 1.90  19 2.12  12 2.36
  49  0.425  0.090  0.910-  29 1.83  17 2.01  26 2.07   8 2.34
  50  0.111  0.099  0.409-  28 1.86  27 1.97  20 2.16
  51  0.287  0.958  0.392-  28 1.91  31 2.00  22 2.12  11 2.30  15 2.31
  52  0.438  0.285  0.400-  35 1.92  28 1.93  18 2.13  10 2.26
  53  0.601  0.093  0.088-  29 1.88  30 1.92  17 1.98  15 2.28
  54  0.776  0.950  0.094-  25 1.87  30 1.88  23 2.10   6 2.37
  55  0.927  0.265  0.083-  30 1.82  37 1.89  19 1.97   6 2.29
  56  0.613  0.966  0.593-  32 1.91  31 1.94  24 2.07
  57  0.796  0.282  0.589-  32 1.86  39 1.89  18 2.05  13 2.34
  58  0.937  0.103  0.601-  32 1.93  27 2.01  20 2.05   3 2.29
  59  0.610  0.945  0.907-  30 1.93  29 1.98  23 2.10   4 2.36
  60  0.782  0.268  0.899-  37 1.91  30 1.96  17 2.19   2 2.23
  61  0.922  0.095  0.907-  30 1.88  19 1.98  25 1.99   3 2.26
  62  0.617  0.106  0.404-  31 1.94  32 1.99  18 2.03  15 2.35
  63  0.787  0.954  0.407-  27 1.97  32 1.98  24 2.05   9 2.26   6 2.35
  64  0.931  0.281  0.410-  32 1.88  39 1.91  20 2.12   6 2.26
  65  0.608  0.592  0.111-  34 1.93  33 2.00  23 2.10
  66  0.781  0.441  0.092-  34 1.85  37 1.92  17 2.08   5 2.30  10 2.38
  67  0.919  0.767  0.107-  34 1.90  25 1.99  21 2.16
  68  0.610  0.460  0.582-  35 1.91  36 1.92  18 2.07
  69  0.800  0.780  0.596-  27 1.83  36 1.87   3 2.20  24 2.21
  70  0.939  0.606  0.586-  39 1.87  36 1.93  22 2.01  14 2.37
  71  0.606  0.446  0.916-  34 1.93  33 1.97  17 2.02
  72  0.788  0.774  0.922-  25 1.86  34 1.97  23 2.01   3 2.31
  73  0.927  0.593  0.904-  37 1.96  34 2.03  21 2.12  14 2.27
  74  0.617  0.613  0.406-  36 1.91  35 1.98  24 2.06   9 2.36
  75  0.790  0.457  0.405-  39 1.94  18 1.95  36 1.97   5 2.33
  76  0.944  0.787  0.402-  27 1.89  22 1.95  36 1.96
  77  0.109  0.595  0.084-  38 1.83  37 1.98  21 2.08   5 2.30
  78  0.282  0.445  0.093-  33 1.84  38 2.00  19 2.16  16 2.23
  79  0.405  0.768  0.085-  38 1.85  29 1.87  23 2.23   1 2.28
  80  0.122  0.466  0.597-  40 1.92  39 2.00  20 2.03   7 2.33  13 2.38
  81  0.298  0.783  0.594-  40 1.85  31 1.94  22 2.22   7 2.32
  82  0.446  0.608  0.591-  35 1.93  40 1.96  24 1.97  12 2.31
  83  0.095  0.439  0.903-  37 1.88  19 1.94  38 1.96  13 2.27
  84  0.282  0.776  0.906-  29 1.91  38 1.93  21 2.09   7 2.37
  85  0.431  0.593  0.905-  33 1.95  38 1.98  23 2.01  12 2.30
  86  0.120  0.606  0.407-  40 1.91  39 1.95  22 1.97
  87  0.288  0.460  0.404-  35 1.89  40 1.99  20 2.14   1 2.30  16 2.31
  88  0.438  0.781  0.410-  40 1.87  24 1.97  31 1.98   1 2.32
 
  LATTYP: Found a hexagonal cell.
 ALAT       =    10.0190000534
 C/A-ratio  =     1.1196726572
  
  Lattice vectors:
  
 A1 = (  10.0190000534,   0.0000000000,   0.0000000000)
 A2 = (  -5.0095000267,   8.6767085668,   0.0000000000)
 A3 = (   0.0000000000,   0.0000000000,  11.2180004120)


Analysis of symmetry for initial positions (statically):
=====================================================================
 Subroutine PRICEL returns:
 Original cell was already a primitive cell.
 

 Routine SETGRP: Setting up the symmetry group for a 
 hexagonal supercell.


 Subroutine GETGRP returns: Found  1 space group operations
 (whereof  1 operations were pure point group operations)
 out of a pool of 24 trial point group operations.


The static configuration has the point symmetry C_1 .


Analysis of symmetry for dynamics (positions and initial velocities):
=====================================================================
 Subroutine PRICEL returns:
 Original cell was already a primitive cell.
 

 Routine SETGRP: Setting up the symmetry group for a 
 hexagonal supercell.


 Subroutine GETGRP returns: Found  1 space group operations
 (whereof  1 operations were pure point group operations)
 out of a pool of 24 trial point group operations.


The dynamic configuration has the point symmetry C_1 .


Analysis of structural, dynamic, and magnetic symmetry:
=====================================================================
 Subroutine PRICEL returns:
 Original cell was already a primitive cell.
 

 Routine SETGRP: Setting up the symmetry group for a 
 hexagonal supercell.


 Subroutine GETGRP returns: Found  1 space group operations
 (whereof  1 operations were pure point group operations)
 out of a pool of 24 trial point group operations.


The magnetic configuration has the point symmetry C_1 .


 Subroutine INISYM returns: Found  1 space group operations
 (whereof  1 operations are pure point group operations),
 and found     1 'primitive' translations

 
 

Automatic generation of k-mesh.
 generate k-points for:    2    2    2
Space group operators:
 irot       det(A)        alpha          n_x          n_y          n_z        tau_x        tau_y        tau_z
    1     1.000000     0.000000     1.000000     0.000000     0.000000     0.000000     0.000000     0.000000
 
 Subroutine IBZKPT returns following result:
 ===========================================
 
 Found      8 irreducible k-points:
 
 Following reciprocal coordinates:
            Coordinates               Weight
  0.000000  0.000000  0.000000      1.000000
  0.500000 -0.000000 -0.000000      1.000000
  0.000000  0.500000  0.000000      1.000000
  0.500000  0.500000 -0.000000      1.000000
  0.000000  0.000000  0.500000      1.000000
  0.500000 -0.000000  0.500000      1.000000
  0.000000  0.500000  0.500000      1.000000
  0.500000  0.500000  0.500000      1.000000
 
 Following cartesian coordinates:
            Coordinates               Weight
  0.000000  0.000000  0.000000      1.000000
  0.049905  0.028813 -0.000000      1.000000
  0.000000  0.057626  0.000000      1.000000
  0.049905  0.086438 -0.000000      1.000000
  0.000000  0.000000  0.044571      1.000000
  0.049905  0.028813  0.044571      1.000000
  0.000000  0.057626  0.044571      1.000000
  0.049905  0.086438  0.044571      1.000000
 


--------------------------------------------------------------------------------------------------------




 Dimension of arrays:
   k-points           NKPTS =      8   k-points in BZ     NKDIM =      8   number of bands    NBANDS=    448
   number of dos      NEDOS =    301   number of ions     NIONS =     88
   non local maximal  LDIM  =      6   non local SUM 2l+1 LMDIM =     18
   total plane-waves  NPLWV = 140000
   max r-space proj   IRMAX =   1632   max aug-charges    IRDMAX=   4555
   dimension x,y,z NGX =    50 NGY =   50 NGZ =   56
   dimension x,y,z NGXF=   100 NGYF=  100 NGZF=  112
   support grid    NGXF=   100 NGYF=  100 NGZF=  112
   ions per type =              16   8  16  48
   NGX,Y,Z   is equivalent  to a cutoff of   8.30,  8.30,  8.30 a.u.
   NGXF,Y,Z  is equivalent  to a cutoff of  16.59, 16.59, 16.60 a.u.

 SYSTEM =  unknown system                          
 POSCAR =  Na Mg Mn  O                             

 Startparameter for this run:
   NWRITE =      2    write-flag & timer
   PREC   = normal    normal or accurate (medium, high low for compatibility)
   ISTART =      0    job   : 0-new  1-cont  2-samecut
   ICHARG =      1    charge: 1-file 2-atom 10-const
   ISPIN  =      2    spin polarized calculation?
   LNONCOLLINEAR =      F non collinear calculations
   LSORBIT =      F    spin-orbit coupling
   INIWAV =      1    electr: 0-lowe 1-rand  2-diag
   LASPH  =      T    aspherical Exc in radial PAW
   METAGGA=      F    non-selfconsistent MetaGGA calc.

 Electronic Relaxation 1
   ENCUT  =  400.0 eV  29.40 Ry    5.42 a.u.  16.34 16.34 18.29*2*pi/ulx,y,z
   ENINI  =  400.0     initial cutoff
   ENAUG  =  758.8 eV  augmentation charge cutoff
   NELM   =    200;   NELMIN=  6; NELMDL=-12     # of ELM steps 
   EDIFF  = 0.1E-04   stopping-criterion for ELM
   LREAL  =      T    real-space projection
   NLSPLINE    = F    spline interpolate recip. space projectors
   LCOMPAT=      F    compatible to vasp.4.4
   GGA_COMPAT  = T    GGA compatible to vasp.4.4-vasp.4.6
   LMAXPAW     = -100 max onsite density
   LMAXMIX     =    4 max onsite mixed and CHGCAR
   VOSKOWN=      0    Vosko Wilk Nusair interpolation
   ROPT   =   -0.00050  -0.00050  -0.00050  -0.00050
 Ionic relaxation
   EDIFFG = 0.1E-03   stopping-criterion for IOM
   NSW    =      1    number of steps for IOM
   NBLOCK =      1;   KBLOCK =      1    inner block; outer block 
   IBRION =     -1    ionic relax: 0-MD 1-quasi-New 2-CG
   NFREE  =      0    steps in history (QN), initial steepest desc. (CG)
   ISIF   =      2    stress and relaxation
   IWAVPR =     10    prediction:  0-non 1-charg 2-wave 3-comb
   ISYM   =      2    0-nonsym 1-usesym 2-fastsym
   LCORR  =      T    Harris-Foulkes like correction to forces

   POTIM  = 0.5000    time-step for ionic-motion
   TEIN   =    0.0    initial temperature
   TEBEG  =    0.0;   TEEND  =   0.0 temperature during run
   SMASS  =  -3.00    Nose mass-parameter (am)
   estimated Nose-frequenzy (Omega)   =  0.10E-29 period in steps =****** mass=  -0.229E-26a.u.
   SCALEE = 1.0000    scale energy and forces
   NPACO  =    256;   APACO  = 16.0  distance and # of slots for P.C.
   PSTRESS=    0.0 pullay stress

  Mass of Ions in am
   POMASS =  22.99 24.30 54.94 16.00
  Ionic Valenz
   ZVAL   =   7.00  8.00 13.00  6.00
  Atomic Wigner-Seitz radii
   RWIGS  =  -1.00 -1.00 -1.00 -1.00
  virtual crystal weights 
   VCA    =   1.00  1.00  1.00  1.00
   NELECT =     672.0000    total number of electrons
   NUPDOWN=      48.0000    fix difference up-down

 DOS related values:
   EMIN   =  10.00;   EMAX   =-10.00  energy-range for DOS
   EFERMI =   0.00
   ISMEAR =     0;   SIGMA  =   0.05  broadening in eV -4-tet -1-fermi 0-gaus

 Electronic relaxation 2 (details)
   IALGO  =     48    algorithm
   LDIAG  =      T    sub-space diagonalisation (order eigenvalues)
   LSUBROT=      F    optimize rotation matrix (better conditioning)
   TURBO    =      0    0=normal 1=particle mesh
   IRESTART =      0    0=no restart 2=restart with 2 vectors
   NREBOOT  =      0    no. of reboots
   NMIN     =      0    reboot dimension
   EREF     =   0.00    reference energy to select bands
   IMIX   =      4    mixing-type and parameters
     AMIX     =   0.40;   BMIX     =  1.00
     AMIX_MAG =   1.60;   BMIX_MAG =  1.00
     AMIN     =   0.10
     WC   =   100.;   INIMIX=   1;  MIXPRE=   1;  MAXMIX= -45

 Intra band minimization:
   WEIMIN = 0.0000     energy-eigenvalue tresh-hold
   EBREAK =  0.56E-08  absolut break condition
   DEPER  =   0.30     relativ break condition  

   TIME   =   0.40     timestep for ELM

  volume/ion in A,a.u.               =      11.08        74.78
  Fermi-wavevector in a.u.,A,eV,Ry     =   1.445993  2.732531 28.448379  2.090897
  Thomas-Fermi vector in A             =   2.564112
 
 Write flags
   LWAVE        =      F    write WAVECAR
   LDOWNSAMPLE  =      F    k-point downsampling of WAVECAR
   LCHARG       =      F    write CHGCAR
   LVTOT        =      F    write LOCPOT, total local potential
   LVHAR        =      F    write LOCPOT, Hartree potential only
   LELF         =      F    write electronic localiz. function (ELF)
   LORBIT       =     11    0 simple, 1 ext, 2 COOP (PROOUT), +10 PAW based schemes


 Dipole corrections
   LMONO  =      F    monopole corrections only (constant potential shift)
   LDIPOL =      F    correct potential (dipole corrections)
   IDIPOL =      0    1-x, 2-y, 3-z, 4-all directions 
   EPSILON=  1.0000000 bulk dielectric constant

 Exchange correlation treatment:
   GGA     =    --    GGA type
   LEXCH   =     8    internal setting for exchange type
   VOSKOWN=      0    Vosko Wilk Nusair interpolation
   LHFCALC =     F    Hartree Fock is set to
   LHFONE  =     F    Hartree Fock one center treatment
   AEXX    =    0.0000 exact exchange contribution

 Linear response parameters
   LEPSILON=     F    determine dielectric tensor
   LRPA    =     F    only Hartree local field effects (RPA)
   LNABLA  =     F    use nabla operator in PAW spheres
   LVEL    =     F    velocity operator in full k-point grid
   LINTERFAST=   F  fast interpolation
   KINTER  =     0    interpolate to denser k-point grid
   CSHIFT  =0.1000    complex shift for real part using Kramers Kronig
   OMEGAMAX=  -1.0    maximum frequency
   DEG_THRESHOLD= 0.2000000E-02 threshold for treating states as degnerate
   RTIME   =   -0.100 relaxation time in fs
  (WPLASMAI=    0.000 imaginary part of plasma frequency in eV, 0.658/RTIME)
   DFIELD  = 0.0000000 0.0000000 0.0000000 field for delta impulse in time
 
 Orbital magnetization related:
   ORBITALMAG=     F  switch on orbital magnetization
   LCHIMAG   =     F  perturbation theory with respect to B field
   DQ        =  0.001000  dq finite difference perturbation B field
   LLRAUG    =     F  two centre corrections for induced B field



--------------------------------------------------------------------------------------------------------


 Static calculation
 charge density and potential will be updated during run
 spin polarized calculation
 RMM-DIIS sequential band-by-band
 perform sub-space diagonalisation
    before iterative eigenvector-optimisation
 modified Broyden-mixing scheme, WC =      100.0
 initial mixing is a Kerker type mixing with AMIX =  0.4000 and BMIX =      1.0000
 Hartree-type preconditioning will be used
 using additional bands          112
 real space projection scheme for non local part
 use partial core corrections
 calculate Harris-corrections to forces 
   (improved forces if not selfconsistent)
 use gradient corrections 
 use of overlap-Matrix (Vanderbilt PP)
 Gauss-broadening in eV      SIGMA  =   0.05


--------------------------------------------------------------------------------------------------------


  energy-cutoff  :      400.00
  volume of cell :      975.20
      direct lattice vectors                 reciprocal lattice vectors
    10.019000053  0.000000000  0.000000000     0.099810360  0.057625538 -0.000000000
    -5.009500027  8.676708567  0.000000000     0.000000000  0.115251076  0.000000000
     0.000000000  0.000000000 11.218000412     0.000000000  0.000000000  0.089142446

  length of vectors
    10.019000053 10.019000053 11.218000412     0.115251076  0.115251076  0.089142446


 
 k-points in units of 2pi/SCALE and weight: read from INCAR                         
   0.00000000  0.00000000  0.00000000       0.125
   0.04990518  0.02881277 -0.00000000       0.125
   0.00000000  0.05762554  0.00000000       0.125
   0.04990518  0.08643831 -0.00000000       0.125
   0.00000000  0.00000000  0.04457122       0.125
   0.04990518  0.02881277  0.04457122       0.125
   0.00000000  0.05762554  0.04457122       0.125
   0.04990518  0.08643831  0.04457122       0.125
 
 k-points in reciprocal lattice and weights: read from INCAR                         
   0.00000000  0.00000000  0.00000000       0.125
   0.50000000 -0.00000000 -0.00000000       0.125
   0.00000000  0.50000000  0.00000000       0.125
   0.50000000  0.50000000 -0.00000000       0.125
   0.00000000  0.00000000  0.50000000       0.125
   0.50000000 -0.00000000  0.50000000       0.125
   0.00000000  0.50000000  0.50000000       0.125
   0.50000000  0.50000000  0.50000000       0.125
 
 position of ions in fractional coordinates (direct lattice) 
   0.30482854  0.61951833  0.25104296
   0.61617245  0.14267128  0.75222319
   0.87066763  0.92967742  0.75413707
   0.46186374  0.77800436  0.75109286
   0.95330467  0.57150605  0.24308967
   0.81743455  0.12374623  0.25183900
   0.12733873  0.63327816  0.74242910
   0.26335483  0.06739636  0.75173558
   0.76347571  0.79268653  0.25709484
   0.60252686  0.40021891  0.24666874
   0.12314434  0.94976008  0.24482705
   0.39319402  0.43426507  0.74495451
   0.95678256  0.29296626  0.74511497
   0.78111857  0.59172109  0.74832677
   0.45293041  0.96119628  0.24726421
   0.23803855  0.28997072  0.24891958
   0.59489929  0.26352850  0.00281548
   0.62431089  0.28650380  0.49310660
   0.09514438  0.27082274  0.98834382
   0.11052061  0.28243198  0.51005347
   0.10362850  0.77804849  0.00133710
   0.10607424  0.77347994  0.48731501
   0.60263725  0.75995061  0.00222842
   0.60729324  0.78327397  0.50219289
   0.93304511  0.94015950  0.01005491
   0.26115826  0.10608735  0.01056971
   0.94229781  0.93707193  0.50389907
   0.28079121  0.11198267  0.48755124
   0.43790568  0.94122327  0.99674626
   0.77263191  0.10508616  0.00144407
   0.44525957  0.95498425  0.49788820
   0.78585265  0.11778775  0.50478337
   0.43562841  0.43806588  0.00845656
   0.77025715  0.59867978  0.01439267
   0.44115200  0.44731248  0.49400337
   0.78219686  0.62091633  0.49738900
   0.93340371  0.42954422  0.99522197
   0.26556499  0.60216382  0.99402031
   0.94793682  0.45059367  0.49966124
   0.28600345  0.62298623  0.50274289
   0.09615047  0.10285928  0.09813514
   0.27851752  0.95277714  0.09413799
   0.41208117  0.27272208  0.10035835
   0.11142936  0.94599277  0.58471027
   0.28283458  0.27727911  0.57798269
   0.42619659  0.09660518  0.59565963
   0.09273826  0.95449138  0.91696377
   0.29224095  0.27490609  0.91402207
   0.42549224  0.08972089  0.91004632
   0.11084442  0.09889614  0.40905240
   0.28651743  0.95774193  0.39180155
   0.43811925  0.28531326  0.40032357
   0.60144846  0.09312748  0.08770574
   0.77647822  0.95024162  0.09354163
   0.92696658  0.26534947  0.08277964
   0.61298360  0.96643831  0.59265107
   0.79639821  0.28230636  0.58875020
   0.93683760  0.10278990  0.60134959
   0.61011599  0.94459570  0.90747902
   0.78170350  0.26814200  0.89892134
   0.92152799  0.09493542  0.90670348
   0.61692541  0.10630517  0.40415848
   0.78720765  0.95372462  0.40737474
   0.93091273  0.28113080  0.40986538
   0.60758445  0.59213467  0.11109645
   0.78138108  0.44146464  0.09222588
   0.91862286  0.76728865  0.10681850
   0.61037224  0.46027938  0.58194863
   0.79960700  0.77955136  0.59607771
   0.93888150  0.60577579  0.58612050
   0.60635627  0.44598133  0.91625955
   0.78838698  0.77406311  0.92153678
   0.92686782  0.59266368  0.90374395
   0.61704438  0.61271736  0.40611605
   0.78954985  0.45728515  0.40488053
   0.94360325  0.78711068  0.40205026
   0.10916691  0.59461488  0.08410010
   0.28221417  0.44516074  0.09300410
   0.40493484  0.76842503  0.08480041
   0.12247257  0.46590132  0.59656621
   0.29765095  0.78297432  0.59350506
   0.44599313  0.60791600  0.59149935
   0.09496604  0.43855570  0.90296841
   0.28182702  0.77550951  0.90632908
   0.43133724  0.59295296  0.90534851
   0.12023774  0.60618263  0.40674718
   0.28845607  0.45956251  0.40434033
   0.43847812  0.78083526  0.40958191
 
 position of ions in cartesian coordinates  (Angst):
  -0.04939995  5.37538000  2.81620000
   5.45872000  1.23791713  8.43844000
   4.06599995  8.06654000  8.45991000
   0.72999995  6.75051713  8.42576000
   6.68819997  4.95879143  2.72698000
   7.56997000  1.07371000  2.82513000
  -1.89660016  5.49477000  8.32857000
   2.30092997  0.58477857  8.43297000
   3.67830000  6.87791000  2.88409000
   4.03182000  3.47258287  2.76713000
  -3.52404003  8.24079143  2.74647000
   1.76396003  3.76799143  8.35690000
   8.11839005  2.54198287  8.35870000
   4.86180019  5.13419143  8.39473000
  -0.27720300  8.34002000  2.77381000
   0.93229992  2.51599143  2.79238000
   4.64015000  2.28656000  0.03158410
   4.81973000  2.48591000  5.53167000
  -0.40343500  2.34985000 11.08724141
  -0.30753700  2.45058000  5.72178000
  -2.85938000  6.75090000  0.01499959
  -2.81199000  6.71126000  5.46670000
   2.23085000  6.59387000  0.02499840
   2.16066000  6.79624000  5.63360000
   4.63845000  8.15749000  0.11279600
   2.08510000  0.92048900  0.11857100
   4.74662000  8.13070000  5.65274000
   2.25227000  0.97164100  5.46935000
  -0.32768100  8.16672000 11.18150000
   7.21457000  0.91180200  0.01619959
  -0.32293800  8.28612000  5.58531000
   7.28340000  1.02201000  5.66266000
   2.17007000  3.80097000  0.09486570
   4.71812000  5.19457000  0.16145700
   2.17909000  3.88120000  5.54173000
   4.72635000  5.38751000  5.57971000
   7.19997000  3.72703000 11.16440051
  -0.35584400  5.22480000 11.15092021
   7.24013000  3.90967000  5.60520000
  -0.25538100  5.40547000  5.63977000
   0.44805800  0.89248000  1.10088000
  -1.98247003  8.26696957  1.05604000
   2.76244000  2.36633000  1.12582000
  -3.62254003  8.20810357  6.55928000
   1.44469000  2.40587000  6.48381000
   3.78612000  0.83821500  6.68211000
  -3.85238003  8.28184357 10.28650000
   1.55082000  2.38528000 10.25350000
   3.81355000  0.77848200 10.20890000
   0.61513000  0.85809300  4.58875000
  -1.92719003  8.31004757  4.39523000
   2.96024000  2.47558000  4.49083000
   5.55939000  0.80804000  0.98388300
   3.01929997  8.24496957  1.04935000
   7.95801000  2.30236000  0.92862200
   1.30010997  8.38550357  6.64836000
   6.56490000  2.44949000  6.60460000
   8.87125000  0.89187800  6.74594000
   1.38079997  8.19598157 10.18010000
   6.48863000  2.32659000 10.08410000
   8.75721000  0.82372700 10.17140000
   5.64844000  0.92237900  4.53385000
   3.10934997  8.27519057  4.56993000
   7.91849000  2.43929000  4.59787000
   3.12109000  5.13778000  1.24628000
   5.61714000  3.83046000  1.03459000
   5.35995000  6.65754000  1.19829000
   3.80955000  3.99371000  6.52830000
   4.10610000  6.76394000  6.68680000
   6.37202000  5.25614000  6.57510000
   3.84094000  3.86965000 10.27860000
   4.02118000  6.71632000 10.33780000
   6.31734000  5.14237000 10.13820000
   3.11276000  5.31637000  4.55581000
   5.61973000  3.96773000  4.54195000
   5.51093000  6.82953000  4.51020000
  -1.88498000  5.15930000  0.94343500
   0.59747100  3.86253000  1.04332000
   0.20761700  6.66740000  0.95129100
  -1.10688000  4.04249000  6.69228000
  -0.94014500  6.79364000  6.65794000
   1.42305000  5.27471000  6.63544000
  -1.24548000  3.80522000 10.12950000
  -1.06129000  6.72887000 10.16720000
   1.35117000  5.14488000 10.15620000
  -1.83201000  5.25967000  4.56289000
   0.58786300  3.98749000  4.53589000
   0.48151800  6.77508000  4.59469000
 


--------------------------------------------------------------------------------------------------------


 k-point  1 :   0.0000 0.0000 0.0000  plane waves:   17725
 k-point  2 :   0.5000-0.0000-0.0000  plane waves:   17736
 k-point  3 :   0.0000 0.5000 0.0000  plane waves:   17736
 k-point  4 :   0.5000 0.5000-0.0000  plane waves:   17736
 k-point  5 :   0.0000 0.0000 0.5000  plane waves:   17676
 k-point  6 :   0.5000-0.0000 0.5000  plane waves:   17700
 k-point  7 :   0.0000 0.5000 0.5000  plane waves:   17700
 k-point  8 :   0.5000 0.5000 0.5000  plane waves:   17700

 maximum and minimum number of plane-waves per node :     17736    17676

 maximum number of plane-waves:     17736
 maximum index in each direction: 
   IXMAX=   16   IYMAX=   16   IZMAX=   18
   IXMIN=  -16   IYMIN=  -16   IZMIN=  -18


 serial   3D FFT for wavefunctions
 parallel 3D FFT for charge:
    minimum data exchange during FFTs selected (reduces bandwidth)


 total amount of memory used by VASP MPI-rank0   104122. kBytes
=======================================================================

   base      :      30000. kBytes
   nonlr-proj:      13680. kBytes
   fftplans  :       1316. kBytes
   grid      :      22786. kBytes
   one-center:       2737. kBytes
   wavefun   :      33603. kBytes
 
     INWAV:  cpu time    0.0000: real time    0.0001
 Broyden mixing: mesh for mixing (old mesh)
   NGX = 33   NGY = 33   NGZ = 37
  (NGX  =100   NGY  =100   NGZ  =112)
  gives a total of  40293 points

 initial charge density was supplied:
 charge density of overlapping atoms calculated
 number of electron     672.0000000 magnetization      48.0000000
 keeping initial charge density in first step


--------------------------------------------------------------------------------------------------------


 Maximum index for non-local projection operator         1550
 Maximum index for augmentation-charges          257 (set IRDMAX)


--------------------------------------------------------------------------------------------------------


 First call to EWALD:  gamma=   0.179
 Maximum number of real-space cells 3x 3x 2
 Maximum number of reciprocal cells 3x 3x 3

    FEWALD:  cpu time    0.0029: real time    0.0039


--------------------------------------- Iteration      1(   1)  ---------------------------------------


    POTLOK:  cpu time    0.0681: real time    0.0708
    SETDIJ:  cpu time    2.5365: real time    2.5382
    EDDIAG:  cpu time    3.6436: real time    3.6566
  RMM-DIIS:  cpu time   10.3624: real time   10.3866
    ORTHCH:  cpu time    0.5956: real time    0.5993
       DOS:  cpu time    0.0012: real time    0.0014
    --------------------------------------------
      LOOP:  cpu time   17.2074: real time   17.2530

 eigenvalue-minimisations  :  7168
 total energy-change (2. order) : 0.1785329E+04  (-0.3596203E+05)
 number of electron     672.0000000 magnetization      48.0000000
 augmentation part      672.0000000 magnetization      48.0000000

 Free energy of the ion-electron system (eV)
  ---------------------------------------------------
  alpha Z        PSCENC =      2652.81237852
  Ewald energy   TEWEN  =    -41704.33168214
  -Hartree energ DENC   =    -25901.26647094
  -exchange      EXHF   =         0.00000000
  -V(xc)+E(xc)   XCENC  =      3606.52359538
  PAW double counting   =     55594.23204139   -59034.67079123
  entropy T*S    EENTRO =        -0.06045692
  eigenvalues    EBANDS =     -7290.10726395
  atomic energy  EATOM  =     73862.19814772
  Solvation  Ediel_sol  =         0.00000000
  ---------------------------------------------------
  free energy    TOTEN  =      1785.32949783 eV

  energy without entropy =     1785.38995475  energy(sigma->0) =     1785.35972629


--------------------------------------------------------------------------------------------------------




--------------------------------------- Iteration      1(   2)  ---------------------------------------


    EDDIAG:  cpu time    3.6154: real time    3.6227
  RMM-DIIS:  cpu time   10.3178: real time   10.4225
    ORTHCH:  cpu time    0.5923: real time    0.5960
       DOS:  cpu time    0.0010: real time    0.0010
    --------------------------------------------
      LOOP:  cpu time   14.5265: real time   14.6421

 eigenvalue-minimisations  :  7168
 total energy-change (2. order) :-0.2607019E+04  (-0.8655434E+04)
 number of electron     672.0000000 magnetization      48.0000000
 augmentation part      672.0000000 magnetization      48.0000000

 Free energy of the ion-electron system (eV)
  ---------------------------------------------------
  alpha Z        PSCENC =      2652.81237852
  Ewald energy   TEWEN  =    -41704.33168214
  -Hartree energ DENC   =    -25901.26647094
  -exchange      EXHF   =         0.00000000
  -V(xc)+E(xc)   XCENC  =      3606.52359538
  PAW double counting   =     55594.23204139   -59034.67079123
  entropy T*S    EENTRO =        -0.03206860
  eigenvalues    EBANDS =     -9897.15424480
  atomic energy  EATOM  =     73862.19814772
  Solvation  Ediel_sol  =         0.00000000
  ---------------------------------------------------
  free energy    TOTEN  =      -821.68909470 eV

  energy without entropy =     -821.65702610  energy(sigma->0) =     -821.67306040


--------------------------------------------------------------------------------------------------------




--------------------------------------- Iteration      1(   3)  ---------------------------------------


    EDDIAG:  cpu time    3.6570: real time    3.6650
  RMM-DIIS:  cpu time   10.3675: real time   10.3860
    ORTHCH:  cpu time    0.5941: real time    0.5981
       DOS:  cpu time    0.0010: real time    0.0010
    --------------------------------------------
      LOOP:  cpu time   14.6196: real time   14.6502

 eigenvalue-minimisations  :  7168
 total energy-change (2. order) : 0.2896156E+03  (-0.1559762E+04)
 number of electron     672.0000000 magnetization      48.0000000
 augmentation part      672.0000000 magnetization      48.0000000

 Free energy of the ion-electron system (eV)
  ---------------------------------------------------
  alpha Z        PSCENC =      2652.81237852
  Ewald energy   TEWEN  =    -41704.33168214
  -Hartree energ DENC   =    -25901.26647094
  -exchange      EXHF   =         0.00000000
  -V(xc)+E(xc)   XCENC  =      3606.52359538
  PAW double counting   =     55594.23204139   -59034.67079123
  entropy T*S    EENTRO =        -0.03742482
  eigenvalues    EBANDS =     -9607.53324679
  atomic energy  EATOM  =     73862.19814772
  Solvation  Ediel_sol  =         0.00000000
  ---------------------------------------------------
  free energy    TOTEN  =      -532.07345291 eV

  energy without entropy =     -532.03602809  energy(sigma->0) =     -532.05474050


--------------------------------------------------------------------------------------------------------




--------------------------------------- Iteration      1(   4)  ---------------------------------------


    EDDIAG:  cpu time    3.6420: real time    3.6512
  RMM-DIIS:  cpu time   10.3431: real time   10.3920
    ORTHCH:  cpu time    0.5947: real time    0.5994
       DOS:  cpu time    0.0008: real time    0.0008
    --------------------------------------------
      LOOP:  cpu time   14.5807: real time   14.6434

 eigenvalue-minimisations  :  7168
 total energy-change (2. order) :-0.5254388E+03  (-0.5057903E+03)
 number of electron     672.0000000 magnetization      48.0000000
 augmentation part      672.0000000 magnetization      48.0000000

 Free energy of the ion-electron system (eV)
  ---------------------------------------------------
  alpha Z        PSCENC =      2652.81237852
  Ewald energy   TEWEN  =    -41704.33168214
  -Hartree energ DENC   =    -25901.26647094
  -exchange      EXHF   =         0.00000000
  -V(xc)+E(xc)   XCENC  =      3606.52359538
  PAW double counting   =     55594.23204139   -59034.67079123
  entropy T*S    EENTRO =        -0.00000413
  eigenvalues    EBANDS =    -10133.00947438
  atomic energy  EATOM  =     73862.19814772
  Solvation  Ediel_sol  =         0.00000000
  ---------------------------------------------------
  free energy    TOTEN  =     -1057.51225981 eV

  energy without entropy =    -1057.51225568  energy(sigma->0) =    -1057.51225774


--------------------------------------------------------------------------------------------------------




--------------------------------------- Iteration      1(   5)  ---------------------------------------


    EDDIAG:  cpu time    3.7191: real time    3.7271
  RMM-DIIS:  cpu time   10.3714: real time   10.3915
    ORTHCH:  cpu time    0.5982: real time    0.6018
       DOS:  cpu time    0.0007: real time    0.0007
    --------------------------------------------
      LOOP:  cpu time   14.6894: real time   14.7212

 eigenvalue-minimisations  :  7168
 total energy-change (2. order) :-0.1475810E+03  (-0.2124890E+03)
 number of electron     672.0000000 magnetization      48.0000000
 augmentation part      672.0000000 magnetization      48.0000000

 Free energy of the ion-electron system (eV)
  ---------------------------------------------------
  alpha Z        PSCENC =      2652.81237852
  Ewald energy   TEWEN  =    -41704.33168214
  -Hartree energ DENC   =    -25901.26647094
  -exchange      EXHF   =         0.00000000
  -V(xc)+E(xc)   XCENC  =      3606.52359538
  PAW double counting   =     55594.23204139   -59034.67079123
  entropy T*S    EENTRO =        -0.00000000
  eigenvalues    EBANDS =    -10280.59044505
  atomic energy  EATOM  =     73862.19814772
  Solvation  Ediel_sol  =         0.00000000
  ---------------------------------------------------
  free energy    TOTEN  =     -1205.09322635 eV

  energy without entropy =    -1205.09322635  energy(sigma->0) =    -1205.09322635


--------------------------------------------------------------------------------------------------------




--------------------------------------- Iteration      1(   6)  ---------------------------------------


    EDDIAG:  cpu time    3.6465: real time    3.6566
  RMM-DIIS:  cpu time   10.3648: real time   10.4068
    ORTHCH:  cpu time    0.5935: real time    0.5975
       DOS:  cpu time    0.0006: real time    0.0006
    --------------------------------------------
      LOOP:  cpu time   14.6054: real time   14.6615

 eigenvalue-minimisations  :  7168
 total energy-change (2. order) :-0.2164391E+02  (-0.1150077E+03)
 number of electron     672.0000000 magnetization      48.0000000
 augmentation part      672.0000000 magnetization      48.0000000

 Free energy of the ion-electron system (eV)
  ---------------------------------------------------
  alpha Z        PSCENC =      2652.81237852
  Ewald energy   TEWEN  =    -41704.33168214
  -Hartree energ DENC   =    -25901.26647094
  -exchange      EXHF   =         0.00000000
  -V(xc)+E(xc)   XCENC  =      3606.52359538
  PAW double counting   =     55594.23204139   -59034.67079123
  entropy T*S    EENTRO =        -0.00000000
  eigenvalues    EBANDS =    -10302.23435045
  atomic energy  EATOM  =     73862.19814772
  Solvation  Ediel_sol  =         0.00000000
  ---------------------------------------------------
  free energy    TOTEN  =     -1226.73713175 eV

  energy without entropy =    -1226.73713175  energy(sigma->0) =    -1226.73713175


--------------------------------------------------------------------------------------------------------




--------------------------------------- Iteration      1(   7)  ---------------------------------------


    EDDIAG:  cpu time    3.6364: real time    3.6443
  RMM-DIIS:  cpu time   10.3639: real time   10.3810
    ORTHCH:  cpu time    0.5988: real time    0.6024
       DOS:  cpu time    0.0006: real time    0.0006
    --------------------------------------------
      LOOP:  cpu time   14.5997: real time   14.6283

 eigenvalue-minimisations  :  7168
 total energy-change (2. order) :-0.6576137E+01  (-0.7573178E+02)
 number of electron     672.0000000 magnetization      48.0000000
 augmentation part      672.0000000 magnetization      48.0000000

 Free energy of the ion-electron system (eV)
  ---------------------------------------------------
  alpha Z        PSCENC =      2652.81237852
  Ewald energy   TEWEN  =    -41704.33168214
  -Hartree energ DENC   =    -25901.26647094
  -exchange      EXHF   =         0.00000000
  -V(xc)+E(xc)   XCENC  =      3606.52359538
  PAW double counting   =     55594.23204139   -59034.67079123
  entropy T*S    EENTRO =        -0.00000000
  eigenvalues    EBANDS =    -10308.81048739
  atomic energy  EATOM  =     73862.19814772
  Solvation  Ediel_sol  =         0.00000000
  ---------------------------------------------------
  free energy    TOTEN  =     -1233.31326869 eV

  energy without entropy =    -1233.31326869  energy(sigma->0) =    -1233.31326869


--------------------------------------------------------------------------------------------------------




--------------------------------------- Iteration      1(   8)  ---------------------------------------


    EDDIAG:  cpu time    3.6387: real time    3.6455
  RMM-DIIS:  cpu time   10.3407: real time   10.3917
    ORTHCH:  cpu time    0.5953: real time    0.5994
       DOS:  cpu time    0.0006: real time    0.0006
    --------------------------------------------
      LOOP:  cpu time   14.5755: real time   14.6372

 eigenvalue-minimisations  :  7168
 total energy-change (2. order) : 0.4582172E+01  (-0.5235936E+02)
 number of electron     672.0000000 magnetization      48.0000000
 augmentation part      672.0000000 magnetization      48.0000000

 Free energy of the ion-electron system (eV)
  ---------------------------------------------------
  alpha Z        PSCENC =      2652.81237852
  Ewald energy   TEWEN  =    -41704.33168214
  -Hartree energ DENC   =    -25901.26647094
  -exchange      EXHF   =         0.00000000
  -V(xc)+E(xc)   XCENC  =      3606.52359538
  PAW double counting   =     55594.23204139   -59034.67079123
  entropy T*S    EENTRO =        -0.00000000
  eigenvalues    EBANDS =    -10304.22831584
  atomic energy  EATOM  =     73862.19814772
  Solvation  Ediel_sol  =         0.00000000
  ---------------------------------------------------
  free energy    TOTEN  =     -1228.73109714 eV

  energy without entropy =    -1228.73109714  energy(sigma->0) =    -1228.73109714


--------------------------------------------------------------------------------------------------------




--------------------------------------- Iteration      1(   9)  ---------------------------------------


    EDDIAG:  cpu time    3.6368: real time    3.6458
  RMM-DIIS:  cpu time   21.0390: real time   21.0930
    ORTHCH:  cpu time    0.5972: real time    0.6016
       DOS:  cpu time    0.0007: real time    0.0007
    --------------------------------------------
      LOOP:  cpu time   25.2736: real time   25.3411

 eigenvalue-minimisations  : 20233
 total energy-change (2. order) : 0.1791302E+02  (-0.2341657E+02)
 number of electron     672.0000000 magnetization      48.0000000
 augmentation part      672.0000000 magnetization      48.0000000

 Free energy of the ion-electron system (eV)
  ---------------------------------------------------
  alpha Z        PSCENC =      2652.81237852
  Ewald energy   TEWEN  =    -41704.33168214
  -Hartree energ DENC   =    -25901.26647094
  -exchange      EXHF   =         0.00000000
  -V(xc)+E(xc)   XCENC  =      3606.52359538
  PAW double counting   =     55594.23204139   -59034.67079123
  entropy T*S    EENTRO =        -0.00000000
  eigenvalues    EBANDS =    -10286.31530021
  atomic energy  EATOM  =     73862.19814772
  Solvation  Ediel_sol  =         0.00000000
  ---------------------------------------------------
  free energy    TOTEN  =     -1210.81808151 eV

  energy without entropy =    -1210.81808151  energy(sigma->0) =    -1210.81808151


--------------------------------------------------------------------------------------------------------




--------------------------------------- Iteration      1(  10)  ---------------------------------------


    EDDIAG:  cpu time    3.6471: real time    3.6568
  RMM-DIIS:  cpu time   21.4123: real time   21.4425
    ORTHCH:  cpu time    0.5941: real time    0.5979
       DOS:  cpu time    0.0008: real time    0.0008
    --------------------------------------------
      LOOP:  cpu time   25.6543: real time   25.6979

 eigenvalue-minimisations  : 20210
 total energy-change (2. order) :-0.3024505E+01  (-0.1023940E+01)
 number of electron     672.0000000 magnetization      48.0000000
 augmentation part      672.0000000 magnetization      48.0000000

 Free energy of the ion-electron system (eV)
  ---------------------------------------------------
  alpha Z        PSCENC =      2652.81237852
  Ewald energy   TEWEN  =    -41704.33168214
  -Hartree energ DENC   =    -25901.26647094
  -exchange      EXHF   =         0.00000000
  -V(xc)+E(xc)   XCENC  =      3606.52359538
  PAW double counting   =     55594.23204139   -59034.67079123
  entropy T*S    EENTRO =        -0.00000043
  eigenvalues    EBANDS =    -10289.33980501
  atomic energy  EATOM  =     73862.19814772
  Solvation  Ediel_sol  =         0.00000000
  ---------------------------------------------------
  free energy    TOTEN  =     -1213.84258673 eV

  energy without entropy =    -1213.84258631  energy(sigma->0) =    -1213.84258652


--------------------------------------------------------------------------------------------------------




--------------------------------------- Iteration      1(  11)  ---------------------------------------


    EDDIAG:  cpu time    3.6732: real time    3.6942
  RMM-DIIS:  cpu time   22.3500: real time   22.3841
    ORTHCH:  cpu time    0.5959: real time    0.5998
       DOS:  cpu time    0.0007: real time    0.0007
    --------------------------------------------
      LOOP:  cpu time   26.6199: real time   26.6788

 eigenvalue-minimisations  : 21698
 total energy-change (2. order) : 0.1021128E+00  (-0.9648553E-01)
 number of electron     672.0000000 magnetization      48.0000000
 augmentation part      672.0000000 magnetization      48.0000000

 Free energy of the ion-electron system (eV)
  ---------------------------------------------------
  alpha Z        PSCENC =      2652.81237852
  Ewald energy   TEWEN  =    -41704.33168214
  -Hartree energ DENC   =    -25901.26647094
  -exchange      EXHF   =         0.00000000
  -V(xc)+E(xc)   XCENC  =      3606.52359538
  PAW double counting   =     55594.23204139   -59034.67079123
  entropy T*S    EENTRO =        -0.00000035
  eigenvalues    EBANDS =    -10289.23769231
  atomic energy  EATOM  =     73862.19814772
  Solvation  Ediel_sol  =         0.00000000
  ---------------------------------------------------
  free energy    TOTEN  =     -1213.74047396 eV

  energy without entropy =    -1213.74047361  energy(sigma->0) =    -1213.74047378


--------------------------------------------------------------------------------------------------------




--------------------------------------- Iteration      1(  12)  ---------------------------------------


    EDDIAG:  cpu time    3.6549: real time    3.6635
  RMM-DIIS:  cpu time   23.8877: real time   23.9845
    ORTHCH:  cpu time    0.5947: real time    0.5994
       DOS:  cpu time    0.0008: real time    0.0008
    CHARGE:  cpu time    2.1443: real time    2.1474
    MIXING:  cpu time    0.0011: real time    0.0014
    --------------------------------------------
      LOOP:  cpu time   30.2834: real time   30.3969

 eigenvalue-minimisations  : 22813
 total energy-change (2. order) : 0.7087203E-02  (-0.6591608E-02)
 number of electron     671.9999665 magnetization      48.0000022
 augmentation part      239.1529735 magnetization      29.0566233

 Broyden mixing:
  rms(total) = 0.12658E+02    rms(broyden)= 0.12649E+02
  rms(prec ) = 0.14487E+02
  weight for this iteration     100.00

 Free energy of the ion-electron system (eV)
  ---------------------------------------------------
  alpha Z        PSCENC =      2652.81237852
  Ewald energy   TEWEN  =    -41704.33168214
  -Hartree energ DENC   =    -25901.26647094
  -exchange      EXHF   =         0.00000000
  -V(xc)+E(xc)   XCENC  =      3606.52359538
  PAW double counting   =     55594.23204139   -59034.67079123
  entropy T*S    EENTRO =        -0.00000032
  eigenvalues    EBANDS =    -10289.23060514
  atomic energy  EATOM  =     73862.19814772
  Solvation  Ediel_sol  =         0.00000000
  ---------------------------------------------------
  free energy    TOTEN  =     -1213.73338675 eV

  energy without entropy =    -1213.73338643  energy(sigma->0) =    -1213.73338659


--------------------------------------------------------------------------------------------------------




--------------------------------------- Iteration      1(  13)  ---------------------------------------


    POTLOK:  cpu time    0.0614: real time    0.0630
    SETDIJ:  cpu time    2.6990: real time    2.7005
    EDDIAG:  cpu time    3.6712: real time    3.6914
  RMM-DIIS:  cpu time   19.0094: real time   19.0395
    ORTHCH:  cpu time    0.5993: real time    0.6030
       DOS:  cpu time    0.0008: real time    0.0008
    CHARGE:  cpu time    2.1471: real time    2.1502
    MIXING:  cpu time    0.0008: real time    0.0011
    --------------------------------------------
      LOOP:  cpu time   28.1891: real time   28.2495

 eigenvalue-minimisations  : 17303
 total energy-change (2. order) : 0.2251452E+03  (-0.1373897E+03)
 number of electron     671.9999839 magnetization      48.0000020
 augmentation part      268.5728995 magnetization      26.8749183

 Broyden mixing:
  rms(total) = 0.13793E+02    rms(broyden)= 0.13790E+02
  rms(prec ) = 0.15448E+02
  weight for this iteration     100.00

 eigenvalues of (default mixing * dielectric matrix)
  average eigenvalue GAMMA=   0.3203
  0.3203

 Free energy of the ion-electron system (eV)
  ---------------------------------------------------
  alpha Z        PSCENC =      2652.81237852
  Ewald energy   TEWEN  =    -41704.33168214
  -Hartree energ DENC   =    -25237.59074980
  -exchange      EXHF   =         0.00000000
  -V(xc)+E(xc)   XCENC  =      3696.98458696
  PAW double counting   =     59979.94294796   -63405.43381390
  entropy T*S    EENTRO =        -0.08258431
  eigenvalues    EBANDS =    -10833.08738984
  atomic energy  EATOM  =     73862.19814772
  Solvation  Ediel_sol  =         0.00000000
  ---------------------------------------------------
  free energy    TOTEN  =      -988.58815882 eV

  energy without entropy =     -988.50557452  energy(sigma->0) =     -988.54686667


--------------------------------------------------------------------------------------------------------




--------------------------------------- Iteration      1(  14)  ---------------------------------------


    POTLOK:  cpu time    0.0608: real time    0.0610
    SETDIJ:  cpu time    2.6974: real time    2.6989
    EDDIAG:  cpu time    3.6598: real time    3.6669
  RMM-DIIS:  cpu time   18.6909: real time   18.7353
    ORTHCH:  cpu time    0.5969: real time    0.6007
       DOS:  cpu time    0.0006: real time    0.0006
    CHARGE:  cpu time    2.1320: real time    2.1367
    MIXING:  cpu time    0.0008: real time    0.0008
    --------------------------------------------
      LOOP:  cpu time   27.8392: real time   27.9008

 eigenvalue-minimisations  : 17775
 total energy-change (2. order) : 0.7369036E+02  (-0.1837564E+02)
 number of electron     671.9999731 magnetization      48.0000034
 augmentation part      246.7559661 magnetization      32.2385683

 Broyden mixing:
  rms(total) = 0.52997E+01    rms(broyden)= 0.52956E+01
  rms(prec ) = 0.56910E+01
  weight for this iteration     100.00

 eigenvalues of (default mixing * dielectric matrix)
  average eigenvalue GAMMA=   0.7347
  1.1079  0.3615

 Free energy of the ion-electron system (eV)
  ---------------------------------------------------
  alpha Z        PSCENC =      2652.81237852
  Ewald energy   TEWEN  =    -41704.33168214
  -Hartree energ DENC   =    -25846.66509182
  -exchange      EXHF   =         0.00000000
  -V(xc)+E(xc)   XCENC  =      3675.42929552
  PAW double counting   =     63430.66855921   -66913.41139875
  entropy T*S    EENTRO =        -0.00000000
  eigenvalues    EBANDS =    -10071.59800862
  atomic energy  EATOM  =     73862.19814772
  Solvation  Ediel_sol  =         0.00000000
  ---------------------------------------------------
  free energy    TOTEN  =      -914.89780036 eV

  energy without entropy =     -914.89780036  energy(sigma->0) =     -914.89780036


--------------------------------------------------------------------------------------------------------




--------------------------------------- Iteration      1(  15)  ---------------------------------------


    POTLOK:  cpu time    0.0608: real time    0.0610
    SETDIJ:  cpu time    2.6983: real time    2.6999
    EDDIAG:  cpu time    3.6587: real time    3.6656
  RMM-DIIS:  cpu time   19.5882: real time   19.6344
    ORTHCH:  cpu time    0.6007: real time    0.6046
       DOS:  cpu time    0.0006: real time    0.0006
    CHARGE:  cpu time    2.1331: real time    2.1360
    MIXING:  cpu time    0.0009: real time    0.0009
    --------------------------------------------
      LOOP:  cpu time   28.7414: real time   28.8031

 eigenvalue-minimisations  : 18451
 total energy-change (2. order) : 0.1320420E+02  (-0.1849629E+01)
 number of electron     671.9999746 magnetization      48.0000047
 augmentation part      249.6667639 magnetization      33.7914717

 Broyden mixing:
  rms(total) = 0.21238E+01    rms(broyden)= 0.21236E+01
  rms(prec ) = 0.22045E+01
  weight for this iteration     100.00

 eigenvalues of (default mixing * dielectric matrix)
  average eigenvalue GAMMA=   0.9732
  0.3890  0.7623  1.7683

 Free energy of the ion-electron system (eV)
  ---------------------------------------------------
  alpha Z        PSCENC =      2652.81237852
  Ewald energy   TEWEN  =    -41704.33168214
  -Hartree energ DENC   =    -25773.64364546
  -exchange      EXHF   =         0.00000000
  -V(xc)+E(xc)   XCENC  =      3707.50672079
  PAW double counting   =     67583.72928473   -71107.00945572
  entropy T*S    EENTRO =        -0.00000000
  eigenvalues    EBANDS =    -10122.95534634
  atomic energy  EATOM  =     73862.19814772
  Solvation  Ediel_sol  =         0.00000000
  ---------------------------------------------------
  free energy    TOTEN  =      -901.69359790 eV

  energy without entropy =     -901.69359790  energy(sigma->0) =     -901.69359790


--------------------------------------------------------------------------------------------------------




--------------------------------------- Iteration      1(  16)  ---------------------------------------


    POTLOK:  cpu time    0.0602: real time    0.0618
    SETDIJ:  cpu time    2.7276: real time    2.7302
    EDDIAG:  cpu time    3.6459: real time    3.6540
  RMM-DIIS:  cpu time   18.8385: real time   18.9039
    ORTHCH:  cpu time    0.5966: real time    0.6004
       DOS:  cpu time    0.0006: real time    0.0006
    CHARGE:  cpu time    2.1365: real time    2.1395
    MIXING:  cpu time    0.0010: real time    0.0010
    --------------------------------------------
      LOOP:  cpu time   28.0071: real time   28.0915

 eigenvalue-minimisations  : 17288
 total energy-change (2. order) :-0.1588915E+01  (-0.7063104E+00)
 number of electron     671.9999759 magnetization      48.0000052
 augmentation part      251.2496973 magnetization      33.8713132

 Broyden mixing:
  rms(total) = 0.13552E+01    rms(broyden)= 0.13546E+01
  rms(prec ) = 0.14483E+01
  weight for this iteration     100.00

 eigenvalues of (default mixing * dielectric matrix)
  average eigenvalue GAMMA=   0.9824
  2.0895  0.9059  0.3967  0.5376

 Free energy of the ion-electron system (eV)
  ---------------------------------------------------
  alpha Z        PSCENC =      2652.81237852
  Ewald energy   TEWEN  =    -41704.33168214
  -Hartree energ DENC   =    -25721.85121438
  -exchange      EXHF   =         0.00000000
  -V(xc)+E(xc)   XCENC  =      3709.04967356
  PAW double counting   =     70672.55887823   -74226.55960570
  entropy T*S    EENTRO =        -0.00000000
  eigenvalues    EBANDS =    -10147.15908822
  atomic energy  EATOM  =     73862.19814772
  Solvation  Ediel_sol  =         0.00000000
  ---------------------------------------------------
  free energy    TOTEN  =      -903.28251241 eV

  energy without entropy =     -903.28251241  energy(sigma->0) =     -903.28251241


--------------------------------------------------------------------------------------------------------




--------------------------------------- Iteration      1(  17)  ---------------------------------------


    POTLOK:  cpu time    0.0612: real time    0.0634
    SETDIJ:  cpu time    2.7326: real time    2.7351
    EDDIAG:  cpu time    3.6504: real time    3.6582
  RMM-DIIS:  cpu time   20.1676: real time   20.2273
    ORTHCH:  cpu time    0.5980: real time    0.6019
       DOS:  cpu time    0.0007: real time    0.0007
    CHARGE:  cpu time    2.1354: real time    2.1383
    MIXING:  cpu time    0.0012: real time    0.0012
    --------------------------------------------
      LOOP:  cpu time   29.3471: real time   29.4261

 eigenvalue-minimisations  : 18823
 total energy-change (2. order) : 0.2193567E+00  (-0.5440567E-01)
 number of electron     671.9999756 magnetization      48.0000057
 augmentation part      251.0818583 magnetization      33.8594549

 Broyden mixing:
  rms(total) = 0.72886E+00    rms(broyden)= 0.72878E+00
  rms(prec ) = 0.81784E+00
  weight for this iteration     100.00

 eigenvalues of (default mixing * dielectric matrix)
  average eigenvalue GAMMA=   1.0180
  2.2601  1.1551  0.3872  0.7123  0.5752

 Free energy of the ion-electron system (eV)
  ---------------------------------------------------
  alpha Z        PSCENC =      2652.81237852
  Ewald energy   TEWEN  =    -41704.33168214
  -Hartree energ DENC   =    -25715.83006954
  -exchange      EXHF   =         0.00000000
  -V(xc)+E(xc)   XCENC  =      3705.76439604
  PAW double counting   =     71434.72135324   -74996.09965644
  entropy T*S    EENTRO =        -0.00000000
  eigenvalues    EBANDS =    -10142.29802311
  atomic energy  EATOM  =     73862.19814772
  Solvation  Ediel_sol  =         0.00000000
  ---------------------------------------------------
  free energy    TOTEN  =      -903.06315569 eV

  energy without entropy =     -903.06315569  energy(sigma->0) =     -903.06315569


--------------------------------------------------------------------------------------------------------




--------------------------------------- Iteration      1(  18)  ---------------------------------------


    POTLOK:  cpu time    0.0608: real time    0.0610
    SETDIJ:  cpu time    2.7136: real time    2.7198
    EDDIAG:  cpu time    3.6459: real time    3.6561
  RMM-DIIS:  cpu time   19.1601: real time   19.2634
    ORTHCH:  cpu time    0.5955: real time    0.5995
       DOS:  cpu time    0.0006: real time    0.0006
    CHARGE:  cpu time    2.1455: real time    2.1485
    MIXING:  cpu time    0.0010: real time    0.0010
    --------------------------------------------
      LOOP:  cpu time   28.3230: real time   28.4499

 eigenvalue-minimisations  : 17512
 total energy-change (2. order) : 0.3600868E+00  (-0.7145293E-01)
 number of electron     671.9999752 magnetization      48.0000058
 augmentation part      250.5926281 magnetization      33.8218933

 Broyden mixing:
  rms(total) = 0.24809E+00    rms(broyden)= 0.24776E+00
  rms(prec ) = 0.25945E+00
  weight for this iteration     100.00

 eigenvalues of (default mixing * dielectric matrix)
  average eigenvalue GAMMA=   1.0257
  2.4830  1.3630  0.8471  0.3885  0.5874  0.4849

[...]
   4      -0.903    -0.563     1.466     0.039     0.007    -0.021
   5      -0.606    -0.984     1.590    -0.184     0.081     0.111
   6      -0.978    -0.882     1.860    -0.183    -0.055     0.042
   7      -0.703    -0.808     1.511     0.189     0.015    -0.027
   8      -0.706    -1.084     1.790    -0.093    -0.007     0.051
   9      -0.910    -0.531     1.442    -0.028     0.048    -0.029
  10      -0.567    -0.660     1.227     0.170    -0.014    -0.100
  11      -0.702    -0.897     1.600     0.226     0.066    -0.070
  12      -0.886    -0.933     1.819    -0.204    -0.095    -0.020
  13      -1.064    -0.588     1.652     0.057     0.046     0.064
  14      -0.858    -0.985     1.843    -0.126    -0.005    -0.174
  15      -0.837    -1.087     1.923    -0.021    -0.085    -0.037
  16      -0.803    -0.503     1.305    -0.011    -0.034     0.029
  17       1.212     1.748    -2.960    -0.038    -0.030     0.100
  18       1.416     1.474    -2.890    -0.010     0.151    -0.017
  19       1.768     1.340    -3.108     0.008     0.115    -0.207
  20       1.701     1.216    -2.917     0.007    -0.126    -0.015
  21       1.328     1.555    -2.883    -0.207    -0.104     0.072
  22       1.495     1.514    -3.009    -0.162    -0.028    -0.116
  23       1.384     1.503    -2.887     0.129     0.235    -0.019
  24       1.559     1.394    -2.953     0.059    -0.011     0.027
  25       0.470    -0.656     0.186    -0.648     1.445    -0.540
  26       0.517    -1.466     0.949     0.228    -0.157     0.248
  27      -0.201     0.586    -0.386     0.067     0.617     0.257
  28      -1.017    -0.790     1.806     0.022    -0.231    -0.895
  29       0.564    -2.358     1.794     0.348    -0.687     0.003
  30       0.096    -0.730     0.634    -1.103    -0.045    -0.100
  31       0.528     1.271    -1.800     0.148     1.527    -0.575
  32       1.496    -1.650     0.154     0.408    -0.366     0.405
  33       1.179     0.116    -1.295    -0.078     0.790     0.074
  34       1.518    -1.908     0.390     1.200     0.600    -0.719
  35      -0.963    -1.462     2.425    -0.888    -0.618    -0.432
  36      -0.711    -0.295     1.006    -1.261     0.449    -1.343
  37      -0.002    -0.760     0.761     0.151     0.667    -0.468
  38       0.445    -1.541     1.096     0.053     1.946    -0.516
  39       0.600    -1.804     1.205    -0.226     0.105    -0.102
  40       0.755    -0.761     0.006    -0.596    -0.373    -0.335
  41      -5.387     3.506     1.881    -4.387     3.935    -4.655
  42      -3.478     2.059     1.419     5.039     1.887     3.569
  43       6.508    -7.342     0.835     0.288    -4.990     0.425
  44      -4.242     3.021     1.221    -4.469    -2.863     5.349
  45       3.309    -5.254     1.945    -0.093     4.263     0.829
  46      -0.500     3.354    -2.854     6.696     0.105    -3.572
  47      -2.454     2.942    -0.488    -5.953     2.303    -3.740
  48       8.251    -5.745    -2.506    -2.303    -2.766     0.115
  49      -2.936     2.728     0.207     5.228     0.722     3.862
  50      -5.922     2.818     3.104    -4.412    -2.484     3.787
  51      -1.885     1.972    -0.087     4.878    -2.390    -4.560
  52       3.394    -6.097     2.703     0.415     5.983    -0.375
  53      -3.448     1.598     1.850    -4.378     0.552    -4.188
  54      -3.259     0.709     2.550     4.723     1.691     3.466
  55       4.139    -6.968     2.830    -0.560    -5.330     0.372
  56      -5.186     3.696     1.490    -4.070    -3.143     3.480
  57       5.393    -6.597     1.204     1.475     5.365     0.573
  58      -2.926     1.249     1.677     4.615    -3.755    -2.692
  59      -4.526     3.323     1.203    -2.926     2.882    -4.124
  60       5.540    -5.088    -0.452    -0.376    -4.740    -1.145
  61      -2.114     2.610    -0.495     4.303     2.526     3.356
  62      -2.999     3.672    -0.673    -5.190    -0.923     4.044
  63      -0.869     1.728    -0.858     4.724    -2.303    -3.159
  64       8.391    -7.105    -1.286     1.015     4.971     1.206
  65      -5.853     4.363     1.490    -3.733     3.210    -3.988
  66      -2.340     0.877     1.463     5.974     2.034     3.227
  67       5.256    -5.937     0.681     0.647    -4.012     0.133
  68      -2.063     0.022     2.041    -5.611    -1.969     4.807
  69       6.985    -6.401    -0.584    -1.054     3.959    -0.184
  70      -3.178     1.565     1.614     5.376    -1.825    -4.922
  71      -2.791     2.957    -0.166    -5.062     0.472    -4.510
  72       6.278    -5.392    -0.886    -1.290    -3.561    -1.002
  73      -1.297     1.408    -0.111     4.662     2.716     4.118
  74      -3.420     2.785     0.636    -4.916    -4.630     4.338
  75      -3.733     2.336     1.398     4.377    -3.179    -3.478
  76       4.015    -3.702    -0.313     0.508     4.445    -1.156
  77      -2.893     1.648     1.245    -5.112     4.409    -4.045
  78      -4.591     4.157     0.435     5.056     2.962     4.212
  79       7.910    -6.455    -1.456    -1.856    -3.228    -1.365
  80      -2.732     1.619     1.113    -3.963    -2.792     3.164
  81       7.411    -7.010    -0.400     2.244     5.299    -0.937
  82      -2.400     0.985     1.414     4.030    -2.302    -3.691
  83      -4.017     2.428     1.589    -4.127     3.149    -3.150
  84       5.734    -6.141     0.407     0.579    -5.149     1.327
  85      -3.350     2.888     0.462     4.014     1.476     3.735
  86      -2.012     2.388    -0.376    -5.394    -2.023     2.745
  87      -3.254     2.446     0.807     4.775    -3.575    -2.843
  88       4.676    -5.708     1.032    -0.729     5.040     1.718
 ---------------------------------------------------------------------


 Total hyperfine coupling parameters after diagonalization (MHz)
 (convention: |A_zz| > |A_xx| > |A_yy|)
 ----------------------------------------------------------------------
  ion      A_xx      A_yy      A_zz     asymmetry (A_yy - A_xx)/ A_zz 
 ----------------------------------------------------------------------
   1       0.588     0.214     3.076      -0.122
   2       2.231     1.868     4.183      -0.087
   3       0.794     0.229     3.238      -0.174
   4       2.114     1.766     4.140      -0.084
   5       1.656     1.122     3.784      -0.141
   6       0.222    -0.155     2.826      -0.133
   7       2.084     1.691     4.154      -0.095
   8       0.473     0.051     2.948      -0.143
   9       2.033     1.650     4.006      -0.096
  10       2.162     1.811     3.836      -0.092
  11       2.123     1.627     4.280      -0.116
  12       0.521     0.110     3.049      -0.135
  13       2.771     2.283     5.010      -0.097
  14       0.446     0.158     3.083      -0.093
  15      -0.372    -0.120     2.644       0.095
  16       2.691     2.390     4.500      -0.067
  17      15.068    10.896    15.611      -0.267
  18      14.250     9.935    14.306      -0.302
  19      16.024    11.554    16.444      -0.272
  20      13.986     9.849    14.475      -0.286
  21      14.206    10.114    14.681      -0.279
  22      14.695    10.338    15.018      -0.290
  23      13.674     9.462    13.950      -0.302
  24      14.096     9.767    14.298      -0.303
  25      95.894    95.678    98.851      -0.002
  26      99.773    97.744   100.277      -0.020
  27      94.406    93.263    94.918      -0.012
  28      96.040    95.940    99.143      -0.001
  29      96.481    93.785    98.291      -0.027
  30      96.650    94.513    96.876      -0.022
  31      97.745    93.908    97.997      -0.039
  32      95.786    93.792    97.215      -0.021
  33      94.331    92.682    95.624      -0.017
  34      97.197    94.094    98.624      -0.031
  35      97.128    95.189    99.989      -0.019
  36      99.083    97.524   101.676      -0.015
  37      96.984    96.148    98.375      -0.008
  38      96.521    95.689   100.265      -0.008
  39      98.516    96.088    99.145      -0.024
  40      93.039    91.786    93.950      -0.013
  41       7.470     1.807    19.214      -0.295
  42       6.451     1.171    15.287      -0.345
  43       5.638     0.266    17.069      -0.315
  44       2.639    -0.579    15.365      -0.209
  45       4.343     0.505    12.867      -0.298
  46       9.768     4.965    20.967      -0.229
  47       7.451     3.710    18.849      -0.198
  48       5.053     2.020    17.430      -0.174
  49       6.151     1.073    15.149      -0.335
  50       5.773    -1.481    14.772      -0.491
  51       6.638     4.370    18.082      -0.125
  52       3.645     0.301    15.536      -0.215
  53       6.902     1.298    14.791      -0.379
  54       7.406     1.627    15.143      -0.382
  55       8.729     3.615    19.495      -0.262
  56       4.607    -1.498    13.878      -0.440
  57       4.940     0.595    16.580      -0.262
  58       5.198    -0.009    13.863      -0.376
  59       4.004     0.025    13.813      -0.288
  60       5.069     1.951    15.743      -0.198
  61       3.277     1.157    13.281      -0.160
  62       3.950    -0.023    14.412      -0.276
  63       4.130     2.402    14.096      -0.123
  64       6.498     2.409    20.356      -0.201
  65       5.856    -0.387    15.943      -0.392
  66       7.323     1.204    15.892      -0.385
  67       5.123     0.728    14.333      -0.307
  68       4.685    -0.909    14.716      -0.380
  69       8.440     4.215    19.451      -0.217
  70       7.299     2.283    17.954      -0.279
  71       5.646     0.805    15.302      -0.316
  72       4.825     0.637    14.427      -0.290
  73       3.137     1.386    14.154      -0.124
  74       4.205    -0.055    16.547      -0.257
  75       4.372    -0.299    13.857      -0.337
  76       6.614     4.041    15.525      -0.166
  77       4.481     0.406    16.311      -0.250
  78       5.856     1.091    17.510      -0.272
  79       5.351    -0.177    16.144      -0.342
  80       3.824     0.329    12.486      -0.280
  81       6.364     0.872    18.971      -0.289
  82       4.643     1.509    13.622      -0.230
  83       6.662     1.452    15.329      -0.340
  84       3.632    -0.829    14.707      -0.303
  85       5.638     2.187    14.749      -0.234
  86       4.655     0.859    13.992      -0.271
  87       6.229     1.090    15.365      -0.334
  88       5.393     0.531    15.298      -0.318
 ---------------------------------------------------------------------



--------------------------------------------------------------------------------------------------------


 stress matrix after NEB project (eV)
    -43.76668      0.11674      2.18995
      0.12017    -40.89624      0.98276
      2.19585      0.96244    -55.70654
  FORCES: max atom, RMS     2.907470    1.091701
  FORCE total and by dimension   10.241064    2.485111
  Stress total and by dimension   81.870514   55.706539
     LOOP+:  cpu time  702.9645: real time  704.9480
    4ORBIT:  cpu time    0.0000: real time    0.0000
 


 total charge     
 
# of ion       s       p       d       tot
------------------------------------------
    1        0.052   5.996   0.000   6.047
    2        0.046   5.988   0.000   6.035
    3        0.054   5.999   0.000   6.053
    4        0.047   5.988   0.000   6.036
    5        0.050   5.992   0.000   6.042
    6        0.050   5.994   0.000   6.045
    7        0.049   5.990   0.000   6.039
    8        0.046   5.989   0.000   6.035
    9        0.052   5.995   0.000   6.047
   10        0.050   5.992   0.000   6.042
   11        0.054   5.997   0.000   6.051
   12        0.049   5.992   0.000   6.041
   13        0.053   5.995   0.000   6.048
   14        0.047   5.990   0.000   6.037
   15        0.052   5.996   0.000   6.049
   16        0.050   5.992   0.000   6.042
   17        0.147   6.124   0.081   6.352
   18        0.146   6.123   0.081   6.350
   19        0.154   6.138   0.092   6.384
   20        0.150   6.129   0.085   6.364
   21        0.142   6.117   0.075   6.334
   22        0.154   6.137   0.091   6.381
   23        0.143   6.119   0.077   6.339
   24        0.151   6.131   0.087   6.369
   25        0.386   6.481   4.860  11.726
   26        0.378   6.457   4.845  11.681
   27        0.378   6.460   4.842  11.679
   28        0.371   6.445   4.821  11.637
   29        0.386   6.478   4.854  11.717
   30        0.394   6.495   4.873  11.762
   31        0.366   6.433   4.813  11.611
   32        0.380   6.462   4.839  11.680
   33        0.385   6.473   4.853  11.711
   34        0.373   6.446   4.825  11.643
   35        0.378   6.460   4.827  11.665
   36        0.375   6.454   4.836  11.666
   37        0.375   6.456   4.827  11.659
   38        0.378   6.456   4.837  11.671
   39        0.375   6.455   4.828  11.658
   40        0.383   6.470   4.848  11.701
   41        1.600   3.508   0.000   5.108
   42        1.597   3.516   0.000   5.114
   43        1.601   3.512   0.000   5.113
   44        1.602   3.489   0.000   5.090
   45        1.599   3.532   0.000   5.132
   46        1.600   3.482   0.000   5.082
   47        1.602   3.513   0.000   5.115
   48        1.601   3.508   0.000   5.109
   49        1.598   3.515   0.000   5.113
   50        1.599   3.496   0.000   5.095
   51        1.598   3.493   0.000   5.091
   52        1.599   3.493   0.000   5.091
   53        1.598   3.533   0.000   5.131
   54        1.599   3.532   0.000   5.130
   55        1.605   3.543   0.000   5.148
   56        1.598   3.498   0.000   5.096
   57        1.600   3.534   0.000   5.134
   58        1.596   3.495   0.000   5.091
   59        1.597   3.484   0.000   5.081
   60        1.600   3.494   0.000   5.094
   61        1.601   3.517   0.000   5.119
   62        1.599   3.485   0.000   5.084
   63        1.596   3.500   0.000   5.096
   64        1.603   3.497   0.000   5.100
   65        1.599   3.472   0.000   5.070
   66        1.598   3.530   0.000   5.129
   67        1.594   3.495   0.000   5.090
   68        1.599   3.499   0.000   5.097
   69        1.603   3.527   0.000   5.130
   70        1.600   3.527   0.000   5.127
   71        1.600   3.484   0.000   5.084
   72        1.599   3.522   0.000   5.121
   73        1.597   3.469   0.000   5.066
   74        1.600   3.484   0.000   5.084
   75        1.598   3.513   0.000   5.111
   76        1.599   3.521   0.000   5.121
   77        1.600   3.511   0.000   5.111
   78        1.600   3.507   0.000   5.107
   79        1.601   3.522   0.000   5.123
   80        1.596   3.508   0.000   5.104
   81        1.601   3.499   0.000   5.100
   82        1.597   3.523   0.000   5.120
   83        1.598   3.536   0.000   5.134
   84        1.598   3.505   0.000   5.102
   85        1.595   3.508   0.000   5.103
   86        1.598   3.516   0.000   5.113
   87        1.598   3.504   0.000   5.102
   88        1.600   3.520   0.000   5.120
--------------------------------------------------
tot         84.804 416.655  78.096 579.555
 


 magnetization (x)
 
# of ion       s       p       d       tot
------------------------------------------
    1        0.001   0.000   0.000   0.001
    2        0.002   0.000   0.000   0.002
    3        0.001   0.000   0.000   0.001
    4        0.002   0.000   0.000   0.002
    5        0.002   0.000   0.000   0.002
    6        0.001   0.000   0.000   0.001
    7        0.002   0.000   0.000   0.002
    8        0.001   0.000   0.000   0.001
    9        0.002   0.000   0.000   0.002
   10        0.002   0.000   0.000   0.002
   11        0.002  -0.000   0.000   0.002
   12        0.001   0.000   0.000   0.001
   13        0.002   0.000   0.000   0.003
   14        0.001   0.000   0.000   0.001
   15        0.001   0.000   0.000   0.001
   16        0.002   0.000   0.000   0.003
   17        0.008   0.002   0.001   0.011
   18        0.007   0.002   0.001   0.010
   19        0.008   0.003   0.002   0.013
   20        0.007   0.002   0.001   0.011
   21        0.008   0.002   0.001   0.011
   22        0.007   0.002   0.001   0.011
   23        0.007   0.002   0.001   0.010
   24        0.007   0.002   0.001   0.010
   25        0.015   0.031   2.729   2.775
   26        0.016   0.032   2.740   2.788
   27        0.014   0.029   2.741   2.785
   28        0.016   0.030   2.760   2.805
   29        0.015   0.032   2.732   2.779
   30        0.015   0.031   2.719   2.765
   31        0.015   0.029   2.769   2.813
   32        0.015   0.031   2.746   2.792
   33        0.014   0.030   2.733   2.778
   34        0.015   0.030   2.765   2.810
   35        0.016   0.030   2.755   2.802
   36        0.016   0.030   2.757   2.803
   37        0.016   0.030   2.761   2.807
   38        0.015   0.030   2.754   2.799
   39        0.016   0.031   2.759   2.806
   40        0.014   0.029   2.735   2.778
   41        0.002   0.043   0.000   0.045
   42        0.002   0.036   0.000   0.038
   43        0.002   0.045   0.000   0.047
   44        0.002   0.015   0.000   0.017
   45        0.002   0.025   0.000   0.026
   46        0.003   0.060   0.000   0.063
   47        0.002   0.053   0.000   0.055
   48        0.002   0.034   0.000   0.036
   49        0.002   0.034   0.000   0.036
   50        0.002   0.034   0.000   0.036
   51        0.003   0.046   0.000   0.049
   52        0.002   0.029   0.000   0.031
   53        0.002   0.043   0.000   0.045
   54        0.002   0.053   0.000   0.054
   55        0.003   0.064   0.000   0.066
   56        0.002   0.023   0.000   0.025
   57        0.002   0.040   0.000   0.042
   58        0.002   0.027   0.000   0.029
   59        0.002   0.017   0.000   0.019
   60        0.002   0.033   0.000   0.035
   61        0.002   0.016   0.000   0.017
   62        0.002   0.014   0.000   0.016
   63        0.002   0.028   0.000   0.030
   64        0.003   0.049   0.000   0.052
   65        0.002   0.026   0.000   0.028
   66        0.002   0.048   0.000   0.050
   67        0.002   0.028   0.000   0.029
   68        0.002   0.026   0.000   0.027
   69        0.002   0.067   0.000   0.069
   70        0.002   0.050   0.000   0.053
   71        0.002   0.026   0.000   0.028
   72        0.002   0.030   0.000   0.032
   73        0.002   0.017   0.000   0.019
   74        0.002   0.024   0.000   0.026
   75        0.002   0.017   0.000   0.019
   76        0.002   0.036   0.000   0.039
   77        0.002   0.035   0.000   0.036
   78        0.002   0.042   0.000   0.044
   79        0.002   0.043   0.000   0.045
   80        0.002   0.020   0.000   0.022
   81        0.002   0.047   0.000   0.049
   82        0.002   0.027   0.000   0.029
   83        0.002   0.039   0.000   0.041
   84        0.002   0.020   0.000   0.021
   85        0.002   0.037   0.000   0.039
   86        0.002   0.026   0.000   0.028
   87        0.002   0.039   0.000   0.041
   88        0.002   0.034   0.000   0.036
--------------------------------------------------
tot          0.422   2.171  43.964  46.557
 

 total amount of memory used by VASP MPI-rank0   104122. kBytes
=======================================================================

   base      :      30000. kBytes
   nonlr-proj:      13680. kBytes
   fftplans  :       1316. kBytes
   grid      :      22786. kBytes
   one-center:       2737. kBytes
   wavefun   :      33603. kBytes
 
  
  
 General timing and accounting informations for this job:
 ========================================================
  
                  Total CPU time used (sec):      716.413
                            User time (sec):      712.138
                          System time (sec):        4.275
                         Elapsed time (sec):      719.522
  
                   Maximum memory used (kb):      199316.
                   Average memory used (kb):           0.
  
                          Minor page faults:       278169
                          Major page faults:            0
                 Voluntary context switches:         4679
