 vasp.5.4.4.18Apr17-6-g9f103f2a35 (build Dec 02 2020 12:53:39) complex          
  
 executed on             LinuxIFC date 2021.08.03  18:04:40
 running on   96 total cores
 distrk:  each k-point on   96 cores,    1 groups
 distr:  one band on NCORES_PER_BAND=   1 cores,   96 groups


--------------------------------------------------------------------------------------------------------


 INCAR:
 POTCAR:    PAW_PBE Na_pv 19Sep2006               
 POTCAR:    PAW_PBE Mg_pv 13Apr2007               
 POTCAR:    PAW_PBE Mn_pv 02Aug2007               
 POTCAR:    PAW_PBE O 08Apr2002                   

 ----------------------------------------------------------------------------- 
|                                                                             |
|           W    W    AA    RRRRR   N    N  II  N    N   GGGG   !!!           |
|           W    W   A  A   R    R  NN   N  II  NN   N  G    G  !!!           |
|           W    W  A    A  R    R  N N  N  II  N N  N  G       !!!           |
|           W WW W  AAAAAA  RRRRR   N  N N  II  N  N N  G  GGG   !            |
|           WW  WW  A    A  R   R   N   NN  II  N   NN  G    G                |
|           W    W  A    A  R    R  N    N  II  N    N   GGGG   !!!           |
|                                                                             |
|      For optimal performance we recommend to set                            |
|        NCORE= 4 - approx SQRT( number of cores)                             |
|      NCORE specifies how many cores store one orbital (NPAR=cpu/NCORE).     |
|      This setting can  greatly improve the performance of VASP for DFT.     |
|      The default,   NCORE=1            might be grossly inefficient         |
|      on modern multi-core architectures or massively parallel machines.     |
|      Do your own testing !!!!                                               |
|      Unfortunately you need to use the default for GW and RPA calculations. |
|      (for HF NCORE is supported but not extensively tested yet)             |
|                                                                             |
 ----------------------------------------------------------------------------- 

 POTCAR:    PAW_PBE Na_pv 19Sep2006               
   VRHFIN =Na: p6s1                                                             
   LEXCH  = PE                                                                  
   EATOM  =   766.0439 eV,   56.3026 Ry                                         
                                                                                
   TITEL  = PAW_PBE Na_pv 19Sep2006                                             
   LULTRA =        F    use ultrasoft PP ?                                      
   IUNSCR =        1    unscreen: 0-lin 1-nonlin 2-no                           
   RPACOR =    1.800    partial core radius                                     
   POMASS =   22.990; ZVAL   =    7.000    mass and valenz                      
   RCORE  =    2.200    outmost cutoff radius                                   
   RWIGS  =    2.200; RWIGS  =    1.164    wigner-seitz radius (au A)           
   ENMAX  =  259.561; ENMIN  =  194.671 eV                                      
   ICORE  =        2    local potential                                         
   LCOR   =        T    correct aug charges                                     
   LPAW   =        T    paw PP                                                  
   EAUG   =  368.056                                                            
   DEXC   =    0.000                                                            
   RMAX   =    2.245    core radius for proj-oper                               
   RAUG   =    1.300    factor for augmentation sphere                          
   RDEP   =    2.259    radius for radial grids                                 
   RDEPT  =    1.738    core radius for aug-charge                              
                                                                                
   Atomic configuration                                                         
    5 entries                                                                   
     n  l   j            E        occ.                                          
     1  0  0.50     -1033.6933   2.0000                                         
     2  0  0.50       -56.7526   2.0000                                         
     2  1  1.50       -28.6721   6.0000                                         
     3  0  0.50        -2.7440   1.0000                                         
     3  2  1.50        -1.3606   0.0000                                         
   Description                                                                  
     l       E           TYP  RCUT    TYP  RCUT                                 
     1    -28.6720912     23  2.000                                             
     1      6.8029130     23  2.000                                             
     0     -2.7439560     23  2.200                                             
     0     34.0145650     23  2.200                                             
     2     -1.3605826     23  2.200                                             
  local pseudopotential read in
  partial core-charges read in
  partial kinetic energy density read in
  atomic valenz-charges read in
  non local Contribution for L=           1  read in
    real space projection operators read in
  non local Contribution for L=           1  read in
    real space projection operators read in
  non local Contribution for L=           0  read in
    real space projection operators read in
  non local Contribution for L=           0  read in
    real space projection operators read in
    PAW grid and wavefunctions read in
 
   number of l-projection  operators is LMAX  =           4
   number of lm-projection operators is LMMAX =           8
 
 POTCAR:    PAW_PBE Mg_pv 13Apr2007               
   VRHFIN =Mg: p6s2                                                             
   LEXCH  = PE                                                                  
   EATOM  =  1056.7344 eV,   77.6678 Ry                                         
                                                                                
   TITEL  = PAW_PBE Mg_pv 13Apr2007                                             
   LULTRA =        F    use ultrasoft PP ?                                      
   IUNSCR =        1    unscreen: 0-lin 1-nonlin 2-no                           
   RPACOR =    1.500    partial core radius                                     
   POMASS =   24.305; ZVAL   =    8.000    mass and valenz                      
   RCORE  =    2.000    outmost cutoff radius                                   
   RWIGS  =    2.000; RWIGS  =    1.058    wigner-seitz radius (au A)           
   ENMAX  =  403.929; ENMIN  =  302.947 eV                                      
   RCLOC  =    1.506    cutoff for local pot                                    
   LCOR   =        T    correct aug charges                                     
   LPAW   =        T    paw PP                                                  
   EAUG   =  758.780                                                            
   DEXC   =    0.000                                                            
   RMAX   =    2.045    core radius for proj-oper                               
   RAUG   =    1.300    factor for augmentation sphere                          
   RDEP   =    2.025    radius for radial grids                                 
   RDEPT  =    1.557    core radius for aug-charge                              
                                                                                
   Atomic configuration                                                         
    5 entries                                                                   
     n  l   j            E        occ.                                          
     1  0  0.50     -1259.6230   2.0000                                         
     2  0  0.50       -79.8442   2.0000                                         
     2  1  1.50       -46.6121   6.0000                                         
     3  0  0.50        -4.7055   2.0000                                         
     3  2  1.50        -1.3606   0.0000                                         
   Description                                                                  
     l       E           TYP  RCUT    TYP  RCUT                                 
     1    -46.6121073     23  1.600                                             
     1      2.7211652     23  1.600                                             
     0     -4.7054661     23  2.000                                             
     0     61.2262170     23  2.000                                             
     2     -1.3605826     23  2.000                                             
  local pseudopotential read in
  partial core-charges read in
  partial kinetic energy density read in
  atomic valenz-charges read in
  non local Contribution for L=           1  read in
    real space projection operators read in
  non local Contribution for L=           1  read in
    real space projection operators read in
  non local Contribution for L=           0  read in
    real space projection operators read in
  non local Contribution for L=           0  read in
    real space projection operators read in
  non local Contribution for L=           2  read in
    real space projection operators read in
    PAW grid and wavefunctions read in
 
   number of l-projection  operators is LMAX  =           5
   number of lm-projection operators is LMMAX =          13
 
 POTCAR:    PAW_PBE Mn_pv 02Aug2007               
   VRHFIN =Mn: 3p4s3d                                                           
   LEXCH  = PE                                                                  
   EATOM  =  2025.2664 eV,  148.8529 Ry                                         
                                                                                
   TITEL  = PAW_PBE Mn_pv 02Aug2007                                             
   LULTRA =        F    use ultrasoft PP ?                                      
   IUNSCR =        1    unscreen: 0-lin 1-nonlin 2-no                           
   RPACOR =    2.080    partial core radius                                     
   POMASS =   54.938; ZVAL   =   13.000    mass and valenz                      
   RCORE  =    2.300    outmost cutoff radius                                   
   RWIGS  =    2.500; RWIGS  =    1.323    wigner-seitz radius (au A)           
   ENMAX  =  269.864; ENMIN  =  202.398 eV                                      
   ICORE  =        3    local potential                                         
   LCOR   =        T    correct aug charges                                     
   LPAW   =        T    paw PP                                                  
   EAUG   =  569.085                                                            
   DEXC   =    0.000                                                            
   RMAX   =    2.343    core radius for proj-oper                               
   RAUG   =    1.300    factor for augmentation sphere                          
   RDEP   =    2.338    radius for radial grids                                 
   RDEPT  =    1.798    core radius for aug-charge                              
                                                                                
   Atomic configuration                                                         
    8 entries                                                                   
     n  l   j            E        occ.                                          
     1  0  0.50     -6424.8287   2.0000                                         
     2  0  0.50      -739.1154   2.0000                                         
     2  1  1.50      -625.3949   6.0000                                         
     3  0  0.50       -81.6100   2.0000                                         
     3  1  1.50       -50.4667   6.0000                                         
     3  2  2.50        -3.3745   6.0000                                         
     4  0  0.50        -4.1331   1.0000                                         
     4  3  2.50        -1.3606   0.0000                                         
   Description                                                                  
     l       E           TYP  RCUT    TYP  RCUT                                 
     1    -50.4666628     23  2.000                                             
     1     -1.3605826     23  2.000                                             
     2     -3.3744729     23  2.300                                             
     2     -4.7350555     23  2.300                                             
     0     -4.1331431     23  2.300                                             
     0      7.6656591     23  2.300                                             
     3      9.5240782     23  2.300                                             
  local pseudopotential read in
  partial core-charges read in
  partial kinetic energy density read in
  atomic valenz-charges read in
  non local Contribution for L=           1  read in
    real space projection operators read in
  non local Contribution for L=           1  read in
    real space projection operators read in
  non local Contribution for L=           2  read in
    real space projection operators read in
  non local Contribution for L=           2  read in
    real space projection operators read in
  non local Contribution for L=           0  read in
    real space projection operators read in
  non local Contribution for L=           0  read in
    real space projection operators read in
    PAW grid and wavefunctions read in
 
   number of l-projection  operators is LMAX  =           6
   number of lm-projection operators is LMMAX =          18
 
 POTCAR:    PAW_PBE O 08Apr2002                   
   VRHFIN =O: s2p4                                                              
   LEXCH  = PE                                                                  
   EATOM  =   432.3788 eV,   31.7789 Ry                                         
                                                                                
   TITEL  = PAW_PBE O 08Apr2002                                                 
   LULTRA =        F    use ultrasoft PP ?                                      
   IUNSCR =        1    unscreen: 0-lin 1-nonlin 2-no                           
   RPACOR =    1.200    partial core radius                                     
   POMASS =   16.000; ZVAL   =    6.000    mass and valenz                      
   RCORE  =    1.520    outmost cutoff radius                                   
   RWIGS  =    1.550; RWIGS  =    0.820    wigner-seitz radius (au A)           
   ENMAX  =  400.000; ENMIN  =  300.000 eV                                      
   ICORE  =        2    local potential                                         
   LCOR   =        T    correct aug charges                                     
   LPAW   =        T    paw PP                                                  
   EAUG   =  605.392                                                            
   DEXC   =    0.000                                                            
   RMAX   =    1.553    core radius for proj-oper                               
   RAUG   =    1.300    factor for augmentation sphere                          
   RDEP   =    1.550    radius for radial grids                                 
   RDEPT  =    1.329    core radius for aug-charge                              
                                                                                
   Atomic configuration                                                         
    4 entries                                                                   
     n  l   j            E        occ.                                          
     1  0  0.50      -514.6923   2.0000                                         
     2  0  0.50       -23.9615   2.0000                                         
     2  1  0.50        -9.0305   4.0000                                         
     3  2  1.50        -9.5241   0.0000                                         
   Description                                                                  
     l       E           TYP  RCUT    TYP  RCUT                                 
     0    -23.9615318     23  1.200                                             
     0     -9.5240782     23  1.200                                             
     1     -9.0304911     23  1.520                                             
     1      8.1634956     23  1.520                                             
     2     -9.5240782      7  1.500                                             
  local pseudopotential read in
  partial core-charges read in
  partial kinetic energy density read in
  kinetic energy density of atom read in
  atomic valenz-charges read in
  non local Contribution for L=           0  read in
    real space projection operators read in
  non local Contribution for L=           0  read in
    real space projection operators read in
  non local Contribution for L=           1  read in
    real space projection operators read in
  non local Contribution for L=           1  read in
    real space projection operators read in
    PAW grid and wavefunctions read in
 
   number of l-projection  operators is LMAX  =           4
   number of lm-projection operators is LMMAX =           8
 
 Optimization of the real space projectors (new method)

 maximal supplied QI-value         = 17.01
 optimisation between [QCUT,QGAM] = [ 10.20, 20.41] = [ 29.16,116.64] Ry 
 Optimized for a Real-space Cutoff    1.30 Angstroem

   l    n(q)    QCUT    max X(q) W(low)/X(q) W(high)/X(q)  e(spline) 
   1      7    10.205     4.940    0.23E-03    0.84E-03    0.11E-06
   1      7    10.205     6.253    0.40E-03    0.13E-02    0.18E-06
   0      8    10.205    37.438    0.23E-03    0.37E-03    0.42E-07
   0      8    10.205     9.606    0.16E-03    0.26E-03    0.31E-07
 Optimization of the real space projectors (new method)

 maximal supplied QI-value         = 18.90
 optimisation between [QCUT,QGAM] = [ 10.20, 20.41] = [ 29.16,116.64] Ry 
 Optimized for a Real-space Cutoff    1.26 Angstroem

   l    n(q)    QCUT    max X(q) W(low)/X(q) W(high)/X(q)  e(spline) 
   1      7    10.205     2.974    0.63E-04    0.14E-03    0.13E-06
   1      7    10.205     4.279    0.11E-03    0.45E-03    0.24E-06
   0      8    10.205    16.381    0.44E-03    0.15E-03    0.55E-07
   0      8    10.205     5.611    0.31E-03    0.11E-03    0.40E-07
   2      7    10.205     4.652    0.50E-03    0.47E-03    0.57E-07
 Optimization of the real space projectors (new method)

 maximal supplied QI-value         = 16.25
 optimisation between [QCUT,QGAM] = [ 10.24, 20.48] = [ 29.35,117.42] Ry 
 Optimized for a Real-space Cutoff    1.34 Angstroem

   l    n(q)    QCUT    max X(q) W(low)/X(q) W(high)/X(q)  e(spline) 
   1      8    10.239     3.658    0.23E-03    0.30E-03    0.98E-07
   1      8    10.239     5.612    0.32E-03    0.65E-03    0.21E-06
   2      7    10.239    55.373    0.42E-03    0.45E-03    0.65E-07
   2      7    10.239    50.863    0.43E-03    0.48E-03    0.67E-07
   0      8    10.239    79.536    0.11E-03    0.21E-03    0.56E-07
   0      8    10.239    38.668    0.96E-04    0.19E-03    0.52E-07
 Optimization of the real space projectors (new method)

 maximal supplied QI-value         = 24.76
 optimisation between [QCUT,QGAM] = [ 10.15, 20.30] = [ 28.85,115.39] Ry 
 Optimized for a Real-space Cutoff    1.38 Angstroem

   l    n(q)    QCUT    max X(q) W(low)/X(q) W(high)/X(q)  e(spline) 
   0      8    10.150    20.381    0.22E-03    0.32E-03    0.29E-06
   0      8    10.150    15.268    0.23E-03    0.35E-03    0.30E-06
   1      8    10.150     5.964    0.46E-03    0.53E-03    0.21E-06
   1      8    10.150     5.382    0.38E-03    0.45E-03    0.19E-06
  PAW_PBE Na_pv 19Sep2006               :
 energy of atom  1       EATOM= -766.0439
 kinetic energy error for atom=    0.0103 (will be added to EATOM!!)
  PAW_PBE Mg_pv 13Apr2007               :
 energy of atom  2       EATOM=-1056.7344
 kinetic energy error for atom=    0.0820 (will be added to EATOM!!)
  PAW_PBE Mn_pv 02Aug2007               :
 energy of atom  3       EATOM=-2025.2664
 kinetic energy error for atom=    0.0284 (will be added to EATOM!!)
  PAW_PBE O 08Apr2002                   :
 energy of atom  4       EATOM= -432.3788
 kinetic energy error for atom=    0.1156 (will be added to EATOM!!)
 
 
 POSCAR: Na Mg Mn  O                             
  positions in cartesian coordinates
  No initial velocities read in

 METAGGA = SCAN     LMAXTAU =  6    LMIXTAU =  F

 exchange correlation table for  LEXCH =        8
   RHO(1)=    0.500       N(1)  =     2000
   RHO(2)=  100.500       N(2)  =     4000

 VTST: version 3.2, (02/03/18)

 CHAIN: initializing optimizer
 
 OPT: Using VASP Dynamics algorithm
 CHAIN: Read ICHAIN            0
 
 POSCAR: Na Mg Mn  O                             
  positions in cartesian coordinates
  No initial velocities read in
 


--------------------------------------------------------------------------------------------------------


 ion  position               nearest neighbor table
   1  0.309  0.250  0.257-  41 2.29  52 2.34
   2  0.655  0.132  0.754-  57 2.24  60 2.29  49 2.31
   3  0.445  0.394  0.738-  45 2.18  82 2.33  48 2.33  35 2.74
   4  0.499  0.733  0.757-  85 2.28  82 2.33
   5  0.661  0.405  0.248-  75 2.26
   6  0.345  0.591  0.251-  78 2.26  87 2.32  40 2.89  38 2.95
   7  0.807  0.561  0.740-  68 2.19  71 2.23  70 2.29  36 2.67  34 2.95
   8  0.987  0.257  0.749-  57 2.27  61 2.35  80 2.36  60 2.36
   9  0.985  0.451  0.253-  86 2.30  75 2.34  39 2.73  37 2.90
  10  0.782  0.756  0.265-  63 2.23  74 2.26
  11  0.130  0.881  0.248-  67 2.27  76 2.37
  12  0.151  0.602  0.748-  81 2.28  84 2.36
  13  0.849  0.902  0.757-  72 2.12  69 2.27  61 2.38  25 2.98
  14  0.298  0.011  0.757-  47 2.22  44 2.24  46 2.26  49 2.26  26 2.83
  15  0.509  0.956  0.247-  53 2.22  62 2.33  29 2.84
  16  0.965  0.123  0.244-  55 2.23  64 2.23  54 2.31
  17  0.656  0.273  0.987-  71 2.00  60 2.00  66 2.05  49 2.09  43 2.13  53 2.18  33 2.73  34 2.79
                            30 2.83
  18  0.636  0.246  0.508-  62 2.00  68 2.02  52 2.04  46 2.05  75 2.14  57 2.17  31 2.78  28 2.78

  19  0.152  0.256  0.003-  61 2.02  83 2.06  48 2.06  78 2.09  41 2.11  55 2.15  25 2.78  26 2.86

  20  0.155  0.257  0.502-  87 2.00  45 2.00  50 2.02  80 2.02  64 2.09  58 2.13  35 2.79  40 2.81

  21  0.153  0.774  0.990-  42 1.98  47 1.99  73 2.08  84 2.12  67 2.15  77 2.17  26 2.77
  22  0.136  0.746  0.495-  86 1.93  76 1.97  44 2.03  70 2.06  51 2.09  81 2.24  36 2.85
  23  0.645  0.764  0.002-  79 1.91  85 1.99  59 2.14  54 2.17  72 2.17  65 2.20  29 2.82  38 2.83

  24  0.649  0.756  0.505-  56 1.95  69 2.01  88 2.02  82 2.06  74 2.08  63 2.15
  25  0.982  0.937  0.000-  54 1.79  47 1.83  61 1.94  72 1.98  67 2.01  41 2.04  19 2.78  26 2.92
                            30 2.93  34 2.98  13 2.98
  26  0.318  0.093  1.000-  48 1.86  47 1.89  42 1.90  43 1.95  49 1.98  41 2.05  21 2.77  14 2.83
                            19 2.86  29 2.88  33 2.92  25 2.92
  27  0.981  0.921  0.507-  58 1.81  50 1.94  63 1.94  44 1.95  69 1.95  76 1.99  32 2.86  28 2.91
                            36 2.92
  28  0.316  0.089  0.492-  45 1.87  51 1.92  50 1.92  44 1.99  46 1.99  52 2.00  18 2.78  35 2.88
                            31 2.90  27 2.91
  29  0.489  0.933  0.994-  49 1.86  79 1.88  59 1.90  53 1.91  42 1.91  84 2.02  23 2.82  15 2.84
                            30 2.86  26 2.88  38 2.94
  30  0.819  0.111  0.004-  55 1.82  53 1.86  60 1.97  54 1.99  61 2.01  59 2.01  17 2.83  37 2.84
                            29 2.86  25 2.93
  31  0.486  0.926  0.514-  62 1.85  46 1.87  56 1.95  88 1.98  81 1.98  51 2.03  18 2.78  32 2.86
                            28 2.90  40 2.99
  32  0.816  0.085  0.500-  62 1.90  58 1.91  63 1.93  57 1.94  64 1.97  56 1.97  31 2.86  27 2.86
                            39 2.87
  33  0.499  0.430  0.005-  65 1.78  85 1.90  71 1.94  43 1.94  48 1.98  78 2.02  17 2.73  34 2.80
                            26 2.92  38 3.00
  34  0.821  0.594  0.002-  65 1.84  66 1.86  67 1.87  72 1.96  73 1.97  71 2.04  17 2.79  33 2.80
                            37 2.81   7 2.95  25 2.98
  35  0.477  0.421  0.496-  52 1.82  45 1.85  87 1.88  74 1.92  82 1.93  68 2.03   3 2.74  20 2.79
                            36 2.88  28 2.88  40 2.88
  36  0.808  0.585  0.503-  68 1.86  70 1.90  76 1.91  74 1.91  69 1.92  75 1.95   7 2.67  22 2.85
                            35 2.88  39 2.89  27 2.92
  37  0.988  0.437  0.994-  77 1.85  73 1.88  66 1.90  83 1.90  60 1.93  55 1.95  34 2.81  30 2.84
                            38 2.88   9 2.90
  38  0.319  0.594  0.989-  84 1.87  85 1.91  83 1.92  79 1.96  77 1.98  78 2.01  23 2.83  37 2.88
                            29 2.94   6 2.95  33 3.00
  39  0.972  0.415  0.494-  70 1.89  64 1.89  75 1.93  86 1.95  80 1.98  57 2.03   9 2.73  32 2.87
                            36 2.89  40 2.90
  40  0.306  0.581  0.506-  80 1.91  81 1.94  86 1.96  87 1.97  82 1.97  88 2.01  20 2.81  35 2.88
                             6 2.89  39 2.90  31 2.99
  41  0.153  0.085  0.112-  25 2.04  26 2.05  19 2.11   1 2.29
  42  0.327  0.934  0.084-  26 1.90  29 1.91  21 1.98
  43  0.476  0.256  0.098-  33 1.94  26 1.95  17 2.13
  44  0.153  0.924  0.592-  27 1.95  28 1.99  22 2.03  14 2.24
  45  0.332  0.253  0.582-  35 1.85  28 1.87  20 2.00   3 2.18
  46  0.462  0.070  0.602-  31 1.87  28 1.99  18 2.05  14 2.26
  47  0.142  0.948  0.914-  25 1.83  26 1.89  21 1.99  14 2.22
  48  0.333  0.258  0.913-  26 1.86  33 1.98  19 2.06   3 2.33
  49  0.477  0.081  0.902-  29 1.86  26 1.98  17 2.09  14 2.26   2 2.31
  50  0.144  0.079  0.409-  28 1.92  27 1.94  20 2.02
  51  0.324  0.927  0.406-  28 1.92  31 2.03  22 2.09
  52  0.482  0.272  0.406-  35 1.82  28 2.00  18 2.04   1 2.34
  53  0.650  0.086  0.091-  30 1.86  29 1.91  17 2.18  15 2.22
  54  0.842  0.950  0.091-  25 1.79  30 1.99  23 2.17  16 2.31
  55  0.967  0.267  0.092-  30 1.82  37 1.95  19 2.15  16 2.23
  56  0.654  0.922  0.599-  24 1.95  31 1.95  32 1.97
  57  0.823  0.243  0.603-  32 1.94  39 2.03  18 2.17   2 2.24   8 2.27
  58  0.968  0.068  0.591-  27 1.81  32 1.91  20 2.13
  59  0.654  0.949  0.900-  29 1.90  30 2.01  23 2.14
  60  0.831  0.274  0.899-  37 1.93  30 1.97  17 2.00   2 2.29   8 2.36
  61  0.977  0.095  0.904-  25 1.94  30 2.01  19 2.02   8 2.35  13 2.38
  62  0.643  0.075  0.421-  31 1.85  32 1.90  18 2.00  15 2.33
  63  0.833  0.935  0.403-  32 1.93  27 1.94  24 2.15  10 2.23
  64  0.976  0.256  0.406-  39 1.89  32 1.97  20 2.09  16 2.23
  65  0.656  0.573  0.089-  33 1.78  34 1.84  23 2.20
  66  0.830  0.440  0.087-  34 1.86  37 1.90  17 2.05
  67  0.966  0.759  0.094-  34 1.87  25 2.01  21 2.15  11 2.27
  68  0.652  0.431  0.594-  36 1.86  18 2.02  35 2.03   7 2.19
  69  0.818  0.750  0.597-  36 1.92  27 1.95  24 2.01  13 2.27
  70  0.963  0.567  0.588-  39 1.89  36 1.90  22 2.06   7 2.29
  71  0.651  0.440  0.893-  33 1.94  17 2.00  34 2.04   7 2.23
  72  0.829  0.760  0.904-  34 1.96  25 1.98  13 2.12  23 2.17
  73  0.977  0.586  0.900-  37 1.88  34 1.97  21 2.08
  74  0.647  0.578  0.407-  36 1.91  35 1.92  24 2.08  10 2.26
  75  0.813  0.427  0.404-  39 1.93  36 1.95  18 2.14   5 2.26   9 2.34
  76  0.965  0.747  0.410-  36 1.91  22 1.97  27 1.99  11 2.37
  77  0.148  0.583  0.086-  37 1.85  38 1.98  21 2.17
  78  0.331  0.440  0.096-  38 2.01  33 2.02  19 2.09   6 2.26
  79  0.477  0.767  0.081-  29 1.88  23 1.91  38 1.96
  80  0.138  0.422  0.594-  40 1.91  39 1.98  20 2.02   8 2.36
  81  0.324  0.749  0.605-  40 1.94  31 1.98  22 2.24  12 2.28
  82  0.472  0.575  0.595-  35 1.93  40 1.97  24 2.06   3 2.33   4 2.33
  83  0.146  0.429  0.908-  37 1.90  38 1.92  19 2.06
  84  0.328  0.754  0.898-  38 1.87  29 2.02  21 2.12  12 2.36
  85  0.483  0.582  0.915-  33 1.90  38 1.91  23 1.99   4 2.28
  86  0.144  0.583  0.409-  22 1.93  39 1.95  40 1.96   9 2.30
  87  0.323  0.429  0.407-  35 1.88  40 1.97  20 2.00   6 2.32
  88  0.475  0.757  0.415-  31 1.98  40 2.01  24 2.02
 
  LATTYP: Found a hexagonal cell.
 ALAT       =    10.0190000534
 C/A-ratio  =     1.1196726572
  
  Lattice vectors:
  
 A1 = (  10.0190000534,   0.0000000000,   0.0000000000)
 A2 = (  -5.0095000267,   8.6767085668,   0.0000000000)
 A3 = (   0.0000000000,   0.0000000000,  11.2180004120)


Analysis of symmetry for initial positions (statically):
=====================================================================
 Subroutine PRICEL returns:
 Original cell was already a primitive cell.
 

 Routine SETGRP: Setting up the symmetry group for a 
 hexagonal supercell.


 Subroutine GETGRP returns: Found  1 space group operations
 (whereof  1 operations were pure point group operations)
 out of a pool of 24 trial point group operations.


The static configuration has the point symmetry C_1 .


Analysis of symmetry for dynamics (positions and initial velocities):
=====================================================================
 Subroutine PRICEL returns:
 Original cell was already a primitive cell.
 

 Routine SETGRP: Setting up the symmetry group for a 
 hexagonal supercell.


 Subroutine GETGRP returns: Found  1 space group operations
 (whereof  1 operations were pure point group operations)
 out of a pool of 24 trial point group operations.


The dynamic configuration has the point symmetry C_1 .


Analysis of structural, dynamic, and magnetic symmetry:
=====================================================================
 Subroutine PRICEL returns:
 Original cell was already a primitive cell.
 

 Routine SETGRP: Setting up the symmetry group for a 
 hexagonal supercell.


 Subroutine GETGRP returns: Found  1 space group operations
 (whereof  1 operations were pure point group operations)
 out of a pool of 24 trial point group operations.


The magnetic configuration has the point symmetry C_1 .


 Subroutine INISYM returns: Found  1 space group operations
 (whereof  1 operations are pure point group operations),
 and found     1 'primitive' translations

 
 

Automatic generation of k-mesh.
 generate k-points for:    2    2    2
Space group operators:
 irot       det(A)        alpha          n_x          n_y          n_z        tau_x        tau_y        tau_z
    1     1.000000     0.000000     1.000000     0.000000     0.000000     0.000000     0.000000     0.000000
 
 Subroutine IBZKPT returns following result:
 ===========================================
 
 Found      8 irreducible k-points:
 
 Following reciprocal coordinates:
            Coordinates               Weight
  0.000000  0.000000  0.000000      1.000000
  0.500000 -0.000000 -0.000000      1.000000
  0.000000  0.500000  0.000000      1.000000
  0.500000  0.500000 -0.000000      1.000000
  0.000000  0.000000  0.500000      1.000000
  0.500000 -0.000000  0.500000      1.000000
  0.000000  0.500000  0.500000      1.000000
  0.500000  0.500000  0.500000      1.000000
 
 Following cartesian coordinates:
            Coordinates               Weight
  0.000000  0.000000  0.000000      1.000000
  0.049905  0.028813 -0.000000      1.000000
  0.000000  0.057626  0.000000      1.000000
  0.049905  0.086438 -0.000000      1.000000
  0.000000  0.000000  0.044571      1.000000
  0.049905  0.028813  0.044571      1.000000
  0.000000  0.057626  0.044571      1.000000
  0.049905  0.086438  0.044571      1.000000
 


--------------------------------------------------------------------------------------------------------




 Dimension of arrays:
   k-points           NKPTS =      8   k-points in BZ     NKDIM =      8   number of bands    NBANDS=    480
   number of dos      NEDOS =    301   number of ions     NIONS =     88
   non local maximal  LDIM  =      6   non local SUM 2l+1 LMDIM =     18
   total plane-waves  NPLWV = 140000
   max r-space proj   IRMAX =   1632   max aug-charges    IRDMAX=   4555
   dimension x,y,z NGX =    50 NGY =   50 NGZ =   56
   dimension x,y,z NGXF=   100 NGYF=  100 NGZF=  112
   support grid    NGXF=   100 NGYF=  100 NGZF=  112
   ions per type =              16   8  16  48
   NGX,Y,Z   is equivalent  to a cutoff of   8.30,  8.30,  8.30 a.u.
   NGXF,Y,Z  is equivalent  to a cutoff of  16.59, 16.59, 16.60 a.u.

 SYSTEM =  unknown system                          
 POSCAR =  Na Mg Mn  O                             

 Startparameter for this run:
   NWRITE =      2    write-flag & timer
   PREC   = normal    normal or accurate (medium, high low for compatibility)
   ISTART =      0    job   : 0-new  1-cont  2-samecut
   ICHARG =      1    charge: 1-file 2-atom 10-const
   ISPIN  =      2    spin polarized calculation?
   LNONCOLLINEAR =      F non collinear calculations
   LSORBIT =      F    spin-orbit coupling
   INIWAV =      1    electr: 0-lowe 1-rand  2-diag
   LASPH  =      T    aspherical Exc in radial PAW
   METAGGA=      F    non-selfconsistent MetaGGA calc.

 Electronic Relaxation 1
   ENCUT  =  400.0 eV  29.40 Ry    5.42 a.u.  16.34 16.34 18.29*2*pi/ulx,y,z
   ENINI  =  400.0     initial cutoff
   ENAUG  =  758.8 eV  augmentation charge cutoff
   NELM   =    200;   NELMIN=  6; NELMDL=-12     # of ELM steps 
   EDIFF  = 0.1E-04   stopping-criterion for ELM
   LREAL  =      T    real-space projection
   NLSPLINE    = F    spline interpolate recip. space projectors
   LCOMPAT=      F    compatible to vasp.4.4
   GGA_COMPAT  = T    GGA compatible to vasp.4.4-vasp.4.6
   LMAXPAW     = -100 max onsite density
   LMAXMIX     =    4 max onsite mixed and CHGCAR
   VOSKOWN=      0    Vosko Wilk Nusair interpolation
   ROPT   =   -0.00050  -0.00050  -0.00050  -0.00050
 Ionic relaxation
   EDIFFG = 0.1E-03   stopping-criterion for IOM
   NSW    =      1    number of steps for IOM
   NBLOCK =      1;   KBLOCK =      1    inner block; outer block 
   IBRION =     -1    ionic relax: 0-MD 1-quasi-New 2-CG
   NFREE  =      0    steps in history (QN), initial steepest desc. (CG)
   ISIF   =      2    stress and relaxation
   IWAVPR =     10    prediction:  0-non 1-charg 2-wave 3-comb
   ISYM   =      2    0-nonsym 1-usesym 2-fastsym
   LCORR  =      T    Harris-Foulkes like correction to forces

   POTIM  = 0.5000    time-step for ionic-motion
   TEIN   =    0.0    initial temperature
   TEBEG  =    0.0;   TEEND  =   0.0 temperature during run
   SMASS  =  -3.00    Nose mass-parameter (am)
   estimated Nose-frequenzy (Omega)   =  0.10E-29 period in steps =****** mass=  -0.229E-26a.u.
   SCALEE = 1.0000    scale energy and forces
   NPACO  =    256;   APACO  = 16.0  distance and # of slots for P.C.
   PSTRESS=    0.0 pullay stress

  Mass of Ions in am
   POMASS =  22.99 24.30 54.94 16.00
  Ionic Valenz
   ZVAL   =   7.00  8.00 13.00  6.00
  Atomic Wigner-Seitz radii
   RWIGS  =  -1.00 -1.00 -1.00 -1.00
  virtual crystal weights 
   VCA    =   1.00  1.00  1.00  1.00
   NELECT =     672.0000    total number of electrons
   NUPDOWN=      48.0000    fix difference up-down

 DOS related values:
   EMIN   =  10.00;   EMAX   =-10.00  energy-range for DOS
   EFERMI =   0.00
   ISMEAR =     0;   SIGMA  =   0.05  broadening in eV -4-tet -1-fermi 0-gaus

 Electronic relaxation 2 (details)
   IALGO  =     48    algorithm
   LDIAG  =      T    sub-space diagonalisation (order eigenvalues)
   LSUBROT=      F    optimize rotation matrix (better conditioning)
   TURBO    =      0    0=normal 1=particle mesh
   IRESTART =      0    0=no restart 2=restart with 2 vectors
   NREBOOT  =      0    no. of reboots
   NMIN     =      0    reboot dimension
   EREF     =   0.00    reference energy to select bands
   IMIX   =      4    mixing-type and parameters
     AMIX     =   0.40;   BMIX     =  1.00
     AMIX_MAG =   1.60;   BMIX_MAG =  1.00
     AMIN     =   0.10
     WC   =   100.;   INIMIX=   1;  MIXPRE=   1;  MAXMIX= -45

 Intra band minimization:
   WEIMIN = 0.0000     energy-eigenvalue tresh-hold
   EBREAK =  0.52E-08  absolut break condition
   DEPER  =   0.30     relativ break condition  

   TIME   =   0.40     timestep for ELM

  volume/ion in A,a.u.               =      11.08        74.78
  Fermi-wavevector in a.u.,A,eV,Ry     =   1.445993  2.732531 28.448379  2.090897
  Thomas-Fermi vector in A             =   2.564112
 
 Write flags
   LWAVE        =      F    write WAVECAR
   LDOWNSAMPLE  =      F    k-point downsampling of WAVECAR
   LCHARG       =      F    write CHGCAR
   LVTOT        =      F    write LOCPOT, total local potential
   LVHAR        =      F    write LOCPOT, Hartree potential only
   LELF         =      F    write electronic localiz. function (ELF)
   LORBIT       =     11    0 simple, 1 ext, 2 COOP (PROOUT), +10 PAW based schemes


 Dipole corrections
   LMONO  =      F    monopole corrections only (constant potential shift)
   LDIPOL =      F    correct potential (dipole corrections)
   IDIPOL =      0    1-x, 2-y, 3-z, 4-all directions 
   EPSILON=  1.0000000 bulk dielectric constant

 Exchange correlation treatment:
   GGA     =    --    GGA type
   LEXCH   =     8    internal setting for exchange type
   VOSKOWN=      0    Vosko Wilk Nusair interpolation
   LHFCALC =     F    Hartree Fock is set to
   LHFONE  =     F    Hartree Fock one center treatment
   AEXX    =    0.0000 exact exchange contribution

 Linear response parameters
   LEPSILON=     F    determine dielectric tensor
   LRPA    =     F    only Hartree local field effects (RPA)
   LNABLA  =     F    use nabla operator in PAW spheres
   LVEL    =     F    velocity operator in full k-point grid
   LINTERFAST=   F  fast interpolation
   KINTER  =     0    interpolate to denser k-point grid
   CSHIFT  =0.1000    complex shift for real part using Kramers Kronig
   OMEGAMAX=  -1.0    maximum frequency
   DEG_THRESHOLD= 0.2000000E-02 threshold for treating states as degnerate
   RTIME   =   -0.100 relaxation time in fs
  (WPLASMAI=    0.000 imaginary part of plasma frequency in eV, 0.658/RTIME)
   DFIELD  = 0.0000000 0.0000000 0.0000000 field for delta impulse in time
 
 Orbital magnetization related:
   ORBITALMAG=     F  switch on orbital magnetization
   LCHIMAG   =     F  perturbation theory with respect to B field
   DQ        =  0.001000  dq finite difference perturbation B field
   LLRAUG    =     F  two centre corrections for induced B field



--------------------------------------------------------------------------------------------------------


 Static calculation
 charge density and potential will be updated during run
 spin polarized calculation
 RMM-DIIS sequential band-by-band
 perform sub-space diagonalisation
    before iterative eigenvector-optimisation
 modified Broyden-mixing scheme, WC =      100.0
 initial mixing is a Kerker type mixing with AMIX =  0.4000 and BMIX =      1.0000
 Hartree-type preconditioning will be used
 using additional bands          144
 real space projection scheme for non local part
 use partial core corrections
 calculate Harris-corrections to forces 
   (improved forces if not selfconsistent)
 use gradient corrections 
 use of overlap-Matrix (Vanderbilt PP)
 Gauss-broadening in eV      SIGMA  =   0.05


--------------------------------------------------------------------------------------------------------


  energy-cutoff  :      400.00
  volume of cell :      975.20
      direct lattice vectors                 reciprocal lattice vectors
    10.019000053  0.000000000  0.000000000     0.099810360  0.057625538 -0.000000000
    -5.009500027  8.676708567  0.000000000     0.000000000  0.115251076  0.000000000
     0.000000000  0.000000000 11.218000412     0.000000000  0.000000000  0.089142446

  length of vectors
    10.019000053 10.019000053 11.218000412     0.115251076  0.115251076  0.089142446


 
 k-points in units of 2pi/SCALE and weight: read from INCAR                         
   0.00000000  0.00000000  0.00000000       0.125
   0.04990518  0.02881277 -0.00000000       0.125
   0.00000000  0.05762554  0.00000000       0.125
   0.04990518  0.08643831 -0.00000000       0.125
   0.00000000  0.00000000  0.04457122       0.125
   0.04990518  0.02881277  0.04457122       0.125
   0.00000000  0.05762554  0.04457122       0.125
   0.04990518  0.08643831  0.04457122       0.125
 
 k-points in reciprocal lattice and weights: read from INCAR                         
   0.00000000  0.00000000  0.00000000       0.125
   0.50000000 -0.00000000 -0.00000000       0.125
   0.00000000  0.50000000  0.00000000       0.125
   0.50000000  0.50000000 -0.00000000       0.125
   0.00000000  0.00000000  0.50000000       0.125
   0.50000000 -0.00000000  0.50000000       0.125
   0.00000000  0.50000000  0.50000000       0.125
   0.50000000  0.50000000  0.50000000       0.125
 
 position of ions in fractional coordinates (direct lattice) 
   0.30924133  0.25048784  0.25693260
   0.65522179  0.13248968  0.75356567
   0.44543341  0.39401083  0.73833657
   0.49904798  0.73307949  0.75713672
   0.66056563  0.40473642  0.24816187
   0.34548368  0.59073783  0.25075948
   0.80747419  0.56145006  0.74000889
   0.98652242  0.25674581  0.74868334
   0.98470054  0.45149510  0.25302192
   0.78213908  0.75597396  0.26510518
   0.13018134  0.88066410  0.24774914
   0.15110254  0.60229290  0.74799338
   0.84876314  0.90179818  0.75684700
   0.29765680  0.01122331  0.75671062
   0.50882395  0.95554789  0.24693527
   0.96503628  0.12258681  0.24375556
   0.65611154  0.27322918  0.98669201
   0.63607480  0.24571184  0.50762701
   0.15227386  0.25646707  0.00259307
   0.15511877  0.25742250  0.50202352
   0.15314732  0.77416568  0.98957030
   0.13644809  0.74625879  0.49451505
   0.64459070  0.76370780  0.00187396
   0.64904840  0.75556762  0.50501157
   0.98204263  0.93683105  0.00008040
   0.31827268  0.09343128  0.99993994
   0.98138145  0.92070281  0.50669191
   0.31627545  0.08860042  0.49196379
   0.48944242  0.93305312  0.99425919
   0.81854734  0.11062098  0.00394006
   0.48642559  0.92581535  0.51363521
   0.81553431  0.08488438  0.49986983
   0.49864873  0.42951425  0.00490901
   0.82076895  0.59413198  0.00219250
   0.47697336  0.42053619  0.49575591
   0.80837870  0.58483006  0.50270902
   0.98752848  0.43730868  0.99447398
   0.31869249  0.59431061  0.98925718
   0.97150745  0.41530956  0.49440273
   0.30568347  0.58112820  0.50630681
   0.15292822  0.08533743  0.11187644
   0.32745013  0.93385026  0.08389659
   0.47631440  0.25603833  0.09841683
   0.15278294  0.92434020  0.59177124
   0.33196052  0.25322736  0.58195755
   0.46217482  0.07017857  0.60193080
   0.14231255  0.94828615  0.91389727
   0.33250054  0.25801835  0.91328219
   0.47651477  0.08070895  0.90233550
   0.14358553  0.07910039  0.40942145
   0.32351711  0.92655314  0.40635317
   0.48208089  0.27186115  0.40628898
   0.64970476  0.08610880  0.09111517
   0.84170289  0.94992940  0.09085844
   0.96736171  0.26668869  0.09192815
   0.65409928  0.92180272  0.59858529
   0.82301864  0.24321665  0.60342305
   0.96803261  0.06793267  0.59067390
   0.65439203  0.94866429  0.89951860
   0.83058752  0.27368327  0.89905506
   0.97697724  0.09522009  0.90428772
   0.64301774  0.07502442  0.42076839
   0.83340457  0.93504749  0.40321892
   0.97562847  0.25613169  0.40641111
   0.65562107  0.57284510  0.08856917
   0.83028506  0.43971974  0.08745801
   0.96640774  0.75902169  0.09408985
   0.65188818  0.43052155  0.59371811
   0.81832426  0.75012892  0.59689158
   0.96287753  0.56697075  0.58818236
   0.65071685  0.44033979  0.89277943
   0.82937089  0.75978580  0.90390441
   0.97696033  0.58643090  0.90021391
   0.64713369  0.57800028  0.40694596
   0.81304164  0.42678396  0.40432250
   0.96461566  0.74672210  0.40970671
   0.14798800  0.58332603  0.08586334
   0.33060002  0.43966096  0.09600285
   0.47692468  0.76653606  0.08136049
   0.13789525  0.42199412  0.59370920
   0.32443162  0.74936250  0.60468441
   0.47245418  0.57505907  0.59535655
   0.14612952  0.42907169  0.90766622
   0.32794620  0.75431599  0.89788729
   0.48283466  0.58152120  0.91467281
   0.14437730  0.58304943  0.40949722
   0.32250093  0.42853116  0.40706007
   0.47534394  0.75685497  0.41537617
 
 position of ions in cartesian coordinates  (Angst):
   1.84347005  2.17341000  2.88227000
   5.90096008  1.14957430  8.45350000
   2.48900011  3.41871713  8.28266000
   1.32759995  6.36071713  8.49356000
   4.59068000  3.51178000  2.78388000
   0.50209984  5.12566000  2.81302000
   5.27749981  4.87153857  8.30142000
   8.59780008  2.22770857  8.39873000
   7.60395008  3.91749143  2.83840000
   4.04919989  6.55936573  2.97395000
  -3.10739995  7.64126573  2.77925000
  -1.50329000  5.22592000  8.39099000
   3.98619995  7.82464000  8.49031000
   2.92600035  0.09738143  8.48878000
   0.31109003  8.29101057  2.77012000
   9.05459989  1.06365000  2.73445000
   5.20484000  2.37073000 11.06871141
   5.14194000  2.13197000  5.69456000
   0.24086000  2.22529000  0.02908910
   0.26457700  2.23358000  5.63170000
  -2.34380000  6.71721000 11.10100000
  -2.37131000  6.47507000  5.54747000
   2.63236000  6.62647000  0.02102210
   2.71780000  6.55584000  5.66522000
   5.14603000  8.12861000  0.00090191
   2.72073000  0.81067600 11.21732662
   5.22020000  7.98867000  5.68407000
   2.72492000  0.76876000  5.51885000
   0.22959400  8.09583000 11.15360000
   7.64687000  0.95982600  0.04419959
   0.23562600  8.03303000  5.76196000
   7.74561000  0.73651700  5.60754000
   2.84431000  3.72677000  0.05506930
   5.24698000  5.15511000  0.02459550
   2.67212000  3.64887000  5.56139000
   5.16944000  5.07440000  5.63939000
   7.70335000  3.79440000 11.15600951
   0.21578100  5.15666000 11.09748741
   7.65304000  3.60352000  5.54621000
   0.15148100  5.04228000  5.67975000
   1.10469000  0.74044800  1.25503000
  -1.39740003  8.10274657  0.94115200
   3.48957000  2.22157000  1.10404000
  -3.09975003  8.02023057  6.63849000
   2.05737000  2.19718000  6.52840000
   4.27897000  0.60891900  6.75246000
  -3.32461003  8.22800257 10.25210000
   2.03878000  2.23875000 10.24520000
   4.36989000  0.70028800 10.12240000
   1.04233000  0.68633100  4.59289000
  -1.40025003  8.03943157  4.55847000
   3.46808000  2.35886000  4.55775000
   6.07803000  0.74714100  1.02213000
   3.67434997  8.24226057  1.01925000
   8.35602000  2.31398000  1.03125000
   1.93564997  7.99821357  6.71493000
   7.02743000  2.11032000  6.76920000
   9.35841000  0.58943200  6.62618000
   1.80401997  8.23128357 10.09080000
   6.95064000  2.37467000 10.08560000
   9.31133000  0.82619700 10.14430000
   6.06656000  0.65096500  4.72018000
   3.66575997  8.11313457  4.52331000
   8.49173000  2.22238000  4.55912000
   3.69900000  4.97041000  0.99356900
   6.11585000  3.81532000  0.98110400
   5.88012000  6.58581000  1.05550000
   4.37457000  3.73551000  6.66033000
   4.44102000  6.50865000  6.69593000
   6.80683000  4.91944000  6.59823000
   4.31365000  3.82070000 10.01520000
   4.50332000  6.59244000 10.14000000
   6.85044000  5.08829000 10.09860000
   3.58814000  5.01514000  4.56512000
   6.00789000  3.70308000  4.53569000
   5.92378000  6.47909000  4.59609000
  -1.43948000  5.06135000  0.96321500
   1.10980000  3.81481000  1.07696000
   0.93834600  6.65101000  0.91270200
  -0.73240700  3.66152000  6.66023000
  -0.50345100  6.50200000  6.78335000
   1.85276000  4.98962000  6.67871000
  -0.68536300  3.72293000 10.18220000
  -0.49305300  6.54498000 10.07250000
   1.92439000  5.04569000 10.26080000
  -1.47427000  5.05895000  4.59374000
   1.08441000  3.71824000  4.56640000
   0.97100600  6.56701000  4.65969000
 


--------------------------------------------------------------------------------------------------------


 k-point  1 :   0.0000 0.0000 0.0000  plane waves:   17725
 k-point  2 :   0.5000-0.0000-0.0000  plane waves:   17736
 k-point  3 :   0.0000 0.5000 0.0000  plane waves:   17736
 k-point  4 :   0.5000 0.5000-0.0000  plane waves:   17736
 k-point  5 :   0.0000 0.0000 0.5000  plane waves:   17676
 k-point  6 :   0.5000-0.0000 0.5000  plane waves:   17700
 k-point  7 :   0.0000 0.5000 0.5000  plane waves:   17700
 k-point  8 :   0.5000 0.5000 0.5000  plane waves:   17700

 maximum and minimum number of plane-waves per node :     17736    17676

 maximum number of plane-waves:     17736
 maximum index in each direction: 
   IXMAX=   16   IYMAX=   16   IZMAX=   18
   IXMIN=  -16   IYMIN=  -16   IZMIN=  -18


 serial   3D FFT for wavefunctions
 parallel 3D FFT for charge:
    minimum data exchange during FFTs selected (reduces bandwidth)


 total amount of memory used by VASP MPI-rank0    94429. kBytes
=======================================================================

   base      :      30000. kBytes
   nonlr-proj:      13670. kBytes
   fftplans  :       1275. kBytes
   grid      :      22786. kBytes
   one-center:       2737. kBytes
   wavefun   :      23961. kBytes
 
     INWAV:  cpu time    0.0000: real time    0.0001
 Broyden mixing: mesh for mixing (old mesh)
   NGX = 33   NGY = 33   NGZ = 37
  (NGX  =100   NGY  =100   NGZ  =112)
  gives a total of  40293 points

 initial charge density was supplied:
 charge density of overlapping atoms calculated
 number of electron     672.0000000 magnetization      48.0000000
 keeping initial charge density in first step


--------------------------------------------------------------------------------------------------------


 Maximum index for non-local projection operator         1547
 Maximum index for augmentation-charges          560 (set IRDMAX)


--------------------------------------------------------------------------------------------------------


 First call to EWALD:  gamma=   0.179
 Maximum number of real-space cells 3x 3x 2
 Maximum number of reciprocal cells 3x 3x 3

    FEWALD:  cpu time    0.0030: real time    0.0030


--------------------------------------- Iteration      1(   1)  ---------------------------------------


    POTLOK:  cpu time    0.1887: real time    0.1904
    SETDIJ:  cpu time    4.6099: real time    4.6131
    EDDIAG:  cpu time    4.4150: real time    4.7807
  RMM-DIIS:  cpu time    9.1191: real time    9.1440
    ORTHCH:  cpu time    1.1451: real time    1.2298
       DOS:  cpu time    0.0020: real time    0.0021
    --------------------------------------------
      LOOP:  cpu time   19.4798: real time   19.9601

 eigenvalue-minimisations  :  7680
 total energy-change (2. order) : 0.1493978E+04  (-0.3498139E+05)
 number of electron     672.0000000 magnetization      48.0000000
 augmentation part      672.0000000 magnetization      48.0000000

 Free energy of the ion-electron system (eV)
  ---------------------------------------------------
  alpha Z        PSCENC =      2652.81237852
  Ewald energy   TEWEN  =    -41880.99060395
  -Hartree energ DENC   =    -25732.85689593
  -exchange      EXHF   =         0.00000000
  -V(xc)+E(xc)   XCENC  =      3605.75869008
  PAW double counting   =     55594.23204139   -59034.67079123
  entropy T*S    EENTRO =        -0.07293654
  eigenvalues    EBANDS =     -7572.43216095
  atomic energy  EATOM  =     73862.19814772
  Solvation  Ediel_sol  =         0.00000000
  ---------------------------------------------------
  free energy    TOTEN  =      1493.97786910 eV

  energy without entropy =     1494.05080564  energy(sigma->0) =     1494.01433737


--------------------------------------------------------------------------------------------------------




--------------------------------------- Iteration      1(   2)  ---------------------------------------


    EDDIAG:  cpu time    4.3915: real time    4.7768
  RMM-DIIS:  cpu time    9.1379: real time    9.1453
    ORTHCH:  cpu time    1.1438: real time    1.2306
       DOS:  cpu time    0.0023: real time    0.0023
    --------------------------------------------
      LOOP:  cpu time   14.6755: real time   15.1550

 eigenvalue-minimisations  :  7680
 total energy-change (2. order) :-0.2214252E+04  (-0.7999727E+04)
 number of electron     672.0000000 magnetization      48.0000000
 augmentation part      672.0000000 magnetization      48.0000000

 Free energy of the ion-electron system (eV)
  ---------------------------------------------------
  alpha Z        PSCENC =      2652.81237852
  Ewald energy   TEWEN  =    -41880.99060395
  -Hartree energ DENC   =    -25732.85689593
  -exchange      EXHF   =         0.00000000
  -V(xc)+E(xc)   XCENC  =      3605.75869008
  PAW double counting   =     55594.23204139   -59034.67079123
  entropy T*S    EENTRO =        -0.04646871
  eigenvalues    EBANDS =     -9786.71075417
  atomic energy  EATOM  =     73862.19814772
  Solvation  Ediel_sol  =         0.00000000
  ---------------------------------------------------
  free energy    TOTEN  =      -720.27425628 eV

  energy without entropy =     -720.22778757  energy(sigma->0) =     -720.25102193


--------------------------------------------------------------------------------------------------------




--------------------------------------- Iteration      1(   3)  ---------------------------------------


    EDDIAG:  cpu time    4.3858: real time    4.7863
  RMM-DIIS:  cpu time    9.1001: real time    9.1352
    ORTHCH:  cpu time    1.1497: real time    1.2318
       DOS:  cpu time    0.0023: real time    0.0023
    --------------------------------------------
      LOOP:  cpu time   14.6379: real time   15.1555

 eigenvalue-minimisations  :  7680
 total energy-change (2. order) : 0.7425815E+02  (-0.1415669E+04)
 number of electron     672.0000000 magnetization      48.0000000
 augmentation part      672.0000000 magnetization      48.0000000

 Free energy of the ion-electron system (eV)
  ---------------------------------------------------
  alpha Z        PSCENC =      2652.81237852
  Ewald energy   TEWEN  =    -41880.99060395
  -Hartree energ DENC   =    -25732.85689593
  -exchange      EXHF   =         0.00000000
  -V(xc)+E(xc)   XCENC  =      3605.75869008
  PAW double counting   =     55594.23204139   -59034.67079123
  entropy T*S    EENTRO =        -0.03524354
  eigenvalues    EBANDS =     -9712.46382443
  atomic energy  EATOM  =     73862.19814772
  Solvation  Ediel_sol  =         0.00000000
  ---------------------------------------------------
  free energy    TOTEN  =      -646.01610138 eV

  energy without entropy =     -645.98085783  energy(sigma->0) =     -645.99847960


--------------------------------------------------------------------------------------------------------




--------------------------------------- Iteration      1(   4)  ---------------------------------------


    EDDIAG:  cpu time    4.3781: real time    4.7934
  RMM-DIIS:  cpu time    9.1212: real time    9.1299
    ORTHCH:  cpu time    1.1495: real time    1.2320
       DOS:  cpu time    0.0012: real time    0.0012
    --------------------------------------------
      LOOP:  cpu time   14.6500: real time   15.1565

 eigenvalue-minimisations  :  7680
 total energy-change (2. order) :-0.4650384E+03  (-0.4271113E+03)
 number of electron     672.0000000 magnetization      48.0000000
 augmentation part      672.0000000 magnetization      48.0000000

 Free energy of the ion-electron system (eV)
  ---------------------------------------------------
  alpha Z        PSCENC =      2652.81237852
  Ewald energy   TEWEN  =    -41880.99060395
  -Hartree energ DENC   =    -25732.85689593
  -exchange      EXHF   =         0.00000000
  -V(xc)+E(xc)   XCENC  =      3605.75869008
  PAW double counting   =     55594.23204139   -59034.67079123
  entropy T*S    EENTRO =        -0.00000000
  eigenvalues    EBANDS =    -10177.53750401
  atomic energy  EATOM  =     73862.19814772
  Solvation  Ediel_sol  =         0.00000000
  ---------------------------------------------------
  free energy    TOTEN  =     -1111.05453741 eV

  energy without entropy =    -1111.05453741  energy(sigma->0) =    -1111.05453741


--------------------------------------------------------------------------------------------------------




--------------------------------------- Iteration      1(   5)  ---------------------------------------


    EDDIAG:  cpu time    4.3890: real time    4.7935
  RMM-DIIS:  cpu time    9.1152: real time    9.1321
    ORTHCH:  cpu time    1.1540: real time    1.2314
       DOS:  cpu time    0.0013: real time    0.0013
    --------------------------------------------
      LOOP:  cpu time   14.6595: real time   15.1583

 eigenvalue-minimisations  :  7680
 total energy-change (2. order) :-0.1043012E+03  (-0.1596503E+03)
 number of electron     672.0000000 magnetization      48.0000000
 augmentation part      672.0000000 magnetization      48.0000000

 Free energy of the ion-electron system (eV)
  ---------------------------------------------------
  alpha Z        PSCENC =      2652.81237852
  Ewald energy   TEWEN  =    -41880.99060395
  -Hartree energ DENC   =    -25732.85689593
  -exchange      EXHF   =         0.00000000
  -V(xc)+E(xc)   XCENC  =      3605.75869008
  PAW double counting   =     55594.23204139   -59034.67079123
  entropy T*S    EENTRO =        -0.00000000
  eigenvalues    EBANDS =    -10281.83875063
  atomic energy  EATOM  =     73862.19814772
  Solvation  Ediel_sol  =         0.00000000
  ---------------------------------------------------
  free energy    TOTEN  =     -1215.35578403 eV

  energy without entropy =    -1215.35578403  energy(sigma->0) =    -1215.35578403


--------------------------------------------------------------------------------------------------------




--------------------------------------- Iteration      1(   6)  ---------------------------------------


    EDDIAG:  cpu time    4.3881: real time    4.7903
  RMM-DIIS:  cpu time    9.1262: real time    9.1341
    ORTHCH:  cpu time    1.1454: real time    1.2315
       DOS:  cpu time    0.0011: real time    0.0011
    --------------------------------------------
      LOOP:  cpu time   14.6608: real time   15.1570

 eigenvalue-minimisations  :  7680
 total energy-change (2. order) :-0.8940157E+01  (-0.7890355E+02)
 number of electron     672.0000000 magnetization      48.0000000
 augmentation part      672.0000000 magnetization      48.0000000

 Free energy of the ion-electron system (eV)
  ---------------------------------------------------
  alpha Z        PSCENC =      2652.81237852
  Ewald energy   TEWEN  =    -41880.99060395
  -Hartree energ DENC   =    -25732.85689593
  -exchange      EXHF   =         0.00000000
  -V(xc)+E(xc)   XCENC  =      3605.75869008
  PAW double counting   =     55594.23204139   -59034.67079123
  entropy T*S    EENTRO =        -0.00000000
  eigenvalues    EBANDS =    -10290.77890812
  atomic energy  EATOM  =     73862.19814772
  Solvation  Ediel_sol  =         0.00000000
  ---------------------------------------------------
  free energy    TOTEN  =     -1224.29594152 eV

  energy without entropy =    -1224.29594152  energy(sigma->0) =    -1224.29594152


--------------------------------------------------------------------------------------------------------




--------------------------------------- Iteration      1(   7)  ---------------------------------------


    EDDIAG:  cpu time    4.4094: real time    4.7925
  RMM-DIIS:  cpu time    9.1084: real time    9.1323
    ORTHCH:  cpu time    1.1468: real time    1.2335
       DOS:  cpu time    0.0014: real time    0.0014
    --------------------------------------------
      LOOP:  cpu time   14.6660: real time   15.1598

 eigenvalue-minimisations  :  7680
 total energy-change (2. order) :-0.1939292E+01  (-0.4820340E+02)
 number of electron     672.0000000 magnetization      48.0000000
 augmentation part      672.0000000 magnetization      48.0000000

 Free energy of the ion-electron system (eV)
  ---------------------------------------------------
  alpha Z        PSCENC =      2652.81237852
  Ewald energy   TEWEN  =    -41880.99060395
  -Hartree energ DENC   =    -25732.85689593
  -exchange      EXHF   =         0.00000000
  -V(xc)+E(xc)   XCENC  =      3605.75869008
  PAW double counting   =     55594.23204139   -59034.67079123
  entropy T*S    EENTRO =        -0.00000000
  eigenvalues    EBANDS =    -10292.71819982
  atomic energy  EATOM  =     73862.19814772
  Solvation  Ediel_sol  =         0.00000000
  ---------------------------------------------------
  free energy    TOTEN  =     -1226.23523322 eV

  energy without entropy =    -1226.23523322  energy(sigma->0) =    -1226.23523322


--------------------------------------------------------------------------------------------------------




--------------------------------------- Iteration      1(   8)  ---------------------------------------


    EDDIAG:  cpu time    4.3848: real time    4.7930
  RMM-DIIS:  cpu time    9.1453: real time    9.1532
    ORTHCH:  cpu time    1.1511: real time    1.2323
       DOS:  cpu time    0.0016: real time    0.0016
    --------------------------------------------
      LOOP:  cpu time   14.6828: real time   15.1801

 eigenvalue-minimisations  :  7680
 total energy-change (2. order) : 0.4991013E+01  (-0.2989646E+02)
 number of electron     672.0000000 magnetization      48.0000000
 augmentation part      672.0000000 magnetization      48.0000000

 Free energy of the ion-electron system (eV)
  ---------------------------------------------------
  alpha Z        PSCENC =      2652.81237852
  Ewald energy   TEWEN  =    -41880.99060395
  -Hartree energ DENC   =    -25732.85689593
  -exchange      EXHF   =         0.00000000
  -V(xc)+E(xc)   XCENC  =      3605.75869008
  PAW double counting   =     55594.23204139   -59034.67079123
  entropy T*S    EENTRO =        -0.00000000
  eigenvalues    EBANDS =    -10287.72718634
  atomic energy  EATOM  =     73862.19814772
  Solvation  Ediel_sol  =         0.00000000
  ---------------------------------------------------
  free energy    TOTEN  =     -1221.24421974 eV

  energy without entropy =    -1221.24421974  energy(sigma->0) =    -1221.24421974


--------------------------------------------------------------------------------------------------------




--------------------------------------- Iteration      1(   9)  ---------------------------------------


    EDDIAG:  cpu time    4.4728: real time    4.7870
  RMM-DIIS:  cpu time   19.3324: real time   19.3902
    ORTHCH:  cpu time    1.1481: real time    1.2306
       DOS:  cpu time    0.0013: real time    0.0013
    --------------------------------------------
      LOOP:  cpu time   24.9546: real time   25.4091

 eigenvalue-minimisations  : 21782
 total energy-change (2. order) : 0.9251069E+01  (-0.1318115E+02)
 number of electron     672.0000000 magnetization      48.0000000
 augmentation part      672.0000000 magnetization      48.0000000

 Free energy of the ion-electron system (eV)
  ---------------------------------------------------
  alpha Z        PSCENC =      2652.81237852
  Ewald energy   TEWEN  =    -41880.99060395
  -Hartree energ DENC   =    -25732.85689593
  -exchange      EXHF   =         0.00000000
  -V(xc)+E(xc)   XCENC  =      3605.75869008
  PAW double counting   =     55594.23204139   -59034.67079123
  entropy T*S    EENTRO =        -0.00000000
  eigenvalues    EBANDS =    -10278.47611715
  atomic energy  EATOM  =     73862.19814772
  Solvation  Ediel_sol  =         0.00000000
  ---------------------------------------------------
  free energy    TOTEN  =     -1211.99315055 eV

  energy without entropy =    -1211.99315055  energy(sigma->0) =    -1211.99315055


--------------------------------------------------------------------------------------------------------




--------------------------------------- Iteration      1(  10)  ---------------------------------------


    EDDIAG:  cpu time    4.4029: real time    4.7875
  RMM-DIIS:  cpu time   17.7483: real time   17.8078
    ORTHCH:  cpu time    1.1535: real time    1.2354
       DOS:  cpu time    0.0012: real time    0.0012
    --------------------------------------------
      LOOP:  cpu time   23.3059: real time   23.8319

 eigenvalue-minimisations  : 19759
 total energy-change (2. order) :-0.1903497E+01  (-0.5280730E+00)
 number of electron     672.0000000 magnetization      48.0000000
 augmentation part      672.0000000 magnetization      48.0000000

 Free energy of the ion-electron system (eV)
  ---------------------------------------------------
  alpha Z        PSCENC =      2652.81237852
  Ewald energy   TEWEN  =    -41880.99060395
  -Hartree energ DENC   =    -25732.85689593
  -exchange      EXHF   =         0.00000000
  -V(xc)+E(xc)   XCENC  =      3605.75869008
  PAW double counting   =     55594.23204139   -59034.67079123
  entropy T*S    EENTRO =        -0.00000001
  eigenvalues    EBANDS =    -10280.37961420
  atomic energy  EATOM  =     73862.19814772
  Solvation  Ediel_sol  =         0.00000000
  ---------------------------------------------------
  free energy    TOTEN  =     -1213.89664761 eV

  energy without entropy =    -1213.89664760  energy(sigma->0) =    -1213.89664761


--------------------------------------------------------------------------------------------------------




--------------------------------------- Iteration      1(  11)  ---------------------------------------


    EDDIAG:  cpu time    4.4922: real time    4.8305
  RMM-DIIS:  cpu time   19.5576: real time   19.6073
    ORTHCH:  cpu time    1.1458: real time    1.2316
       DOS:  cpu time    0.0016: real time    0.0016
    --------------------------------------------
      LOOP:  cpu time   25.1971: real time   25.6710

 eigenvalue-minimisations  : 22585
 total energy-change (2. order) : 0.6852667E-01  (-0.4348550E-01)
 number of electron     672.0000000 magnetization      48.0000000
 augmentation part      672.0000000 magnetization      48.0000000

 Free energy of the ion-electron system (eV)
  ---------------------------------------------------
  alpha Z        PSCENC =      2652.81237852
  Ewald energy   TEWEN  =    -41880.99060395
  -Hartree energ DENC   =    -25732.85689593
  -exchange      EXHF   =         0.00000000
  -V(xc)+E(xc)   XCENC  =      3605.75869008
  PAW double counting   =     55594.23204139   -59034.67079123
  entropy T*S    EENTRO =        -0.00000001
  eigenvalues    EBANDS =    -10280.31108753
  atomic energy  EATOM  =     73862.19814772
  Solvation  Ediel_sol  =         0.00000000
  ---------------------------------------------------
  free energy    TOTEN  =     -1213.82812094 eV

  energy without entropy =    -1213.82812093  energy(sigma->0) =    -1213.82812094


--------------------------------------------------------------------------------------------------------




--------------------------------------- Iteration      1(  12)  ---------------------------------------


    EDDIAG:  cpu time    4.4528: real time    4.7920
  RMM-DIIS:  cpu time   21.4955: real time   21.5872
    ORTHCH:  cpu time    1.1523: real time    1.2314
       DOS:  cpu time    0.0011: real time    0.0011
    CHARGE:  cpu time    1.8207: real time    1.8226
    MIXING:  cpu time    0.0011: real time    0.0012
    --------------------------------------------
      LOOP:  cpu time   28.9235: real time   29.4353

 eigenvalue-minimisations  : 24482
 total energy-change (2. order) :-0.6454813E-03  (-0.4271598E-02)
 number of electron     672.0000004 magnetization      48.0000022
 augmentation part      239.0394566 magnetization      29.0309337

 Broyden mixing:
  rms(total) = 0.12536E+02    rms(broyden)= 0.12526E+02
  rms(prec ) = 0.14399E+02
  weight for this iteration     100.00

 Free energy of the ion-electron system (eV)
  ---------------------------------------------------
  alpha Z        PSCENC =      2652.81237852
  Ewald energy   TEWEN  =    -41880.99060395
  -Hartree energ DENC   =    -25732.85689593
  -exchange      EXHF   =         0.00000000
  -V(xc)+E(xc)   XCENC  =      3605.75869008
  PAW double counting   =     55594.23204139   -59034.67079123
  entropy T*S    EENTRO =        -0.00000001
  eigenvalues    EBANDS =    -10280.31173301
  atomic energy  EATOM  =     73862.19814772
  Solvation  Ediel_sol  =         0.00000000
  ---------------------------------------------------
  free energy    TOTEN  =     -1213.82876642 eV

  energy without entropy =    -1213.82876641  energy(sigma->0) =    -1213.82876642


--------------------------------------------------------------------------------------------------------




--------------------------------------- Iteration      1(  13)  ---------------------------------------


    POTLOK:  cpu time    0.1727: real time    0.1735
    SETDIJ:  cpu time    4.9614: real time    4.9622
    EDDIAG:  cpu time    4.4442: real time    4.8362
  RMM-DIIS:  cpu time   17.3036: real time   17.4208
    ORTHCH:  cpu time    1.1628: real time    1.2475
       DOS:  cpu time    0.0070: real time    0.0070
    CHARGE:  cpu time    1.8302: real time    1.8328
    MIXING:  cpu time    0.0091: real time    0.0091
    --------------------------------------------
      LOOP:  cpu time   29.8908: real time   30.4890

 eigenvalue-minimisations  : 18769
 total energy-change (2. order) : 0.2267567E+03  (-0.1229412E+03)
 number of electron     672.0000111 magnetization      48.0000024
 augmentation part      269.2643114 magnetization      26.3092663

 Broyden mixing:
  rms(total) = 0.14065E+02    rms(broyden)= 0.14062E+02
  rms(prec ) = 0.15854E+02
  weight for this iteration     100.00

 eigenvalues of (default mixing * dielectric matrix)
  average eigenvalue GAMMA=   0.3157
  0.3157

 Free energy of the ion-electron system (eV)
  ---------------------------------------------------
  alpha Z        PSCENC =      2652.81237852
  Ewald energy   TEWEN  =    -41880.99060395
  -Hartree energ DENC   =    -25058.29170618
  -exchange      EXHF   =         0.00000000
  -V(xc)+E(xc)   XCENC  =      3695.88553456
  PAW double counting   =     59864.18495525   -63289.38141648
  entropy T*S    EENTRO =        -0.07485867
  eigenvalues    EBANDS =    -10833.41453739
  atomic energy  EATOM  =     73862.19814772
  Solvation  Ediel_sol  =         0.00000000
  ---------------------------------------------------
  free energy    TOTEN  =      -987.07210661 eV

  energy without entropy =     -986.99724794  energy(sigma->0) =     -987.03467728


--------------------------------------------------------------------------------------------------------




--------------------------------------- Iteration      1(  14)  ---------------------------------------


    POTLOK:  cpu time    0.1903: real time    0.1903
    SETDIJ:  cpu time    4.9499: real time    4.9509
    EDDIAG:  cpu time    4.4755: real time    4.8911
  RMM-DIIS:  cpu time   17.8640: real time   17.8884
    ORTHCH:  cpu time    1.1453: real time    1.2281
       DOS:  cpu time    0.0011: real time    0.0011
    CHARGE:  cpu time    1.8277: real time    1.8294
    MIXING:  cpu time    0.0009: real time    0.0009
    --------------------------------------------
      LOOP:  cpu time   30.4547: real time   30.9804

 eigenvalue-minimisations  : 19378
 total energy-change (2. order) : 0.7169197E+02  (-0.1776435E+02)
 number of electron     672.0000035 magnetization      48.0000039
 augmentation part      246.5225183 magnetization      32.1417088

 Broyden mixing:
  rms(total) = 0.52791E+01    rms(broyden)= 0.52747E+01
  rms(prec ) = 0.57220E+01
  weight for this iteration     100.00

 eigenvalues of (default mixing * dielectric matrix)
  average eigenvalue GAMMA=   0.7276
  1.0996  0.3556

 Free energy of the ion-electron system (eV)
  ---------------------------------------------------
  alpha Z        PSCENC =      2652.81237852
  Ewald energy   TEWEN  =    -41880.99060395
  -Hartree energ DENC   =    -25673.15548407
  -exchange      EXHF   =         0.00000000
  -V(xc)+E(xc)   XCENC  =      3672.85754271
  PAW double counting   =     63241.20100775   -66723.56801005
  entropy T*S    EENTRO =        -0.00000000
  eigenvalues    EBANDS =    -10066.73511751
  atomic energy  EATOM  =     73862.19814772
  Solvation  Ediel_sol  =         0.00000000
  ---------------------------------------------------
  free energy    TOTEN  =      -915.38013887 eV

  energy without entropy =     -915.38013887  energy(sigma->0) =     -915.38013887


--------------------------------------------------------------------------------------------------------




--------------------------------------- Iteration      1(  15)  ---------------------------------------


    POTLOK:  cpu time    0.1732: real time    0.1734
    SETDIJ:  cpu time    4.9515: real time    4.9522
    EDDIAG:  cpu time    4.4991: real time    4.8979
  RMM-DIIS:  cpu time   17.9728: real time   18.0373
    ORTHCH:  cpu time    1.1506: real time    1.2331
       DOS:  cpu time    0.0013: real time    0.0013
    CHARGE:  cpu time    1.8220: real time    1.8229
    MIXING:  cpu time    0.0009: real time    0.0009
    --------------------------------------------
      LOOP:  cpu time   30.5714: real time   31.1189

 eigenvalue-minimisations  : 20224
 total energy-change (2. order) : 0.1472196E+02  (-0.2106716E+01)
 number of electron     672.0000052 magnetization      48.0000052
 augmentation part      249.6749547 magnetization      33.8108080

 Broyden mixing:
  rms(total) = 0.22042E+01    rms(broyden)= 0.22039E+01
  rms(prec ) = 0.22867E+01
  weight for this iteration     100.00

 eigenvalues of (default mixing * dielectric matrix)
  average eigenvalue GAMMA=   0.9311
  1.6699  0.3805  0.7428

 Free energy of the ion-electron system (eV)
  ---------------------------------------------------
  alpha Z        PSCENC =      2652.81237852
  Ewald energy   TEWEN  =    -41880.99060395
  -Hartree energ DENC   =    -25591.90861839
  -exchange      EXHF   =         0.00000000
  -V(xc)+E(xc)   XCENC  =      3706.31117142
  PAW double counting   =     67296.21962719   -70818.72253517
  entropy T*S    EENTRO =        -0.00000000
  eigenvalues    EBANDS =    -10126.57775077
  atomic energy  EATOM  =     73862.19814772
  Solvation  Ediel_sol  =         0.00000000
  ---------------------------------------------------
  free energy    TOTEN  =      -900.65818344 eV

  energy without entropy =     -900.65818344  energy(sigma->0) =     -900.65818344


--------------------------------------------------------------------------------------------------------




--------------------------------------- Iteration      1(  16)  ---------------------------------------


    POTLOK:  cpu time    0.1687: real time    0.1696
    SETDIJ:  cpu time    5.0099: real time    5.0112
    EDDIAG:  cpu time    4.4462: real time    4.8360
  RMM-DIIS:  cpu time   17.4593: real time   17.5102
    ORTHCH:  cpu time    1.1493: real time    1.2326
       DOS:  cpu time    0.0013: real time    0.0013
    CHARGE:  cpu time    1.8205: real time    1.8218
    MIXING:  cpu time    0.0009: real time    0.0009
    --------------------------------------------
      LOOP:  cpu time   30.0561: real time   30.5837

 eigenvalue-minimisations  : 19124
 total energy-change (2. order) :-0.1534068E+01  (-0.6503575E+00)
 number of electron     672.0000054 magnetization      48.0000057
 augmentation part      251.1469383 magnetization      33.9107965

 Broyden mixing:
  rms(total) = 0.15067E+01    rms(broyden)= 0.15062E+01
  rms(prec ) = 0.15925E+01
  weight for this iteration     100.00

 eigenvalues of (default mixing * dielectric matrix)
  average eigenvalue GAMMA=   0.9659
  2.0730  0.8950  0.3871  0.5084

 Free energy of the ion-electron system (eV)
  ---------------------------------------------------
  alpha Z        PSCENC =      2652.81237852
  Ewald energy   TEWEN  =    -41880.99060395
  -Hartree energ DENC   =    -25541.15173816
  -exchange      EXHF   =         0.00000000
  -V(xc)+E(xc)   XCENC  =      3707.21655839
  PAW double counting   =     70163.83432187   -73715.33061195
  entropy T*S    EENTRO =        -0.00000000
  eigenvalues    EBANDS =    -10150.78070407
  atomic energy  EATOM  =     73862.19814772
  Solvation  Ediel_sol  =         0.00000000
  ---------------------------------------------------
  free energy    TOTEN  =      -902.19225162 eV

  energy without entropy =     -902.19225162  energy(sigma->0) =     -902.19225162


--------------------------------------------------------------------------------------------------------




--------------------------------------- Iteration      1(  17)  ---------------------------------------


    POTLOK:  cpu time    0.1694: real time    0.1700
    SETDIJ:  cpu time    5.0137: real time    5.0181
    EDDIAG:  cpu time    4.4096: real time    4.8145
  RMM-DIIS:  cpu time   18.5384: real time   18.6551
    ORTHCH:  cpu time    1.1486: real time    1.2303
       DOS:  cpu time    0.0013: real time    0.0013
    CHARGE:  cpu time    1.8205: real time    1.8213
    MIXING:  cpu time    0.0019: real time    0.0019
    --------------------------------------------
      LOOP:  cpu time   31.1035: real time   31.7125

 eigenvalue-minimisations  : 20465
 total energy-change (2. order) : 0.1158481E+00  (-0.7322317E-01)
 number of electron     672.0000057 magnetization      48.0000060
 augmentation part      251.1354938 magnetization      33.9141510

 Broyden mixing:
  rms(total) = 0.79734E+00    rms(broyden)= 0.79719E+00
  rms(prec ) = 0.90136E+00
  weight for this iteration     100.00

 eigenvalues of (default mixing * dielectric matrix)
  average eigenvalue GAMMA=   0.9894
  2.2243  1.1120  0.3767  0.6828  0.5510

 Free energy of the ion-electron system (eV)
  ---------------------------------------------------
  alpha Z        PSCENC =      2652.81237852
  Ewald energy   TEWEN  =    -41880.99060395
  -Hartree energ DENC   =    -25531.47592256
  -exchange      EXHF   =         0.00000000
  -V(xc)+E(xc)   XCENC  =      3704.60331392
  PAW double counting   =     71082.33768262   -74642.77984291
  entropy T*S    EENTRO =        -0.00000000
  eigenvalues    EBANDS =    -10148.78155693
  atomic energy  EATOM  =     73862.19814772
  Solvation  Ediel_sol  =         0.00000000
  ---------------------------------------------------
  free energy    TOTEN  =      -902.07640357 eV

  energy without entropy =     -902.07640357  energy(sigma->0) =     -902.07640357


--------------------------------------------------------------------------------------------------------




--------------------------------------- Iteration      1(  18)  ---------------------------------------


    POTLOK:  cpu time    0.1684: real time    0.1696
    SETDIJ:  cpu time    5.0092: real time    5.0107
    EDDIAG:  cpu time    4.3915: real time    4.8106
  RMM-DIIS:  cpu time   17.7676: real time   17.8272
    ORTHCH:  cpu time    1.1513: real time    1.2296
       DOS:  cpu time    0.0011: real time    0.0011
    CHARGE:  cpu time    1.8196: real time    1.8228
    MIXING:  cpu time    0.0011: real time    0.0011
    --------------------------------------------
      LOOP:  cpu time   30.3099: real time   30.8726

 eigenvalue-minimisations  : 19176
 total energy-change (2. order) : 0.4273080E+00  (-0.6985780E-01)
 number of electron     672.0000052 magnetization      48.0000062
 augmentation part      250.6130031 magnetization      33.8769923

 Broyden mixing:
  rms(total) = 0.28809E+00    rms(broyden)= 0.28782E+00
  rms(prec ) = 0.30423E+00
  weight for this iteration     100.00

 eigenvalues of (default mixing * dielectric matrix)
  average eigenvalue GAMMA=   1.0165
  2.4542  1.3629  0.8466  0.3784  0.5839  0.4728

 Free energy of the ion-electron system (eV)
[...]
   4      -0.834    -0.508     1.342    -0.050    -0.036    -0.019
   5      -0.626    -0.859     1.485     0.126    -0.038    -0.098
   6      -0.835    -0.958     1.793    -0.153    -0.030    -0.127
   7      -0.843    -1.118     1.961    -0.104     0.064    -0.040
   8      -1.012    -0.529     1.541     0.023    -0.041     0.127
   9      -0.917    -1.123     2.040    -0.108     0.108    -0.067
  10      -0.889    -0.442     1.331    -0.017     0.079     0.002
  11      -0.624    -0.615     1.239     0.171    -0.027     0.013
  12      -0.635    -0.882     1.516     0.198    -0.014     0.001
  13      -0.679    -0.865     1.543    -0.245     0.025     0.014
  14      -0.601    -1.165     1.766    -0.125     0.009     0.097
  15      -0.768    -1.070     1.838     0.089    -0.016     0.038
  16      -0.792    -0.807     1.599    -0.291     0.027     0.066
  17       1.379     1.482    -2.860     0.050    -0.019     0.099
  18       1.297     1.595    -2.892    -0.196     0.052    -0.051
  19       1.530     1.285    -2.814    -0.019     0.003    -0.063
  20       1.614     1.445    -3.059     0.043     0.019    -0.036
  21       1.193     1.724    -2.917     0.035    -0.023     0.120
  22       1.264     1.674    -2.937    -0.065    -0.000    -0.015
  23       1.514     1.440    -2.955     0.013     0.083     0.063
  24       1.453     1.530    -2.983    -0.154    -0.071     0.096
  25      -0.483     1.753    -1.270     1.172     1.499    -0.726
  26       0.458    -0.852     0.394     0.193    -0.136     1.576
  27      -0.370    -0.947     1.318     1.799     0.504     0.274
  28       0.550    -2.445     1.896     1.654    -0.253    -0.734
  29      -0.179     0.174     0.005     0.338    -0.121     1.150
  30      -0.150     0.470    -0.320    -2.056     0.720    -0.379
  31      -0.945    -0.269     1.214     1.018     0.993     0.360
  32      -1.139     0.887     0.251     1.016     0.758     0.081
  33       1.445    -1.107    -0.338    -1.360    -0.133     0.769
  34       0.955    -0.127    -0.828    -0.385     0.614    -0.104
  35       0.233    -1.342     1.109     0.566     0.309    -0.021
  36       0.024    -0.304     0.279    -0.259     0.308     0.269
  37      -0.947     1.263    -0.316    -0.202    -1.430    -0.275
  38      -1.865    -1.288     3.153    -0.089    -0.619     0.380
  39      -0.667    -0.296     0.964     1.701     0.224     0.394
  40      -0.127    -1.064     1.191    -0.770    -0.381    -0.854
  41      -2.997     4.939    -1.942    -3.603     1.997    -2.869
  42      -4.636     1.979     2.657     4.429     2.417     4.629
  43       7.963    -6.698    -1.265    -0.107    -4.498     0.427
  44      -4.571     2.167     2.404    -3.775    -0.544     6.587
  45       6.635    -6.370    -0.265     0.561     4.262     0.251
  46      -1.769     2.616    -0.847     6.176    -1.400    -2.664
  47      -4.472     1.950     2.523    -6.057     0.653    -3.629
  48       6.192    -6.721     0.530     0.207    -5.174     1.995
  49      -4.471     3.945     0.527     4.541     1.963     4.923
  50      -5.078     2.852     2.227    -3.298    -1.947     3.875
  51      -2.458     1.759     0.699     5.131    -2.290    -4.906
  52       3.526    -6.291     2.764     0.733     6.578    -0.518
  53      -3.285     3.232     0.053    -7.949     2.334    -5.188
  54      -2.482     2.273     0.209     6.222     3.990     2.302
  55       4.774    -6.442     1.668    -3.435    -4.819    -1.559
  56      -4.739     2.190     2.549    -2.189    -1.743     5.428
  57       6.427    -4.719    -1.707     1.693     3.337    -0.323
  58      -2.646     2.429     0.218     6.913    -2.181    -4.128
  59      -2.566     2.940    -0.374    -3.386     3.687    -2.850
  60       5.489    -4.345    -1.144    -0.480    -3.533     2.293
  61      -0.820     1.687    -0.866     6.123     2.014     4.339
  62      -4.143     2.559     1.584    -4.988    -0.400     5.242
  63      -1.805     2.992    -1.187     5.561    -2.536    -3.645
  64       3.577    -6.266     2.688     0.594     5.492     0.305
  65      -4.122     2.453     1.669    -6.720     1.748    -4.236
  66      -2.735     0.767     1.968     4.273     2.662     4.765
  67       5.427    -6.964     1.537    -0.195    -4.577    -1.171
  68      -1.288     0.769     0.519    -4.261    -1.482     4.384
  69       4.355    -6.142     1.787    -0.634     5.483    -0.340
  70      -2.828     1.878     0.950     4.926    -1.281    -4.800
  71      -1.352     4.376    -3.024    -3.770     3.239    -2.478
  72       6.106    -5.827    -0.279    -0.811    -4.030    -0.730
  73      -1.177     1.976    -0.799     5.831     0.159     3.019
  74      -3.165     3.018     0.147    -4.855    -2.795     2.463
  75      -4.069     3.335     0.734     4.542    -3.228    -4.534
  76       4.261    -4.704     0.442    -1.302     3.511    -0.211
  77      -1.745     2.928    -1.183    -5.722     1.703    -4.266
  78      -4.581     3.635     0.946     2.840     0.649     5.069
  79       4.535    -5.242     0.707     0.213    -4.068    -0.477
  80      -2.041     0.876     1.165    -4.699    -2.222     4.224
  81       6.872    -7.231     0.359     0.238     5.346    -2.932
  82      -3.982     2.606     1.376     2.847    -2.600    -4.643
  83      -4.358     0.779     3.579    -3.628     2.188    -5.000
  84       4.577    -6.414     1.837     1.594    -4.874     1.575
  85      -5.905     3.471     2.434     3.450     1.457     4.158
  86      -2.456     0.501     1.955    -4.475    -2.862     3.849
  87      -4.684     3.784     0.900     3.999    -2.224    -3.335
  88       5.268    -5.241    -0.027    -1.777     4.698    -0.013
 ---------------------------------------------------------------------


 Total hyperfine coupling parameters after diagonalization (MHz)
 (convention: |A_zz| > |A_xx| > |A_yy|)
 ----------------------------------------------------------------------
  ion      A_xx      A_yy      A_zz     asymmetry (A_yy - A_xx)/ A_zz 
 ----------------------------------------------------------------------
   1       1.972     1.694     4.214      -0.066
   2       1.953     1.704     3.855      -0.064
   3       0.385    -0.002     2.938      -0.132
   4       1.984     1.642     3.827      -0.089
   5       2.544     2.201     4.608      -0.074
   6       0.374     0.041     2.905      -0.115
   7      -0.796    -0.453     2.320       0.148
   8       2.145     1.666     4.229      -0.113
   9      -0.271     0.021     2.944       0.099
  10       2.769     2.317     4.544      -0.099
  11       1.590     1.247     3.277      -0.105
  12       2.292     1.826     4.334      -0.108
  13       1.217     0.693     3.270      -0.160
  14       1.253     0.633     3.596      -0.173
  15       0.787     0.436     3.369      -0.104
  16       2.523     1.940     4.633      -0.126
  17      11.966     7.744    12.110      -0.349
  18      13.597     9.504    14.090      -0.291
  19      11.885     7.786    12.132      -0.338
  20      15.804    11.310    15.994      -0.281
  21      14.964    10.853    15.503      -0.265
  22      13.902     9.711    14.332      -0.292
  23      15.974    11.579    16.054      -0.274
  24      13.200     8.881    13.521      -0.319
  25      94.286    90.947    96.002      -0.035
  26      95.175    92.748    96.159      -0.025
  27      98.162    95.002    99.295      -0.032
  28     103.163    98.924   104.412      -0.041
  29      95.039    93.966    96.396      -0.011
  30      96.817    95.309    99.734      -0.015
  31      96.335    94.574    98.244      -0.018
  32      99.858    97.725   100.948      -0.021
  33      95.014    93.196    97.274      -0.019
  34      96.810    96.033    98.313      -0.008
  35      95.052    93.209    95.957      -0.019
  36      93.914    93.177    94.288      -0.008
  37      95.740    92.795    96.234      -0.031
  38      97.973    97.347   102.553      -0.006
  39      98.545    95.712    99.468      -0.028
  40      98.332    96.242    99.519      -0.021
  41       1.538    -0.455    11.871      -0.168
  42       6.574     1.566    17.130      -0.292
  43       6.309     2.633    19.166      -0.192
  44       3.109    -1.497    15.123      -0.305
  45       7.040     2.943    18.032      -0.227
  46       7.258     2.917    17.067      -0.254
  47       9.869     1.155    17.307      -0.504
  48       7.259     1.682    18.425      -0.303
  49       3.652    -0.096    15.539      -0.241
  50       5.552     0.477    14.332      -0.354
  51       4.263     0.909    15.737      -0.213
  52       5.278     1.930    18.208      -0.184
  53       7.776     1.640    21.745      -0.282
  54       7.740     1.639    17.687      -0.345
  55       8.566     0.468    17.314      -0.468
  56       3.024     0.652    14.419      -0.165
  57       3.948     1.305    14.323      -0.185
  58       7.713     2.221    19.304      -0.284
  59       6.250     2.300    14.806      -0.267
  60       6.266     2.050    14.931      -0.282
  61       4.627     1.134    16.235      -0.215
  62       8.151     1.946    18.012      -0.344
  63       4.525     2.242    16.362      -0.140
  64       5.918     1.986    16.958      -0.232
  65       9.777     2.337    20.045      -0.371
  66       6.051     3.069    17.026      -0.175
  67       3.742    -2.158    13.498      -0.437
  68       4.996     1.545    13.928      -0.248
  69       3.741     0.115    15.032      -0.241
  70       5.945     1.423    15.938      -0.284
  71       6.638     3.086    16.186      -0.219
  72       3.427    -0.711    13.459      -0.307
  73       9.145     3.918    17.386      -0.301
  74       6.242     1.376    14.913      -0.326
  75       4.229     0.477    16.012      -0.234
  76       5.335     2.000    13.394      -0.249
  77       6.267     3.294    17.987      -0.165
  78      -2.005     1.220    11.748       0.275
  79       4.632     1.201    13.614      -0.252
  80       4.663     1.175    14.533      -0.240
  81       5.682    -1.407    17.086      -0.415
  82       3.689     1.147    14.302      -0.178
  83       5.439     1.519    16.361      -0.240
  84       6.823     0.458    16.056      -0.396
  85       5.630    -0.392    14.702      -0.410
  86       4.385     0.727    14.142      -0.259
  87       6.709     1.592    15.646      -0.327
  88      -2.067     1.109    11.807       0.269
 ---------------------------------------------------------------------



--------------------------------------------------------------------------------------------------------


 stress matrix after NEB project (eV)
    -43.95095      0.56453     -4.58742
      0.57665    -45.55669      8.16782
     -4.57776      8.14504    -61.62530
  FORCES: max atom, RMS     3.541217    1.292077
  FORCE total and by dimension   12.120756    2.707851
  Stress total and by dimension   89.333549   61.625299
     LOOP+:  cpu time  737.7428: real time  752.5485
    4ORBIT:  cpu time    0.0000: real time    0.0000
 


 total charge     
 
# of ion       s       p       d       tot
------------------------------------------
    1        0.052   5.994   0.000   6.046
    2        0.054   5.997   0.000   6.050
    3        0.051   5.996   0.000   6.047
    4        0.051   5.992   0.000   6.043
    5        0.049   5.992   0.000   6.041
    6        0.049   5.991   0.000   6.040
    7        0.057   6.004   0.000   6.060
    8        0.052   5.995   0.000   6.047
    9        0.051   5.994   0.000   6.045
   10        0.048   5.990   0.000   6.038
   11        0.045   5.987   0.000   6.032
   12        0.050   5.992   0.000   6.043
   13        0.055   5.999   0.000   6.054
   14        0.055   6.000   0.000   6.055
   15        0.045   5.989   0.000   6.034
   16        0.054   5.997   0.000   6.051
   17        0.149   6.127   0.082   6.359
   18        0.148   6.127   0.083   6.357
   19        0.145   6.121   0.078   6.344
   20        0.151   6.132   0.088   6.371
   21        0.145   6.122   0.079   6.345
   22        0.153   6.134   0.089   6.376
   23        0.146   6.121   0.079   6.346
   24        0.154   6.136   0.090   6.380
   25        0.379   6.466   4.847  11.692
   26        0.372   6.449   4.828  11.648
   27        0.374   6.450   4.827  11.651
   28        0.363   6.429   4.810  11.602
   29        0.384   6.472   4.848  11.704
   30        0.371   6.440   4.833  11.645
   31        0.368   6.438   4.813  11.619
   32        0.367   6.440   4.809  11.617
   33        0.383   6.466   4.851  11.700
   34        0.382   6.466   4.854  11.702
   35        0.395   6.494   4.879  11.768
   36        0.386   6.478   4.851  11.715
   37        0.390   6.487   4.866  11.743
   38        0.368   6.436   4.812  11.617
   39        0.366   6.436   4.811  11.613
   40        0.357   6.414   4.787  11.558
   41        1.595   3.460   0.000   5.055
   42        1.599   3.521   0.000   5.121
   43        1.598   3.482   0.000   5.080
   44        1.602   3.470   0.000   5.072
   45        1.603   3.548   0.000   5.151
   46        1.599   3.512   0.000   5.111
   47        1.603   3.546   0.000   5.148
   48        1.600   3.502   0.000   5.103
   49        1.599   3.517   0.000   5.115
   50        1.598   3.504   0.000   5.102
   51        1.598   3.470   0.000   5.067
   52        1.601   3.523   0.000   5.124
   53        1.605   3.487   0.000   5.092
   54        1.600   3.515   0.000   5.115
   55        1.601   3.518   0.000   5.119
   56        1.599   3.497   0.000   5.096
   57        1.598   3.479   0.000   5.077
   58        1.602   3.521   0.000   5.123
   59        1.596   3.486   0.000   5.082
   60        1.599   3.511   0.000   5.110
   61        1.599   3.490   0.000   5.089
   62        1.604   3.519   0.000   5.123
   63        1.599   3.493   0.000   5.092
   64        1.598   3.503   0.000   5.101
   65        1.604   3.541   0.000   5.145
   66        1.601   3.532   0.000   5.133
   67        1.599   3.484   0.000   5.083
   68        1.599   3.518   0.000   5.117
   69        1.598   3.511   0.000   5.109
   70        1.600   3.523   0.000   5.123
   71        1.600   3.485   0.000   5.085
   72        1.599   3.477   0.000   5.076
   73        1.599   3.504   0.000   5.102
   74        1.598   3.511   0.000   5.110
   75        1.598   3.495   0.000   5.093
   76        1.597   3.520   0.000   5.117
   77        1.600   3.485   0.000   5.085
   78        1.595   3.471   0.000   5.066
   79        1.598   3.533   0.000   5.132
   80        1.599   3.501   0.000   5.099
   81        1.598   3.464   0.000   5.062
   82        1.597   3.505   0.000   5.102
   83        1.599   3.505   0.000   5.105
   84        1.597   3.496   0.000   5.093
   85        1.599   3.529   0.000   5.128
   86        1.600   3.505   0.000   5.104
   87        1.598   3.521   0.000   5.120
   88        1.597   3.476   0.000   5.073
--------------------------------------------------
tot         84.777 416.356  77.994 579.126
 


 magnetization (x)
 
# of ion       s       p       d       tot
------------------------------------------
    1        0.002  -0.000   0.000   0.002
    2        0.002   0.000   0.000   0.002
    3        0.001   0.000   0.000   0.001
    4        0.002   0.000   0.000   0.002
    5        0.002   0.000   0.000   0.003
    6        0.001   0.000   0.000   0.001
    7        0.000   0.000   0.000   0.000
    8        0.002   0.000   0.000   0.002
    9        0.001   0.000   0.000   0.001
   10        0.002   0.001   0.000   0.003
   11        0.002   0.000   0.000   0.002
   12        0.002   0.000   0.000   0.002
   13        0.001  -0.000   0.000   0.001
   14        0.001   0.001   0.000   0.002
   15        0.001   0.001   0.000   0.002
   16        0.002   0.001   0.000   0.003
   17        0.006   0.001   0.001   0.008
   18        0.007   0.002   0.001   0.010
   19        0.006   0.002   0.001   0.009
   20        0.008   0.003   0.001   0.012
   21        0.008   0.003   0.001   0.012
   22        0.007   0.003   0.001   0.011
   23        0.008   0.003   0.001   0.012
   24        0.006   0.002   0.001   0.010
   25        0.014   0.030   2.737   2.781
   26        0.015   0.030   2.753   2.798
   27        0.015   0.030   2.756   2.801
   28        0.017   0.031   2.794   2.841
   29        0.015   0.030   2.741   2.786
   30        0.016   0.029   2.750   2.795
   31        0.015   0.030   2.767   2.812
   32        0.016   0.031   2.777   2.824
   33        0.015   0.031   2.736   2.782
   34        0.016   0.030   2.730   2.775
   35        0.015   0.030   2.712   2.757
   36        0.014   0.030   2.728   2.772
   37        0.015   0.030   2.718   2.763
   38        0.016   0.030   2.775   2.820
   39        0.015   0.029   2.773   2.818
   40        0.015   0.029   2.805   2.849
   41        0.002  -0.009   0.000  -0.007
   42        0.002   0.050   0.000   0.052
   43        0.002   0.038   0.000   0.040
   44        0.002   0.008   0.000   0.010
   45        0.002   0.049   0.000   0.052
   46        0.002   0.040   0.000   0.042
   47        0.002   0.064   0.000   0.066
   48        0.002   0.052   0.000   0.054
   49        0.002   0.028   0.000   0.030
   50        0.002   0.023   0.000   0.025
   51        0.002   0.025   0.000   0.027
   52        0.002   0.042   0.000   0.044
   53        0.003   0.052   0.000   0.055
   54        0.002   0.052   0.000   0.054
   55        0.002   0.055   0.000   0.057
   56        0.002   0.016   0.000   0.018
   57        0.002   0.015   0.000   0.017
   58        0.002   0.056   0.000   0.058
   59        0.002   0.033   0.000   0.035
   60        0.002   0.026   0.000   0.028
   61        0.002   0.021   0.000   0.023
   62        0.002   0.052   0.000   0.054
   63        0.002   0.030   0.000   0.032
   64        0.002   0.043   0.000   0.045
   65        0.002   0.074   0.000   0.076
   66        0.002   0.052   0.000   0.054
   67        0.001   0.020   0.000   0.022
   68        0.002   0.031   0.000   0.032
   69        0.002   0.028   0.000   0.029
   70        0.002   0.043   0.000   0.045
   71        0.002   0.027   0.000   0.029
   72        0.002   0.008   0.000   0.010
   73        0.003   0.047   0.000   0.049
   74        0.002   0.039   0.000   0.041
   75        0.002   0.029   0.000   0.031
   76        0.002   0.032   0.000   0.034
   77        0.002   0.039   0.000   0.042
   78        0.001  -0.000   0.000   0.001
   79        0.002   0.027   0.000   0.029
   80        0.002   0.023   0.000   0.025
   81        0.002   0.026   0.000   0.028
   82        0.002   0.026   0.000   0.028
   83        0.002   0.039   0.000   0.041
   84        0.002   0.035   0.000   0.038
   85        0.002   0.031   0.000   0.033
   86        0.002   0.015   0.000   0.017
   87        0.002   0.038   0.000   0.040
   88        0.001  -0.004   0.000  -0.003
--------------------------------------------------
tot          0.421   2.089  44.060  46.570
 

 total amount of memory used by VASP MPI-rank0    94429. kBytes
=======================================================================

   base      :      30000. kBytes
   nonlr-proj:      13670. kBytes
   fftplans  :       1275. kBytes
   grid      :      22786. kBytes
   one-center:       2737. kBytes
   wavefun   :      23961. kBytes
 
  
  
 General timing and accounting informations for this job:
 ========================================================
  
                  Total CPU time used (sec):      758.940
                            User time (sec):      751.365
                          System time (sec):        7.575
                         Elapsed time (sec):      776.217
  
                   Maximum memory used (kb):      192264.
                   Average memory used (kb):           0.
  
                          Minor page faults:       294239
                          Major page faults:            0
                 Voluntary context switches:       246683
