 vasp.5.4.4.18Apr17-6-g9f103f2a35 (build Dec 02 2020 12:53:39) complex          
  
 executed on             LinuxIFC date 2021.08.03  07:22:38
 running on   96 total cores
 distrk:  each k-point on   96 cores,    1 groups
 distr:  one band on NCORES_PER_BAND=   1 cores,   96 groups


--------------------------------------------------------------------------------------------------------


 INCAR:
 POTCAR:    PAW_PBE Na_pv 19Sep2006               
 POTCAR:    PAW_PBE Mg_pv 13Apr2007               
 POTCAR:    PAW_PBE Mn_pv 02Aug2007               
 POTCAR:    PAW_PBE O 08Apr2002                   

 ----------------------------------------------------------------------------- 
|                                                                             |
|           W    W    AA    RRRRR   N    N  II  N    N   GGGG   !!!           |
|           W    W   A  A   R    R  NN   N  II  NN   N  G    G  !!!           |
|           W    W  A    A  R    R  N N  N  II  N N  N  G       !!!           |
|           W WW W  AAAAAA  RRRRR   N  N N  II  N  N N  G  GGG   !            |
|           WW  WW  A    A  R   R   N   NN  II  N   NN  G    G                |
|           W    W  A    A  R    R  N    N  II  N    N   GGGG   !!!           |
|                                                                             |
|      For optimal performance we recommend to set                            |
|        NCORE= 4 - approx SQRT( number of cores)                             |
|      NCORE specifies how many cores store one orbital (NPAR=cpu/NCORE).     |
|      This setting can  greatly improve the performance of VASP for DFT.     |
|      The default,   NCORE=1            might be grossly inefficient         |
|      on modern multi-core architectures or massively parallel machines.     |
|      Do your own testing !!!!                                               |
|      Unfortunately you need to use the default for GW and RPA calculations. |
|      (for HF NCORE is supported but not extensively tested yet)             |
|                                                                             |
 ----------------------------------------------------------------------------- 

 POTCAR:    PAW_PBE Na_pv 19Sep2006               
   VRHFIN =Na: p6s1                                                             
   LEXCH  = PE                                                                  
   EATOM  =   766.0439 eV,   56.3026 Ry                                         
                                                                                
   TITEL  = PAW_PBE Na_pv 19Sep2006                                             
   LULTRA =        F    use ultrasoft PP ?                                      
   IUNSCR =        1    unscreen: 0-lin 1-nonlin 2-no                           
   RPACOR =    1.800    partial core radius                                     
   POMASS =   22.990; ZVAL   =    7.000    mass and valenz                      
   RCORE  =    2.200    outmost cutoff radius                                   
   RWIGS  =    2.200; RWIGS  =    1.164    wigner-seitz radius (au A)           
   ENMAX  =  259.561; ENMIN  =  194.671 eV                                      
   ICORE  =        2    local potential                                         
   LCOR   =        T    correct aug charges                                     
   LPAW   =        T    paw PP                                                  
   EAUG   =  368.056                                                            
   DEXC   =    0.000                                                            
   RMAX   =    2.245    core radius for proj-oper                               
   RAUG   =    1.300    factor for augmentation sphere                          
   RDEP   =    2.259    radius for radial grids                                 
   RDEPT  =    1.738    core radius for aug-charge                              
                                                                                
   Atomic configuration                                                         
    5 entries                                                                   
     n  l   j            E        occ.                                          
     1  0  0.50     -1033.6933   2.0000                                         
     2  0  0.50       -56.7526   2.0000                                         
     2  1  1.50       -28.6721   6.0000                                         
     3  0  0.50        -2.7440   1.0000                                         
     3  2  1.50        -1.3606   0.0000                                         
   Description                                                                  
     l       E           TYP  RCUT    TYP  RCUT                                 
     1    -28.6720912     23  2.000                                             
     1      6.8029130     23  2.000                                             
     0     -2.7439560     23  2.200                                             
     0     34.0145650     23  2.200                                             
     2     -1.3605826     23  2.200                                             
  local pseudopotential read in
  partial core-charges read in
  partial kinetic energy density read in
  atomic valenz-charges read in
  non local Contribution for L=           1  read in
    real space projection operators read in
  non local Contribution for L=           1  read in
    real space projection operators read in
  non local Contribution for L=           0  read in
    real space projection operators read in
  non local Contribution for L=           0  read in
    real space projection operators read in
    PAW grid and wavefunctions read in
 
   number of l-projection  operators is LMAX  =           4
   number of lm-projection operators is LMMAX =           8
 
 POTCAR:    PAW_PBE Mg_pv 13Apr2007               
   VRHFIN =Mg: p6s2                                                             
   LEXCH  = PE                                                                  
   EATOM  =  1056.7344 eV,   77.6678 Ry                                         
                                                                                
   TITEL  = PAW_PBE Mg_pv 13Apr2007                                             
   LULTRA =        F    use ultrasoft PP ?                                      
   IUNSCR =        1    unscreen: 0-lin 1-nonlin 2-no                           
   RPACOR =    1.500    partial core radius                                     
   POMASS =   24.305; ZVAL   =    8.000    mass and valenz                      
   RCORE  =    2.000    outmost cutoff radius                                   
   RWIGS  =    2.000; RWIGS  =    1.058    wigner-seitz radius (au A)           
   ENMAX  =  403.929; ENMIN  =  302.947 eV                                      
   RCLOC  =    1.506    cutoff for local pot                                    
   LCOR   =        T    correct aug charges                                     
   LPAW   =        T    paw PP                                                  
   EAUG   =  758.780                                                            
   DEXC   =    0.000                                                            
   RMAX   =    2.045    core radius for proj-oper                               
   RAUG   =    1.300    factor for augmentation sphere                          
   RDEP   =    2.025    radius for radial grids                                 
   RDEPT  =    1.557    core radius for aug-charge                              
                                                                                
   Atomic configuration                                                         
    5 entries                                                                   
     n  l   j            E        occ.                                          
     1  0  0.50     -1259.6230   2.0000                                         
     2  0  0.50       -79.8442   2.0000                                         
     2  1  1.50       -46.6121   6.0000                                         
     3  0  0.50        -4.7055   2.0000                                         
     3  2  1.50        -1.3606   0.0000                                         
   Description                                                                  
     l       E           TYP  RCUT    TYP  RCUT                                 
     1    -46.6121073     23  1.600                                             
     1      2.7211652     23  1.600                                             
     0     -4.7054661     23  2.000                                             
     0     61.2262170     23  2.000                                             
     2     -1.3605826     23  2.000                                             
  local pseudopotential read in
  partial core-charges read in
  partial kinetic energy density read in
  atomic valenz-charges read in
  non local Contribution for L=           1  read in
    real space projection operators read in
  non local Contribution for L=           1  read in
    real space projection operators read in
  non local Contribution for L=           0  read in
    real space projection operators read in
  non local Contribution for L=           0  read in
    real space projection operators read in
  non local Contribution for L=           2  read in
    real space projection operators read in
    PAW grid and wavefunctions read in
 
   number of l-projection  operators is LMAX  =           5
   number of lm-projection operators is LMMAX =          13
 
 POTCAR:    PAW_PBE Mn_pv 02Aug2007               
   VRHFIN =Mn: 3p4s3d                                                           
   LEXCH  = PE                                                                  
   EATOM  =  2025.2664 eV,  148.8529 Ry                                         
                                                                                
   TITEL  = PAW_PBE Mn_pv 02Aug2007                                             
   LULTRA =        F    use ultrasoft PP ?                                      
   IUNSCR =        1    unscreen: 0-lin 1-nonlin 2-no                           
   RPACOR =    2.080    partial core radius                                     
   POMASS =   54.938; ZVAL   =   13.000    mass and valenz                      
   RCORE  =    2.300    outmost cutoff radius                                   
   RWIGS  =    2.500; RWIGS  =    1.323    wigner-seitz radius (au A)           
   ENMAX  =  269.864; ENMIN  =  202.398 eV                                      
   ICORE  =        3    local potential                                         
   LCOR   =        T    correct aug charges                                     
   LPAW   =        T    paw PP                                                  
   EAUG   =  569.085                                                            
   DEXC   =    0.000                                                            
   RMAX   =    2.343    core radius for proj-oper                               
   RAUG   =    1.300    factor for augmentation sphere                          
   RDEP   =    2.338    radius for radial grids                                 
   RDEPT  =    1.798    core radius for aug-charge                              
                                                                                
   Atomic configuration                                                         
    8 entries                                                                   
     n  l   j            E        occ.                                          
     1  0  0.50     -6424.8287   2.0000                                         
     2  0  0.50      -739.1154   2.0000                                         
     2  1  1.50      -625.3949   6.0000                                         
     3  0  0.50       -81.6100   2.0000                                         
     3  1  1.50       -50.4667   6.0000                                         
     3  2  2.50        -3.3745   6.0000                                         
     4  0  0.50        -4.1331   1.0000                                         
     4  3  2.50        -1.3606   0.0000                                         
   Description                                                                  
     l       E           TYP  RCUT    TYP  RCUT                                 
     1    -50.4666628     23  2.000                                             
     1     -1.3605826     23  2.000                                             
     2     -3.3744729     23  2.300                                             
     2     -4.7350555     23  2.300                                             
     0     -4.1331431     23  2.300                                             
     0      7.6656591     23  2.300                                             
     3      9.5240782     23  2.300                                             
  local pseudopotential read in
  partial core-charges read in
  partial kinetic energy density read in
  atomic valenz-charges read in
  non local Contribution for L=           1  read in
    real space projection operators read in
  non local Contribution for L=           1  read in
    real space projection operators read in
  non local Contribution for L=           2  read in
    real space projection operators read in
  non local Contribution for L=           2  read in
    real space projection operators read in
  non local Contribution for L=           0  read in
    real space projection operators read in
  non local Contribution for L=           0  read in
    real space projection operators read in
    PAW grid and wavefunctions read in
 
   number of l-projection  operators is LMAX  =           6
   number of lm-projection operators is LMMAX =          18
 
 POTCAR:    PAW_PBE O 08Apr2002                   
   VRHFIN =O: s2p4                                                              
   LEXCH  = PE                                                                  
   EATOM  =   432.3788 eV,   31.7789 Ry                                         
                                                                                
   TITEL  = PAW_PBE O 08Apr2002                                                 
   LULTRA =        F    use ultrasoft PP ?                                      
   IUNSCR =        1    unscreen: 0-lin 1-nonlin 2-no                           
   RPACOR =    1.200    partial core radius                                     
   POMASS =   16.000; ZVAL   =    6.000    mass and valenz                      
   RCORE  =    1.520    outmost cutoff radius                                   
   RWIGS  =    1.550; RWIGS  =    0.820    wigner-seitz radius (au A)           
   ENMAX  =  400.000; ENMIN  =  300.000 eV                                      
   ICORE  =        2    local potential                                         
   LCOR   =        T    correct aug charges                                     
   LPAW   =        T    paw PP                                                  
   EAUG   =  605.392                                                            
   DEXC   =    0.000                                                            
   RMAX   =    1.553    core radius for proj-oper                               
   RAUG   =    1.300    factor for augmentation sphere                          
   RDEP   =    1.550    radius for radial grids                                 
   RDEPT  =    1.329    core radius for aug-charge                              
                                                                                
   Atomic configuration                                                         
    4 entries                                                                   
     n  l   j            E        occ.                                          
     1  0  0.50      -514.6923   2.0000                                         
     2  0  0.50       -23.9615   2.0000                                         
     2  1  0.50        -9.0305   4.0000                                         
     3  2  1.50        -9.5241   0.0000                                         
   Description                                                                  
     l       E           TYP  RCUT    TYP  RCUT                                 
     0    -23.9615318     23  1.200                                             
     0     -9.5240782     23  1.200                                             
     1     -9.0304911     23  1.520                                             
     1      8.1634956     23  1.520                                             
     2     -9.5240782      7  1.500                                             
  local pseudopotential read in
  partial core-charges read in
  partial kinetic energy density read in
  kinetic energy density of atom read in
  atomic valenz-charges read in
  non local Contribution for L=           0  read in
    real space projection operators read in
  non local Contribution for L=           0  read in
    real space projection operators read in
  non local Contribution for L=           1  read in
    real space projection operators read in
  non local Contribution for L=           1  read in
    real space projection operators read in
    PAW grid and wavefunctions read in
 
   number of l-projection  operators is LMAX  =           4
   number of lm-projection operators is LMMAX =           8
 
 Optimization of the real space projectors (new method)

 maximal supplied QI-value         = 17.01
 optimisation between [QCUT,QGAM] = [ 10.20, 20.41] = [ 29.16,116.64] Ry 
 Optimized for a Real-space Cutoff    1.30 Angstroem

   l    n(q)    QCUT    max X(q) W(low)/X(q) W(high)/X(q)  e(spline) 
   1      7    10.205     4.940    0.23E-03    0.84E-03    0.11E-06
   1      7    10.205     6.253    0.40E-03    0.13E-02    0.18E-06
   0      8    10.205    37.438    0.23E-03    0.37E-03    0.42E-07
   0      8    10.205     9.606    0.16E-03    0.26E-03    0.31E-07
 Optimization of the real space projectors (new method)

 maximal supplied QI-value         = 18.90
 optimisation between [QCUT,QGAM] = [ 10.20, 20.41] = [ 29.16,116.64] Ry 
 Optimized for a Real-space Cutoff    1.26 Angstroem

   l    n(q)    QCUT    max X(q) W(low)/X(q) W(high)/X(q)  e(spline) 
   1      7    10.205     2.974    0.63E-04    0.14E-03    0.13E-06
   1      7    10.205     4.279    0.11E-03    0.45E-03    0.24E-06
   0      8    10.205    16.381    0.44E-03    0.15E-03    0.55E-07
   0      8    10.205     5.611    0.31E-03    0.11E-03    0.40E-07
   2      7    10.205     4.652    0.50E-03    0.47E-03    0.57E-07
 Optimization of the real space projectors (new method)

 maximal supplied QI-value         = 16.25
 optimisation between [QCUT,QGAM] = [ 10.24, 20.48] = [ 29.35,117.42] Ry 
 Optimized for a Real-space Cutoff    1.34 Angstroem

   l    n(q)    QCUT    max X(q) W(low)/X(q) W(high)/X(q)  e(spline) 
   1      8    10.239     3.658    0.23E-03    0.30E-03    0.98E-07
   1      8    10.239     5.612    0.32E-03    0.65E-03    0.21E-06
   2      7    10.239    55.373    0.42E-03    0.45E-03    0.65E-07
   2      7    10.239    50.863    0.43E-03    0.48E-03    0.67E-07
   0      8    10.239    79.536    0.11E-03    0.21E-03    0.56E-07
   0      8    10.239    38.668    0.96E-04    0.19E-03    0.52E-07
 Optimization of the real space projectors (new method)

 maximal supplied QI-value         = 24.76
 optimisation between [QCUT,QGAM] = [ 10.15, 20.30] = [ 28.85,115.39] Ry 
 Optimized for a Real-space Cutoff    1.38 Angstroem

   l    n(q)    QCUT    max X(q) W(low)/X(q) W(high)/X(q)  e(spline) 
   0      8    10.150    20.381    0.22E-03    0.32E-03    0.29E-06
   0      8    10.150    15.268    0.23E-03    0.35E-03    0.30E-06
   1      8    10.150     5.964    0.46E-03    0.53E-03    0.21E-06
   1      8    10.150     5.382    0.38E-03    0.45E-03    0.19E-06
  PAW_PBE Na_pv 19Sep2006               :
 energy of atom  1       EATOM= -766.0439
 kinetic energy error for atom=    0.0103 (will be added to EATOM!!)
  PAW_PBE Mg_pv 13Apr2007               :
 energy of atom  2       EATOM=-1056.7344
 kinetic energy error for atom=    0.0820 (will be added to EATOM!!)
  PAW_PBE Mn_pv 02Aug2007               :
 energy of atom  3       EATOM=-2025.2664
 kinetic energy error for atom=    0.0284 (will be added to EATOM!!)
  PAW_PBE O 08Apr2002                   :
 energy of atom  4       EATOM= -432.3788
 kinetic energy error for atom=    0.1156 (will be added to EATOM!!)
 
 
 POSCAR: Na Mg Mn  O                             
  positions in cartesian coordinates
  No initial velocities read in

 METAGGA = SCAN     LMAXTAU =  6    LMIXTAU =  F

 exchange correlation table for  LEXCH =        8
   RHO(1)=    0.500       N(1)  =     2000
   RHO(2)=  100.500       N(2)  =     4000

 VTST: version 3.2, (02/03/18)

 CHAIN: initializing optimizer
 
 OPT: Using VASP Dynamics algorithm
 CHAIN: Read ICHAIN            0
 
 POSCAR: Na Mg Mn  O                             
  positions in cartesian coordinates
  No initial velocities read in
 


--------------------------------------------------------------------------------------------------------


 ion  position               nearest neighbor table
   1  0.365  0.071  0.243-  42 2.14  51 2.22  11 2.74  26 2.81  28 2.95
   2  0.192  0.115  0.751-  58 2.28  48 2.37
   3  0.064  0.775  0.751-  47 2.33  73 2.36
   4  0.355  0.473  0.756-  83 2.23  85 2.28  80 2.33  38 2.97
   5  0.843  0.764  0.246-  65 2.31  54 2.37  74 2.38
   6  0.374  0.588  0.252-  78 2.23  87 2.30  38 2.90  40 2.90
   7  0.557  0.284  0.755-  71 2.28  48 2.37
   8  0.046  0.462  0.745-  70 2.29  80 2.33  73 2.33  39 2.79  37 2.92
   9  0.062  0.625  0.242-  77 2.27  67 2.35
  10  0.556  0.424  0.258-  52 2.21  74 2.35  43 2.37  35 2.78  33 2.93
  11  0.544  0.936  0.251-  88 2.28  79 2.37  62 2.37   1 2.74  31 2.78  29 2.86
  12  0.510  0.916  0.751-  81 2.17  84 2.27  49 2.36  29 2.77  31 2.84
  13  0.875  0.116  0.744-  57 2.28  56 2.32  60 2.34  58 2.36  32 2.84  30 2.88
  14  0.709  0.659  0.749-  69 2.27  85 2.35  82 2.38
  15  0.057  0.113  0.244-  41 2.37
  16  0.842  0.271  0.249-  62 2.30  53 2.33  75 2.35
  17  0.697  0.260  0.996-  53 2.02  49 2.04  60 2.08  43 2.10  71 2.11  66 2.21  29 2.76
  18  0.710  0.288  0.496-  75 1.96  68 2.03  46 2.09  52 2.10  62 2.11  57 2.12  36 2.80  39 2.82

  19  0.209  0.270  0.009-  41 1.96  61 2.08  78 2.09  48 2.10  55 2.10  83 2.10  26 2.83  33 2.83
                            30 2.85
  20  0.202  0.284  0.500-  80 2.02  87 2.03  64 2.06  58 2.10  50 2.17  45 2.18  39 2.86
  21  0.206  0.774  0.997-  47 2.00  84 2.00  42 2.02  73 2.04  77 2.07  67 2.09  37 2.84  26 2.85

  22  0.206  0.776  0.507-  81 2.00  86 2.01  70 2.01  76 2.07  44 2.09  51 2.10  40 2.81
  23  0.709  0.774  0.998-  59 2.06  54 2.06  72 2.06  65 2.07  79 2.09  85 2.09  25 2.85
  24  0.708  0.791  0.494-  63 1.98  88 2.01  56 2.04  74 2.07  82 2.11  69 2.12  32 2.78  31 2.80

  25  0.038  0.936  0.003-  54 1.87  72 1.91  67 1.91  47 1.91  41 1.94  61 1.95  23 2.85  26 2.86
                            30 2.89  34 2.90
  26  0.367  0.103  0.994-  41 1.88  43 1.90  42 1.92  47 1.93  48 1.94  49 1.96   1 2.81  19 2.83
                            21 2.85  25 2.86  29 2.89  33 2.92
  27  0.045  0.948  0.501-  44 1.87  58 1.89  50 1.90  63 1.96  69 2.03  76 2.05  28 2.83  32 2.92
                            36 2.93
  28  0.371  0.114  0.504-  52 1.82  44 1.87  45 1.90  50 1.93  51 1.94  46 1.98  27 2.83  35 2.84
                            31 2.93   1 2.95
  29  0.540  0.942  0.996-  49 1.88  59 1.89  84 1.90  79 1.95  53 1.97  42 1.98  17 2.76  12 2.77
                            11 2.86  38 2.88  26 2.89  30 2.96
  30  0.881  0.112  0.001-  61 1.85  55 1.87  60 1.94  53 1.97  54 1.99  59 2.09  19 2.85  13 2.88
                            25 2.89  37 2.91  29 2.96
  31  0.541  0.946  0.499-  46 1.89  88 1.90  81 1.94  56 1.94  51 1.95  62 1.97  11 2.78  24 2.80
                            12 2.84  32 2.87  40 2.88  28 2.93
  32  0.871  0.111  0.491-  64 1.85  63 1.88  62 1.89  56 1.89  57 2.03  58 2.08  24 2.78  13 2.84
                            31 2.87  39 2.92  27 2.92
  33  0.534  0.439  0.998-  85 1.87  71 1.90  78 1.92  43 1.94  65 1.94  48 2.01  19 2.83  34 2.89
                            38 2.89  26 2.92  10 2.93
  34  0.867  0.602  0.004-  66 1.87  72 1.89  67 1.92  73 1.96  71 1.98  65 1.98  37 2.85  33 2.89
                            25 2.90
  35  0.534  0.442  0.504-  87 1.84  52 1.85  82 1.95  74 1.96  45 1.98  68 2.05  10 2.78  28 2.84
                            36 2.92  40 2.93
  36  0.870  0.611  0.499-  68 1.79  69 1.91  76 1.91  70 1.91  74 1.97  75 2.03  18 2.80  39 2.85
                            35 2.92  27 2.93
  37  0.041  0.447  0.005-  77 1.86  66 1.86  73 1.96  83 1.96  55 1.96  60 2.05  21 2.84  34 2.85
                            38 2.87  30 2.91   8 2.92
  38  0.372  0.610  0.994-  84 1.83  83 1.87  78 1.90  79 1.94  85 1.96  77 1.99  37 2.87  29 2.88
                            33 2.89   6 2.90   4 2.97
  39  0.036  0.447  0.497-  75 1.83  70 1.89  86 1.90  80 1.95  64 1.96  57 1.98   8 2.79  18 2.82
                            36 2.85  20 2.86  40 2.89  32 2.92
  40  0.368  0.614  0.509-  80 1.88  81 1.89  82 1.90  86 1.98  87 1.98  88 2.01  22 2.81  31 2.88
                            39 2.89   6 2.90  35 2.93
  41  0.210  0.097  0.090-  26 1.88  25 1.94  19 1.96  15 2.37
  42  0.376  0.949  0.091-  26 1.92  29 1.98  21 2.02   1 2.14
  43  0.519  0.267  0.089-  26 1.90  33 1.94  17 2.10  10 2.37
  44  0.208  0.962  0.593-  27 1.87  28 1.87  22 2.09
  45  0.380  0.272  0.604-  28 1.90  35 1.98  20 2.18
  46  0.537  0.103  0.591-  31 1.89  28 1.98  18 2.09
  47  0.198  0.942  0.906-  25 1.91  26 1.93  21 2.00   3 2.33
  48  0.375  0.267  0.897-  26 1.94  33 2.01  19 2.10   7 2.37   2 2.37
  49  0.523  0.087  0.900-  29 1.88  26 1.96  17 2.04  12 2.36
  50  0.206  0.098  0.405-  27 1.90  28 1.93  20 2.17
  51  0.381  0.957  0.408-  28 1.94  31 1.95  22 2.10   1 2.22
  52  0.515  0.276  0.416-  28 1.82  35 1.85  18 2.10  10 2.21
  53  0.708  0.099  0.095-  29 1.97  30 1.97  17 2.02  16 2.33
  54  0.887  0.946  0.094-  25 1.87  30 1.99  23 2.06   5 2.37
  55  0.025  0.273  0.096-  30 1.87  37 1.96  19 2.10
  56  0.714  0.966  0.592-  32 1.89  31 1.94  24 2.04  13 2.32
  57  0.883  0.278  0.599-  39 1.98  32 2.03  18 2.12  13 2.28
  58  0.033  0.096  0.598-  27 1.89  32 2.08  20 2.10   2 2.28  13 2.36
  59  0.697  0.943  0.902-  29 1.89  23 2.06  30 2.09
  60  0.881  0.271  0.902-  30 1.94  37 2.05  17 2.08  13 2.34
  61  0.028  0.097  0.912-  30 1.85  25 1.95  19 2.08
  62  0.708  0.105  0.402-  32 1.89  31 1.97  18 2.11  16 2.30  11 2.37
  63  0.885  0.956  0.407-  32 1.88  27 1.96  24 1.98
  64  0.021  0.275  0.405-  32 1.85  39 1.96  20 2.06
  65  0.696  0.594  0.098-  33 1.94  34 1.98  23 2.07   5 2.31
  66  0.887  0.455  0.093-  37 1.86  34 1.87  17 2.21
  67  0.025  0.769  0.093-  25 1.91  34 1.92  21 2.09   9 2.35
  68  0.723  0.466  0.592-  36 1.79  18 2.03  35 2.05
  69  0.876  0.771  0.595-  36 1.91  27 2.03  24 2.12  14 2.27
  70  0.026  0.600  0.590-  39 1.89  36 1.91  22 2.01   8 2.29
  71  0.696  0.445  0.906-  33 1.90  34 1.98  17 2.11   7 2.28
  72  0.887  0.768  0.911-  34 1.89  25 1.91  23 2.06
  73  0.027  0.600  0.906-  37 1.96  34 1.96  21 2.04   8 2.33   3 2.36
  74  0.698  0.604  0.408-  35 1.96  36 1.97  24 2.07  10 2.35   5 2.38
  75  0.884  0.446  0.404-  39 1.83  18 1.96  36 2.03  16 2.35
  76  0.031  0.768  0.405-  36 1.91  27 2.05  22 2.07
  77  0.203  0.597  0.095-  37 1.86  38 1.99  21 2.07   9 2.27
  78  0.387  0.463  0.093-  38 1.90  33 1.92  19 2.09   6 2.23
  79  0.529  0.774  0.091-  38 1.94  29 1.95  23 2.09  11 2.37
  80  0.202  0.456  0.594-  40 1.88  39 1.95  20 2.02   8 2.33   4 2.33
  81  0.383  0.783  0.596-  40 1.89  31 1.94  22 2.00  12 2.17
  82  0.530  0.608  0.592-  40 1.90  35 1.95  24 2.11  14 2.38
  83  0.207  0.449  0.912-  38 1.87  37 1.96  19 2.10   4 2.23
  84  0.381  0.773  0.912-  38 1.83  29 1.90  21 2.00  12 2.27
  85  0.530  0.592  0.905-  33 1.87  38 1.96  23 2.09   4 2.28  14 2.35
  86  0.201  0.606  0.410-  39 1.90  40 1.98  22 2.01
  87  0.386  0.456  0.415-  35 1.84  40 1.98  20 2.03   6 2.30
  88  0.528  0.782  0.407-  31 1.90  40 2.01  24 2.01  11 2.28
 
  LATTYP: Found a hexagonal cell.
 ALAT       =    10.0190000534
 C/A-ratio  =     1.1196726572
  
  Lattice vectors:
  
 A1 = (  10.0190000534,   0.0000000000,   0.0000000000)
 A2 = (  -5.0095000267,   8.6767085668,   0.0000000000)
 A3 = (   0.0000000000,   0.0000000000,  11.2180004120)


Analysis of symmetry for initial positions (statically):
=====================================================================
 Subroutine PRICEL returns:
 Original cell was already a primitive cell.
 

 Routine SETGRP: Setting up the symmetry group for a 
 hexagonal supercell.


 Subroutine GETGRP returns: Found  1 space group operations
 (whereof  1 operations were pure point group operations)
 out of a pool of 24 trial point group operations.


The static configuration has the point symmetry C_1 .


Analysis of symmetry for dynamics (positions and initial velocities):
=====================================================================
 Subroutine PRICEL returns:
 Original cell was already a primitive cell.
 

 Routine SETGRP: Setting up the symmetry group for a 
 hexagonal supercell.


 Subroutine GETGRP returns: Found  1 space group operations
 (whereof  1 operations were pure point group operations)
 out of a pool of 24 trial point group operations.


The dynamic configuration has the point symmetry C_1 .


Analysis of structural, dynamic, and magnetic symmetry:
=====================================================================
 Subroutine PRICEL returns:
 Original cell was already a primitive cell.
 

 Routine SETGRP: Setting up the symmetry group for a 
 hexagonal supercell.


 Subroutine GETGRP returns: Found  1 space group operations
 (whereof  1 operations were pure point group operations)
 out of a pool of 24 trial point group operations.


The magnetic configuration has the point symmetry C_1 .


 Subroutine INISYM returns: Found  1 space group operations
 (whereof  1 operations are pure point group operations),
 and found     1 'primitive' translations

 
 

Automatic generation of k-mesh.
 generate k-points for:    2    2    2
Space group operators:
 irot       det(A)        alpha          n_x          n_y          n_z        tau_x        tau_y        tau_z
    1     1.000000     0.000000     1.000000     0.000000     0.000000     0.000000     0.000000     0.000000
 
 Subroutine IBZKPT returns following result:
 ===========================================
 
 Found      8 irreducible k-points:
 
 Following reciprocal coordinates:
            Coordinates               Weight
  0.000000  0.000000  0.000000      1.000000
  0.500000 -0.000000 -0.000000      1.000000
  0.000000  0.500000  0.000000      1.000000
  0.500000  0.500000 -0.000000      1.000000
  0.000000  0.000000  0.500000      1.000000
  0.500000 -0.000000  0.500000      1.000000
  0.000000  0.500000  0.500000      1.000000
  0.500000  0.500000  0.500000      1.000000
 
 Following cartesian coordinates:
            Coordinates               Weight
  0.000000  0.000000  0.000000      1.000000
  0.049905  0.028813 -0.000000      1.000000
  0.000000  0.057626  0.000000      1.000000
  0.049905  0.086438 -0.000000      1.000000
  0.000000  0.000000  0.044571      1.000000
  0.049905  0.028813  0.044571      1.000000
  0.000000  0.057626  0.044571      1.000000
  0.049905  0.086438  0.044571      1.000000
 


--------------------------------------------------------------------------------------------------------




 Dimension of arrays:
   k-points           NKPTS =      8   k-points in BZ     NKDIM =      8   number of bands    NBANDS=    480
   number of dos      NEDOS =    301   number of ions     NIONS =     88
   non local maximal  LDIM  =      6   non local SUM 2l+1 LMDIM =     18
   total plane-waves  NPLWV = 140000
   max r-space proj   IRMAX =   1632   max aug-charges    IRDMAX=   4555
   dimension x,y,z NGX =    50 NGY =   50 NGZ =   56
   dimension x,y,z NGXF=   100 NGYF=  100 NGZF=  112
   support grid    NGXF=   100 NGYF=  100 NGZF=  112
   ions per type =              16   8  16  48
   NGX,Y,Z   is equivalent  to a cutoff of   8.30,  8.30,  8.30 a.u.
   NGXF,Y,Z  is equivalent  to a cutoff of  16.59, 16.59, 16.60 a.u.

 SYSTEM =  unknown system                          
 POSCAR =  Na Mg Mn  O                             

 Startparameter for this run:
   NWRITE =      2    write-flag & timer
   PREC   = normal    normal or accurate (medium, high low for compatibility)
   ISTART =      0    job   : 0-new  1-cont  2-samecut
   ICHARG =      1    charge: 1-file 2-atom 10-const
   ISPIN  =      2    spin polarized calculation?
   LNONCOLLINEAR =      F non collinear calculations
   LSORBIT =      F    spin-orbit coupling
   INIWAV =      1    electr: 0-lowe 1-rand  2-diag
   LASPH  =      T    aspherical Exc in radial PAW
   METAGGA=      F    non-selfconsistent MetaGGA calc.

 Electronic Relaxation 1
   ENCUT  =  400.0 eV  29.40 Ry    5.42 a.u.  16.34 16.34 18.29*2*pi/ulx,y,z
   ENINI  =  400.0     initial cutoff
   ENAUG  =  758.8 eV  augmentation charge cutoff
   NELM   =    200;   NELMIN=  6; NELMDL=-12     # of ELM steps 
   EDIFF  = 0.1E-04   stopping-criterion for ELM
   LREAL  =      T    real-space projection
   NLSPLINE    = F    spline interpolate recip. space projectors
   LCOMPAT=      F    compatible to vasp.4.4
   GGA_COMPAT  = T    GGA compatible to vasp.4.4-vasp.4.6
   LMAXPAW     = -100 max onsite density
   LMAXMIX     =    4 max onsite mixed and CHGCAR
   VOSKOWN=      0    Vosko Wilk Nusair interpolation
   ROPT   =   -0.00050  -0.00050  -0.00050  -0.00050
 Ionic relaxation
   EDIFFG = 0.1E-03   stopping-criterion for IOM
   NSW    =      1    number of steps for IOM
   NBLOCK =      1;   KBLOCK =      1    inner block; outer block 
   IBRION =     -1    ionic relax: 0-MD 1-quasi-New 2-CG
   NFREE  =      0    steps in history (QN), initial steepest desc. (CG)
   ISIF   =      2    stress and relaxation
   IWAVPR =     10    prediction:  0-non 1-charg 2-wave 3-comb
   ISYM   =      2    0-nonsym 1-usesym 2-fastsym
   LCORR  =      T    Harris-Foulkes like correction to forces

   POTIM  = 0.5000    time-step for ionic-motion
   TEIN   =    0.0    initial temperature
   TEBEG  =    0.0;   TEEND  =   0.0 temperature during run
   SMASS  =  -3.00    Nose mass-parameter (am)
   estimated Nose-frequenzy (Omega)   =  0.10E-29 period in steps =****** mass=  -0.229E-26a.u.
   SCALEE = 1.0000    scale energy and forces
   NPACO  =    256;   APACO  = 16.0  distance and # of slots for P.C.
   PSTRESS=    0.0 pullay stress

  Mass of Ions in am
   POMASS =  22.99 24.30 54.94 16.00
  Ionic Valenz
   ZVAL   =   7.00  8.00 13.00  6.00
  Atomic Wigner-Seitz radii
   RWIGS  =  -1.00 -1.00 -1.00 -1.00
  virtual crystal weights 
   VCA    =   1.00  1.00  1.00  1.00
   NELECT =     672.0000    total number of electrons
   NUPDOWN=      48.0000    fix difference up-down

 DOS related values:
   EMIN   =  10.00;   EMAX   =-10.00  energy-range for DOS
   EFERMI =   0.00
   ISMEAR =     0;   SIGMA  =   0.05  broadening in eV -4-tet -1-fermi 0-gaus

 Electronic relaxation 2 (details)
   IALGO  =     48    algorithm
   LDIAG  =      T    sub-space diagonalisation (order eigenvalues)
   LSUBROT=      F    optimize rotation matrix (better conditioning)
   TURBO    =      0    0=normal 1=particle mesh
   IRESTART =      0    0=no restart 2=restart with 2 vectors
   NREBOOT  =      0    no. of reboots
   NMIN     =      0    reboot dimension
   EREF     =   0.00    reference energy to select bands
   IMIX   =      4    mixing-type and parameters
     AMIX     =   0.40;   BMIX     =  1.00
     AMIX_MAG =   1.60;   BMIX_MAG =  1.00
     AMIN     =   0.10
     WC   =   100.;   INIMIX=   1;  MIXPRE=   1;  MAXMIX= -45

 Intra band minimization:
   WEIMIN = 0.0000     energy-eigenvalue tresh-hold
   EBREAK =  0.52E-08  absolut break condition
   DEPER  =   0.30     relativ break condition  

   TIME   =   0.40     timestep for ELM

  volume/ion in A,a.u.               =      11.08        74.78
  Fermi-wavevector in a.u.,A,eV,Ry     =   1.445993  2.732531 28.448379  2.090897
  Thomas-Fermi vector in A             =   2.564112
 
 Write flags
   LWAVE        =      F    write WAVECAR
   LDOWNSAMPLE  =      F    k-point downsampling of WAVECAR
   LCHARG       =      F    write CHGCAR
   LVTOT        =      F    write LOCPOT, total local potential
   LVHAR        =      F    write LOCPOT, Hartree potential only
   LELF         =      F    write electronic localiz. function (ELF)
   LORBIT       =     11    0 simple, 1 ext, 2 COOP (PROOUT), +10 PAW based schemes


 Dipole corrections
   LMONO  =      F    monopole corrections only (constant potential shift)
   LDIPOL =      F    correct potential (dipole corrections)
   IDIPOL =      0    1-x, 2-y, 3-z, 4-all directions 
   EPSILON=  1.0000000 bulk dielectric constant

 Exchange correlation treatment:
   GGA     =    --    GGA type
   LEXCH   =     8    internal setting for exchange type
   VOSKOWN=      0    Vosko Wilk Nusair interpolation
   LHFCALC =     F    Hartree Fock is set to
   LHFONE  =     F    Hartree Fock one center treatment
   AEXX    =    0.0000 exact exchange contribution

 Linear response parameters
   LEPSILON=     F    determine dielectric tensor
   LRPA    =     F    only Hartree local field effects (RPA)
   LNABLA  =     F    use nabla operator in PAW spheres
   LVEL    =     F    velocity operator in full k-point grid
   LINTERFAST=   F  fast interpolation
   KINTER  =     0    interpolate to denser k-point grid
   CSHIFT  =0.1000    complex shift for real part using Kramers Kronig
   OMEGAMAX=  -1.0    maximum frequency
   DEG_THRESHOLD= 0.2000000E-02 threshold for treating states as degnerate
   RTIME   =   -0.100 relaxation time in fs
  (WPLASMAI=    0.000 imaginary part of plasma frequency in eV, 0.658/RTIME)
   DFIELD  = 0.0000000 0.0000000 0.0000000 field for delta impulse in time
 
 Orbital magnetization related:
   ORBITALMAG=     F  switch on orbital magnetization
   LCHIMAG   =     F  perturbation theory with respect to B field
   DQ        =  0.001000  dq finite difference perturbation B field
   LLRAUG    =     F  two centre corrections for induced B field



--------------------------------------------------------------------------------------------------------


 Static calculation
 charge density and potential will be updated during run
 spin polarized calculation
 RMM-DIIS sequential band-by-band
 perform sub-space diagonalisation
    before iterative eigenvector-optimisation
 modified Broyden-mixing scheme, WC =      100.0
 initial mixing is a Kerker type mixing with AMIX =  0.4000 and BMIX =      1.0000
 Hartree-type preconditioning will be used
 using additional bands          144
 real space projection scheme for non local part
 use partial core corrections
 calculate Harris-corrections to forces 
   (improved forces if not selfconsistent)
 use gradient corrections 
 use of overlap-Matrix (Vanderbilt PP)
 Gauss-broadening in eV      SIGMA  =   0.05


--------------------------------------------------------------------------------------------------------


  energy-cutoff  :      400.00
  volume of cell :      975.20
      direct lattice vectors                 reciprocal lattice vectors
    10.019000053  0.000000000  0.000000000     0.099810360  0.057625538 -0.000000000
    -5.009500027  8.676708567  0.000000000     0.000000000  0.115251076  0.000000000
     0.000000000  0.000000000 11.218000412     0.000000000  0.000000000  0.089142446

  length of vectors
    10.019000053 10.019000053 11.218000412     0.115251076  0.115251076  0.089142446


 
 k-points in units of 2pi/SCALE and weight: read from INCAR                         
   0.00000000  0.00000000  0.00000000       0.125
   0.04990518  0.02881277 -0.00000000       0.125
   0.00000000  0.05762554  0.00000000       0.125
   0.04990518  0.08643831 -0.00000000       0.125
   0.00000000  0.00000000  0.04457122       0.125
   0.04990518  0.02881277  0.04457122       0.125
   0.00000000  0.05762554  0.04457122       0.125
   0.04990518  0.08643831  0.04457122       0.125
 
 k-points in reciprocal lattice and weights: read from INCAR                         
   0.00000000  0.00000000  0.00000000       0.125
   0.50000000 -0.00000000 -0.00000000       0.125
   0.00000000  0.50000000  0.00000000       0.125
   0.50000000  0.50000000 -0.00000000       0.125
   0.00000000  0.00000000  0.50000000       0.125
   0.50000000 -0.00000000  0.50000000       0.125
   0.00000000  0.50000000  0.50000000       0.125
   0.50000000  0.50000000  0.50000000       0.125
 
 position of ions in fractional coordinates (direct lattice) 
   0.36482351  0.07141763  0.24336958
   0.19150055  0.11477871  0.75071044
   0.06402461  0.77480038  0.75051343
   0.35495195  0.47315374  0.75596093
   0.84297372  0.76431056  0.24585843
   0.37359979  0.58842128  0.25183543
   0.55708244  0.28390242  0.75452841
   0.04630002  0.46247129  0.74542429
   0.06201247  0.62451002  0.24225351
   0.55619324  0.42355528  0.25821803
   0.54428506  0.93584829  0.25146193
   0.51034811  0.91560987  0.75086911
   0.87516278  0.11613654  0.74401049
   0.70892372  0.65906904  0.74911746
   0.05701731  0.11333593  0.24373952
   0.84177916  0.27076265  0.24895881
   0.69668154  0.26037177  0.99564947
   0.71039873  0.28814152  0.49602423
   0.20851282  0.26962989  0.00854249
   0.20174446  0.28417343  0.50041895
   0.20631611  0.77418527  0.99690672
   0.20629799  0.77646264  0.50743714
   0.70907909  0.77439734  0.99783145
   0.70759979  0.79080794  0.49445176
   0.03750571  0.93608538  0.00259856
   0.36705829  0.10285398  0.99443433
   0.04518890  0.94808417  0.50149401
   0.37127344  0.11411689  0.50399802
   0.53974316  0.94227782  0.99624707
   0.88074131  0.11230007  0.00107859
   0.54056077  0.94582640  0.49910053
   0.87109371  0.11067330  0.49090567
   0.53406356  0.43907433  0.99827179
   0.86656084  0.60153570  0.00431330
   0.53357306  0.44174239  0.50389105
   0.87010606  0.61053451  0.49948652
   0.04112306  0.44734244  0.00530656
   0.37171746  0.60983954  0.99427257
   0.03582121  0.44735858  0.49730164
   0.36802268  0.61424098  0.50912817
   0.21031147  0.09725335  0.09001693
   0.37620161  0.94914143  0.09091727
   0.51851037  0.26710359  0.08858219
   0.20790116  0.96232592  0.59316721
   0.37967518  0.27161106  0.60389461
   0.53739164  0.10287991  0.59060258
   0.19824175  0.94205291  0.90638257
   0.37534312  0.26730067  0.89699587
   0.52304153  0.08728679  0.90035654
   0.20619649  0.09825984  0.40516044
   0.38079512  0.95745610  0.40804242
   0.51457698  0.27619459  0.41649669
   0.70782811  0.09875634  0.09512925
   0.88681018  0.94605673  0.09416206
   0.02471113  0.27260222  0.09625156
   0.71355652  0.96589536  0.59156710
   0.88250494  0.27822878  0.59869404
   0.03314439  0.09619396  0.59770902
   0.69704876  0.94305053  0.90221961
   0.88096749  0.27120537  0.90189870
   0.02765120  0.09747429  0.91194505
   0.70841058  0.10461236  0.40199321
   0.88457949  0.95569057  0.40711534
   0.02141057  0.27494412  0.40477000
   0.69550834  0.59445814  0.09777411
   0.88657137  0.45453411  0.09265822
   0.02546340  0.76872698  0.09343822
   0.72300059  0.46607305  0.59239524
   0.87588176  0.77070354  0.59494204
   0.02628212  0.59993026  0.59005257
   0.69574130  0.44489912  0.90640039
   0.88665855  0.76769779  0.91070597
   0.02732500  0.60018150  0.90568726
   0.69838584  0.60351687  0.40789177
   0.88439881  0.44561368  0.40435638
   0.03062996  0.76765976  0.40520590
   0.20267594  0.59722531  0.09499911
   0.38686828  0.46296703  0.09253521
   0.52858497  0.77432934  0.09116420
   0.20166787  0.45605658  0.59368424
   0.38285528  0.78302157  0.59585040
   0.53011047  0.60761289  0.59210374
   0.20718642  0.44897670  0.91236402
   0.38132508  0.77253834  0.91180243
   0.52992552  0.59153883  0.90509000
   0.20062227  0.60606738  0.40974147
   0.38647282  0.45647494  0.41536101
   0.52840683  0.78154867  0.40655552
 
 position of ions in cartesian coordinates  (Angst):
   3.29740011  0.61967000  2.73012000
   1.34366003  0.99590143  8.42147000
  -3.23989995  6.72271713  8.41926000
   1.18599995  4.10541713  8.48037000
   4.61694000  6.63170000  2.75804000
   0.79539989  5.10556000  2.82509000
   4.15919981  2.46333857  8.46430000
  -1.85287003  4.01272857  8.36217000
  -2.50717997  5.41869143  2.71760000
   3.45069989  3.67506573  2.89669000
   0.76506000  8.12008287  2.82090000
   0.52643005  7.94448000  8.42325000
   8.18647000  1.00768287  8.34631000
   3.80110037  5.71855000  8.40360000
   0.00350011  0.98338287  2.73427000
   7.07739997  2.34932857  2.79282000
   5.67572000  2.25917000 11.16919611
   5.67404000  2.50012000  5.56440000
   0.73837900  2.33950000  0.09582970
   0.59771100  2.46569000  5.61370000
  -1.81120000  6.71738000 11.18330000
  -1.82279000  6.73714000  5.69243000
   3.22492000  6.71922000 11.19367361
   3.12789000  6.86161000  5.54676000
  -4.31355005  8.12214000  0.02915070
   3.16231000  0.89243400 11.15556471
  -4.29668005  8.22625000  5.62576000
   3.14812000  0.99015900  5.65385000
   0.68734600  8.17587000 11.17590000
   8.26158000  0.97439500  0.01209959
   0.67776100  8.20666000  5.59891000
   8.17307000  0.96028000  5.50698000
   3.15124000  3.80972000 11.19861331
   5.66868000  5.21935000  0.04838660
   3.13296000  3.83287000  5.65265000
   5.65912000  5.29743000  5.60324000
  -1.82895005  3.88146000  0.05952900
   0.66924600  5.29140000 11.15375011
  -1.88215005  3.88160000  5.57873000
   0.61017900  5.32959000  5.71140000
   1.61992000  0.84383900  1.00981000
  -0.98556003  8.23542357  1.01991000
   3.85690000  2.31758000  0.99371500
  -2.73781003  8.34982157  6.65415000
   2.44333000  2.35669000  6.77449000
   4.86875000  0.89265900  6.62538000
  -2.73303003  8.17391857 10.16780000
   2.42152000  2.31929000 10.06250000
   4.80309000  0.75736200 10.10020000
   1.57365000  0.85257200  4.54509000
  -0.98119003  8.30756757  4.57742000
   3.77195000  2.39646000  4.67226000
   6.59701000  0.85688000  1.06716000
   4.14567997  8.20865857  1.05631000
  -1.11802005  2.36529000  1.07975000
   2.31046997  8.38079257  6.63620000
   7.44803000  2.41411000  6.71615000
  -0.14981005  0.83464700  6.70510000
   2.25951997  8.18257457 10.12110000
   7.46781000  2.35317000 10.11750000
  -0.21126005  0.84575600 10.23020000
   6.57351000  0.90769100  4.50956000
   4.07506997  8.29224857  4.56702000
  -1.16282005  2.38561000  4.54071000
   3.99036000  5.15794000  1.09683000
   6.60557000  3.94386000  1.03944000
  -3.59582005  6.67002000  1.04819000
   4.90895000  4.04398000  6.64549000
   4.91462000  6.68717000  6.67406000
  -2.74203005  5.20542000  6.61921000
   4.74191000  3.86026000 10.16800000
   5.03765000  6.66109000 10.21630000
  -2.73284005  5.20760000 10.16000000
   3.97381000  5.23654000  4.57573000
   6.62849000  3.86646000  4.53607000
  -3.53871005  6.66076000  4.54560000
  -0.96119000  5.18195000  1.06570000
   1.55680000  4.01703000  1.03806000
   1.41689000  6.71863000  1.02268000
  -0.26410500  3.95707000  6.65995000
  -0.08671950  6.79405000  6.68425000
   2.26734000  5.27208000  6.64222000
  -0.17334800  3.89564000 10.23490000
  -0.04953480  6.70309000 10.22860000
   2.34601000  5.13261000 10.15330000
  -1.02606000  5.25867000  4.59648000
   1.58536000  3.96070000  4.65952000
   1.37894000  6.78127000  4.56074000
 


--------------------------------------------------------------------------------------------------------


 k-point  1 :   0.0000 0.0000 0.0000  plane waves:   17725
 k-point  2 :   0.5000-0.0000-0.0000  plane waves:   17736
 k-point  3 :   0.0000 0.5000 0.0000  plane waves:   17736
 k-point  4 :   0.5000 0.5000-0.0000  plane waves:   17736
 k-point  5 :   0.0000 0.0000 0.5000  plane waves:   17676
 k-point  6 :   0.5000-0.0000 0.5000  plane waves:   17700
 k-point  7 :   0.0000 0.5000 0.5000  plane waves:   17700
 k-point  8 :   0.5000 0.5000 0.5000  plane waves:   17700

 maximum and minimum number of plane-waves per node :     17736    17676

 maximum number of plane-waves:     17736
 maximum index in each direction: 
   IXMAX=   16   IYMAX=   16   IZMAX=   18
   IXMIN=  -16   IYMIN=  -16   IZMIN=  -18


 serial   3D FFT for wavefunctions
 parallel 3D FFT for charge:
    minimum data exchange during FFTs selected (reduces bandwidth)


 total amount of memory used by VASP MPI-rank0    94434. kBytes
=======================================================================

   base      :      30000. kBytes
   nonlr-proj:      13675. kBytes
   fftplans  :       1275. kBytes
   grid      :      22786. kBytes
   one-center:       2737. kBytes
   wavefun   :      23961. kBytes
 
     INWAV:  cpu time    0.0000: real time    0.0001
 Broyden mixing: mesh for mixing (old mesh)
   NGX = 33   NGY = 33   NGZ = 37
  (NGX  =100   NGY  =100   NGZ  =112)
  gives a total of  40293 points

 initial charge density was supplied:
 charge density of overlapping atoms calculated
 number of electron     672.0000000 magnetization      48.0000000
 keeping initial charge density in first step


--------------------------------------------------------------------------------------------------------


 Maximum index for non-local projection operator         1550
 Maximum index for augmentation-charges          406 (set IRDMAX)


--------------------------------------------------------------------------------------------------------


 First call to EWALD:  gamma=   0.179
 Maximum number of real-space cells 3x 3x 2
 Maximum number of reciprocal cells 3x 3x 3

    FEWALD:  cpu time    0.0031: real time    0.0031


--------------------------------------- Iteration      1(   1)  ---------------------------------------


    POTLOK:  cpu time    0.1931: real time    0.1948
    SETDIJ:  cpu time    4.6225: real time    4.6243
    EDDIAG:  cpu time    4.4219: real time    4.7849
  RMM-DIIS:  cpu time    8.9860: real time    9.0280
    ORTHCH:  cpu time    1.1639: real time    1.2400
       DOS:  cpu time    0.0019: real time    0.0020
    --------------------------------------------
      LOOP:  cpu time   19.3893: real time   19.8741

 eigenvalue-minimisations  :  7680
 total energy-change (2. order) : 0.1596985E+04  (-0.3495970E+05)
 number of electron     672.0000000 magnetization      48.0000000
 augmentation part      672.0000000 magnetization      48.0000000

 Free energy of the ion-electron system (eV)
  ---------------------------------------------------
  alpha Z        PSCENC =      2652.81237852
  Ewald energy   TEWEN  =    -41915.89594201
  -Hartree energ DENC   =    -25698.30214789
  -exchange      EXHF   =         0.00000000
  -V(xc)+E(xc)   XCENC  =      3605.74200797
  PAW double counting   =     55594.23204139   -59034.67079123
  entropy T*S    EENTRO =        -0.04424534
  eigenvalues    EBANDS =     -7469.08623076
  atomic energy  EATOM  =     73862.19814772
  Solvation  Ediel_sol  =         0.00000000
  ---------------------------------------------------
  free energy    TOTEN  =      1596.98521837 eV

  energy without entropy =     1597.02946371  energy(sigma->0) =     1597.00734104


--------------------------------------------------------------------------------------------------------




--------------------------------------- Iteration      1(   2)  ---------------------------------------


    EDDIAG:  cpu time    4.4030: real time    4.7740
  RMM-DIIS:  cpu time    9.0314: real time    9.0397
    ORTHCH:  cpu time    1.1963: real time    1.2763
       DOS:  cpu time    0.0031: real time    0.0031
    --------------------------------------------
      LOOP:  cpu time   14.6337: real time   15.0931

 eigenvalue-minimisations  :  7680
 total energy-change (2. order) :-0.2330404E+04  (-0.8029791E+04)
 number of electron     672.0000000 magnetization      48.0000000
 augmentation part      672.0000000 magnetization      48.0000000

 Free energy of the ion-electron system (eV)
  ---------------------------------------------------
  alpha Z        PSCENC =      2652.81237852
  Ewald energy   TEWEN  =    -41915.89594201
  -Hartree energ DENC   =    -25698.30214789
  -exchange      EXHF   =         0.00000000
  -V(xc)+E(xc)   XCENC  =      3605.74200797
  PAW double counting   =     55594.23204139   -59034.67079123
  entropy T*S    EENTRO =        -0.04766320
  eigenvalues    EBANDS =     -9799.48709106
  atomic energy  EATOM  =     73862.19814772
  Solvation  Ediel_sol  =         0.00000000
  ---------------------------------------------------
  free energy    TOTEN  =      -733.41905979 eV

  energy without entropy =     -733.37139659  energy(sigma->0) =     -733.39522819


--------------------------------------------------------------------------------------------------------




--------------------------------------- Iteration      1(   3)  ---------------------------------------


    EDDIAG:  cpu time    4.4070: real time    4.7867
  RMM-DIIS:  cpu time    8.9950: real time    9.0376
    ORTHCH:  cpu time    1.1610: real time    1.2415
       DOS:  cpu time    0.0018: real time    0.0018
    --------------------------------------------
      LOOP:  cpu time   14.5648: real time   15.0676

 eigenvalue-minimisations  :  7680
 total energy-change (2. order) : 0.8606856E+02  (-0.1419079E+04)
 number of electron     672.0000000 magnetization      48.0000000
 augmentation part      672.0000000 magnetization      48.0000000

 Free energy of the ion-electron system (eV)
  ---------------------------------------------------
  alpha Z        PSCENC =      2652.81237852
  Ewald energy   TEWEN  =    -41915.89594201
  -Hartree energ DENC   =    -25698.30214789
  -exchange      EXHF   =         0.00000000
  -V(xc)+E(xc)   XCENC  =      3605.74200797
  PAW double counting   =     55594.23204139   -59034.67079123
  entropy T*S    EENTRO =        -0.03895333
  eigenvalues    EBANDS =     -9713.42724203
  atomic energy  EATOM  =     73862.19814772
  Solvation  Ediel_sol  =         0.00000000
  ---------------------------------------------------
  free energy    TOTEN  =      -647.35050088 eV

  energy without entropy =     -647.31154756  energy(sigma->0) =     -647.33102422


--------------------------------------------------------------------------------------------------------




--------------------------------------- Iteration      1(   4)  ---------------------------------------


    EDDIAG:  cpu time    4.4403: real time    4.7989
  RMM-DIIS:  cpu time    9.0462: real time    9.0579
    ORTHCH:  cpu time    1.1619: real time    1.2429
       DOS:  cpu time    0.0013: real time    0.0013
    --------------------------------------------
      LOOP:  cpu time   14.6497: real time   15.1009

 eigenvalue-minimisations  :  7680
 total energy-change (2. order) :-0.4648718E+03  (-0.4287900E+03)
 number of electron     672.0000000 magnetization      48.0000000
 augmentation part      672.0000000 magnetization      48.0000000

 Free energy of the ion-electron system (eV)
  ---------------------------------------------------
  alpha Z        PSCENC =      2652.81237852
  Ewald energy   TEWEN  =    -41915.89594201
  -Hartree energ DENC   =    -25698.30214789
  -exchange      EXHF   =         0.00000000
  -V(xc)+E(xc)   XCENC  =      3605.74200797
  PAW double counting   =     55594.23204139   -59034.67079123
  entropy T*S    EENTRO =        -0.00000000
  eigenvalues    EBANDS =    -10178.33799205
  atomic energy  EATOM  =     73862.19814772
  Solvation  Ediel_sol  =         0.00000000
  ---------------------------------------------------
  free energy    TOTEN  =     -1112.22229758 eV

  energy without entropy =    -1112.22229758  energy(sigma->0) =    -1112.22229758


--------------------------------------------------------------------------------------------------------




--------------------------------------- Iteration      1(   5)  ---------------------------------------


    EDDIAG:  cpu time    4.4077: real time    4.7898
  RMM-DIIS:  cpu time    8.9965: real time    9.0344
    ORTHCH:  cpu time    1.1572: real time    1.2383
       DOS:  cpu time    0.0017: real time    0.0017
    --------------------------------------------
      LOOP:  cpu time   14.5631: real time   15.0642

 eigenvalue-minimisations  :  7680
 total energy-change (2. order) :-0.1037298E+03  (-0.1595350E+03)
 number of electron     672.0000000 magnetization      48.0000000
 augmentation part      672.0000000 magnetization      48.0000000

 Free energy of the ion-electron system (eV)
  ---------------------------------------------------
  alpha Z        PSCENC =      2652.81237852
  Ewald energy   TEWEN  =    -41915.89594201
  -Hartree energ DENC   =    -25698.30214789
  -exchange      EXHF   =         0.00000000
  -V(xc)+E(xc)   XCENC  =      3605.74200797
  PAW double counting   =     55594.23204139   -59034.67079123
  entropy T*S    EENTRO =        -0.00000000
  eigenvalues    EBANDS =    -10282.06779043
  atomic energy  EATOM  =     73862.19814772
  Solvation  Ediel_sol  =         0.00000000
  ---------------------------------------------------
  free energy    TOTEN  =     -1215.95209596 eV

  energy without entropy =    -1215.95209596  energy(sigma->0) =    -1215.95209596


--------------------------------------------------------------------------------------------------------




--------------------------------------- Iteration      1(   6)  ---------------------------------------


    EDDIAG:  cpu time    4.4022: real time    4.7800
  RMM-DIIS:  cpu time    9.0783: real time    9.0833
    ORTHCH:  cpu time    1.1675: real time    1.2464
       DOS:  cpu time    0.0015: real time    0.0015
    --------------------------------------------
      LOOP:  cpu time   14.6494: real time   15.1111

 eigenvalue-minimisations  :  7680
 total energy-change (2. order) :-0.9059708E+01  (-0.7924832E+02)
 number of electron     672.0000000 magnetization      48.0000000
 augmentation part      672.0000000 magnetization      48.0000000

 Free energy of the ion-electron system (eV)
  ---------------------------------------------------
  alpha Z        PSCENC =      2652.81237852
  Ewald energy   TEWEN  =    -41915.89594201
  -Hartree energ DENC   =    -25698.30214789
  -exchange      EXHF   =         0.00000000
  -V(xc)+E(xc)   XCENC  =      3605.74200797
  PAW double counting   =     55594.23204139   -59034.67079123
  entropy T*S    EENTRO =        -0.00000000
  eigenvalues    EBANDS =    -10291.12749837
  atomic energy  EATOM  =     73862.19814772
  Solvation  Ediel_sol  =         0.00000000
  ---------------------------------------------------
  free energy    TOTEN  =     -1225.01180389 eV

  energy without entropy =    -1225.01180389  energy(sigma->0) =    -1225.01180389


--------------------------------------------------------------------------------------------------------




--------------------------------------- Iteration      1(   7)  ---------------------------------------


    EDDIAG:  cpu time    4.4305: real time    4.8298
  RMM-DIIS:  cpu time    9.0437: real time    9.0553
    ORTHCH:  cpu time    1.1702: real time    1.2463
       DOS:  cpu time    0.0014: real time    0.0014
    --------------------------------------------
      LOOP:  cpu time   14.6458: real time   15.1327

 eigenvalue-minimisations  :  7680
 total energy-change (2. order) :-0.1685418E+01  (-0.4823688E+02)
 number of electron     672.0000000 magnetization      48.0000000
 augmentation part      672.0000000 magnetization      48.0000000

 Free energy of the ion-electron system (eV)
  ---------------------------------------------------
  alpha Z        PSCENC =      2652.81237852
  Ewald energy   TEWEN  =    -41915.89594201
  -Hartree energ DENC   =    -25698.30214789
  -exchange      EXHF   =         0.00000000
  -V(xc)+E(xc)   XCENC  =      3605.74200797
  PAW double counting   =     55594.23204139   -59034.67079123
  entropy T*S    EENTRO =        -0.00000000
  eigenvalues    EBANDS =    -10292.81291591
  atomic energy  EATOM  =     73862.19814772
  Solvation  Ediel_sol  =         0.00000000
  ---------------------------------------------------
  free energy    TOTEN  =     -1226.69722144 eV

  energy without entropy =    -1226.69722144  energy(sigma->0) =    -1226.69722144


--------------------------------------------------------------------------------------------------------




--------------------------------------- Iteration      1(   8)  ---------------------------------------


    EDDIAG:  cpu time    4.4218: real time    4.7804
  RMM-DIIS:  cpu time    9.0309: real time    9.0356
    ORTHCH:  cpu time    1.1790: real time    1.2584
       DOS:  cpu time    0.0012: real time    0.0012
    --------------------------------------------
      LOOP:  cpu time   14.6329: real time   15.0757

 eigenvalue-minimisations  :  7680
 total energy-change (2. order) : 0.4967503E+01  (-0.2995891E+02)
 number of electron     672.0000000 magnetization      48.0000000
 augmentation part      672.0000000 magnetization      48.0000000

 Free energy of the ion-electron system (eV)
  ---------------------------------------------------
  alpha Z        PSCENC =      2652.81237852
  Ewald energy   TEWEN  =    -41915.89594201
  -Hartree energ DENC   =    -25698.30214789
  -exchange      EXHF   =         0.00000000
  -V(xc)+E(xc)   XCENC  =      3605.74200797
  PAW double counting   =     55594.23204139   -59034.67079123
  entropy T*S    EENTRO =        -0.00000000
  eigenvalues    EBANDS =    -10287.84541294
  atomic energy  EATOM  =     73862.19814772
  Solvation  Ediel_sol  =         0.00000000
  ---------------------------------------------------
  free energy    TOTEN  =     -1221.72971846 eV

  energy without entropy =    -1221.72971846  energy(sigma->0) =    -1221.72971846


--------------------------------------------------------------------------------------------------------




--------------------------------------- Iteration      1(   9)  ---------------------------------------


    EDDIAG:  cpu time    4.4553: real time    4.8144
  RMM-DIIS:  cpu time   18.9428: real time   18.9514
    ORTHCH:  cpu time    1.1583: real time    1.2370
       DOS:  cpu time    0.0017: real time    0.0017
    --------------------------------------------
      LOOP:  cpu time   24.5580: real time   25.0044

 eigenvalue-minimisations  : 21806
 total energy-change (2. order) : 0.9261411E+01  (-0.1322857E+02)
 number of electron     672.0000000 magnetization      48.0000000
 augmentation part      672.0000000 magnetization      48.0000000

 Free energy of the ion-electron system (eV)
  ---------------------------------------------------
  alpha Z        PSCENC =      2652.81237852
  Ewald energy   TEWEN  =    -41915.89594201
  -Hartree energ DENC   =    -25698.30214789
  -exchange      EXHF   =         0.00000000
  -V(xc)+E(xc)   XCENC  =      3605.74200797
  PAW double counting   =     55594.23204139   -59034.67079123
  entropy T*S    EENTRO =        -0.00000000
  eigenvalues    EBANDS =    -10278.58400182
  atomic energy  EATOM  =     73862.19814772
  Solvation  Ediel_sol  =         0.00000000
  ---------------------------------------------------
  free energy    TOTEN  =     -1212.46830734 eV

  energy without entropy =    -1212.46830734  energy(sigma->0) =    -1212.46830734


--------------------------------------------------------------------------------------------------------




--------------------------------------- Iteration      1(  10)  ---------------------------------------


    EDDIAG:  cpu time    4.5231: real time    4.8727
  RMM-DIIS:  cpu time   17.8906: real time   17.9246
    ORTHCH:  cpu time    1.1600: real time    1.2399
       DOS:  cpu time    0.0014: real time    0.0014
    --------------------------------------------
      LOOP:  cpu time   23.5751: real time   24.0387

 eigenvalue-minimisations  : 19695
 total energy-change (2. order) :-0.1903055E+01  (-0.5310531E+00)
 number of electron     672.0000000 magnetization      48.0000000
 augmentation part      672.0000000 magnetization      48.0000000

 Free energy of the ion-electron system (eV)
  ---------------------------------------------------
  alpha Z        PSCENC =      2652.81237852
  Ewald energy   TEWEN  =    -41915.89594201
  -Hartree energ DENC   =    -25698.30214789
  -exchange      EXHF   =         0.00000000
  -V(xc)+E(xc)   XCENC  =      3605.74200797
  PAW double counting   =     55594.23204139   -59034.67079123
  entropy T*S    EENTRO =        -0.00000000
  eigenvalues    EBANDS =    -10280.48705714
  atomic energy  EATOM  =     73862.19814772
  Solvation  Ediel_sol  =         0.00000000
  ---------------------------------------------------
  free energy    TOTEN  =     -1214.37136266 eV

  energy without entropy =    -1214.37136266  energy(sigma->0) =    -1214.37136266


--------------------------------------------------------------------------------------------------------




--------------------------------------- Iteration      1(  11)  ---------------------------------------


    EDDIAG:  cpu time    4.4192: real time    4.7919
  RMM-DIIS:  cpu time   19.7568: real time   19.8037
    ORTHCH:  cpu time    1.1705: real time    1.2462
       DOS:  cpu time    0.0014: real time    0.0014
    --------------------------------------------
      LOOP:  cpu time   25.3479: real time   25.8432

 eigenvalue-minimisations  : 22678
 total energy-change (2. order) : 0.6938913E-01  (-0.4353189E-01)
 number of electron     672.0000000 magnetization      48.0000000
 augmentation part      672.0000000 magnetization      48.0000000

 Free energy of the ion-electron system (eV)
  ---------------------------------------------------
  alpha Z        PSCENC =      2652.81237852
  Ewald energy   TEWEN  =    -41915.89594201
  -Hartree energ DENC   =    -25698.30214789
  -exchange      EXHF   =         0.00000000
  -V(xc)+E(xc)   XCENC  =      3605.74200797
  PAW double counting   =     55594.23204139   -59034.67079123
  entropy T*S    EENTRO =        -0.00000000
  eigenvalues    EBANDS =    -10280.41766801
  atomic energy  EATOM  =     73862.19814772
  Solvation  Ediel_sol  =         0.00000000
  ---------------------------------------------------
  free energy    TOTEN  =     -1214.30197354 eV

  energy without entropy =    -1214.30197354  energy(sigma->0) =    -1214.30197354


--------------------------------------------------------------------------------------------------------




--------------------------------------- Iteration      1(  12)  ---------------------------------------


    EDDIAG:  cpu time    4.4133: real time    4.7856
  RMM-DIIS:  cpu time   21.7974: real time   21.8565
    ORTHCH:  cpu time    1.1661: real time    1.2431
       DOS:  cpu time    0.0013: real time    0.0013
    CHARGE:  cpu time    1.7617: real time    1.7624
    MIXING:  cpu time    0.0009: real time    0.0011
    --------------------------------------------
      LOOP:  cpu time   29.1408: real time   29.6499

 eigenvalue-minimisations  : 24315
 total energy-change (2. order) :-0.6426176E-03  (-0.4187088E-02)
 number of electron     672.0000021 magnetization      48.0000014
 augmentation part      239.0477493 magnetization      29.0523803

 Broyden mixing:
  rms(total) = 0.12516E+02    rms(broyden)= 0.12507E+02
  rms(prec ) = 0.14375E+02
  weight for this iteration     100.00

 Free energy of the ion-electron system (eV)
  ---------------------------------------------------
  alpha Z        PSCENC =      2652.81237852
  Ewald energy   TEWEN  =    -41915.89594201
  -Hartree energ DENC   =    -25698.30214789
  -exchange      EXHF   =         0.00000000
  -V(xc)+E(xc)   XCENC  =      3605.74200797
  PAW double counting   =     55594.23204139   -59034.67079123
  entropy T*S    EENTRO =        -0.00000000
  eigenvalues    EBANDS =    -10280.41831063
  atomic energy  EATOM  =     73862.19814772
  Solvation  Ediel_sol  =         0.00000000
  ---------------------------------------------------
  free energy    TOTEN  =     -1214.30261615 eV

  energy without entropy =    -1214.30261615  energy(sigma->0) =    -1214.30261615


--------------------------------------------------------------------------------------------------------




--------------------------------------- Iteration      1(  13)  ---------------------------------------


    POTLOK:  cpu time    0.1762: real time    0.1766
    SETDIJ:  cpu time    4.9799: real time    4.9817
    EDDIAG:  cpu time    4.4190: real time    4.7806
  RMM-DIIS:  cpu time   17.4676: real time   17.5055
    ORTHCH:  cpu time    1.2270: real time    1.3069
       DOS:  cpu time    0.0016: real time    0.0016
    CHARGE:  cpu time    1.7598: real time    1.7646
    MIXING:  cpu time    0.0009: real time    0.0009
    --------------------------------------------
      LOOP:  cpu time   30.0321: real time   30.5184

 eigenvalue-minimisations  : 18755
 total energy-change (2. order) : 0.2275497E+03  (-0.1223379E+03)
 number of electron     672.0000147 magnetization      48.0000010
 augmentation part      269.1348109 magnetization      26.3195032

 Broyden mixing:
  rms(total) = 0.13970E+02    rms(broyden)= 0.13967E+02
  rms(prec ) = 0.15737E+02
  weight for this iteration     100.00

 eigenvalues of (default mixing * dielectric matrix)
  average eigenvalue GAMMA=   0.3176
  0.3176

 Free energy of the ion-electron system (eV)
  ---------------------------------------------------
  alpha Z        PSCENC =      2652.81237852
  Ewald energy   TEWEN  =    -41915.89594201
  -Hartree energ DENC   =    -25023.14146132
  -exchange      EXHF   =         0.00000000
  -V(xc)+E(xc)   XCENC  =      3695.72910051
  PAW double counting   =     59862.03672383   -63286.94884973
  entropy T*S    EENTRO =        -0.10221526
  eigenvalues    EBANDS =    -10833.44080087
  atomic energy  EATOM  =     73862.19814772
  Solvation  Ediel_sol  =         0.00000000
  ---------------------------------------------------
  free energy    TOTEN  =      -986.75291860 eV

  energy without entropy =     -986.65070334  energy(sigma->0) =     -986.70181097


--------------------------------------------------------------------------------------------------------




--------------------------------------- Iteration      1(  14)  ---------------------------------------


    POTLOK:  cpu time    0.1735: real time    0.1736
    SETDIJ:  cpu time    4.9652: real time    4.9691
    EDDIAG:  cpu time    4.4041: real time    4.7809
  RMM-DIIS:  cpu time   17.7007: real time   17.8227
    ORTHCH:  cpu time    1.1950: real time    1.2723
       DOS:  cpu time    0.0017: real time    0.0017
    CHARGE:  cpu time    1.7626: real time    1.7661
    MIXING:  cpu time    0.0009: real time    0.0009
    --------------------------------------------
      LOOP:  cpu time   30.2036: real time   30.7873

 eigenvalue-minimisations  : 19373
 total energy-change (2. order) : 0.7044035E+02  (-0.1806608E+02)
 number of electron     672.0000075 magnetization      48.0000017
 augmentation part      246.4939347 magnetization      32.1557914

 Broyden mixing:
  rms(total) = 0.52579E+01    rms(broyden)= 0.52538E+01
  rms(prec ) = 0.56905E+01
  weight for this iteration     100.00

 eigenvalues of (default mixing * dielectric matrix)
  average eigenvalue GAMMA=   0.7298
  1.1031  0.3564

 Free energy of the ion-electron system (eV)
  ---------------------------------------------------
  alpha Z        PSCENC =      2652.81237852
  Ewald energy   TEWEN  =    -41915.89594201
  -Hartree energ DENC   =    -25637.69587495
  -exchange      EXHF   =         0.00000000
  -V(xc)+E(xc)   XCENC  =      3672.79871062
  PAW double counting   =     63240.70278192   -66722.77538764
  entropy T*S    EENTRO =        -0.00000000
  eigenvalues    EBANDS =    -10068.45737902
  atomic energy  EATOM  =     73862.19814772
  Solvation  Ediel_sol  =         0.00000000
  ---------------------------------------------------
  free energy    TOTEN  =      -916.31256483 eV

  energy without entropy =     -916.31256483  energy(sigma->0) =     -916.31256483


--------------------------------------------------------------------------------------------------------




--------------------------------------- Iteration      1(  15)  ---------------------------------------


    POTLOK:  cpu time    0.1721: real time    0.1727
    SETDIJ:  cpu time    4.9770: real time    4.9819
    EDDIAG:  cpu time    4.4123: real time    4.7750
  RMM-DIIS:  cpu time   18.3252: real time   18.3562
    ORTHCH:  cpu time    1.1611: real time    1.2397
       DOS:  cpu time    0.0013: real time    0.0013
    CHARGE:  cpu time    1.7638: real time    1.7653
    MIXING:  cpu time    0.0014: real time    0.0014
    --------------------------------------------
      LOOP:  cpu time   30.8143: real time   31.2936

 eigenvalue-minimisations  : 20252
 total energy-change (2. order) : 0.1455525E+02  (-0.1966654E+01)
 number of electron     672.0000083 magnetization      48.0000025
 augmentation part      249.6955258 magnetization      33.8323643

 Broyden mixing:
  rms(total) = 0.21048E+01    rms(broyden)= 0.21045E+01
  rms(prec ) = 0.21788E+01
  weight for this iteration     100.00

 eigenvalues of (default mixing * dielectric matrix)
  average eigenvalue GAMMA=   0.9646
  0.3802  0.7676  1.7461

 Free energy of the ion-electron system (eV)
  ---------------------------------------------------
  alpha Z        PSCENC =      2652.81237852
  Ewald energy   TEWEN  =    -41915.89594201
  -Hartree energ DENC   =    -25553.09376538
  -exchange      EXHF   =         0.00000000
  -V(xc)+E(xc)   XCENC  =      3706.34900672
  PAW double counting   =     67319.77076257   -70842.01825003
  entropy T*S    EENTRO =        -0.00000000
  eigenvalues    EBANDS =    -10131.87965623
  atomic energy  EATOM  =     73862.19814772
  Solvation  Ediel_sol  =         0.00000000
  ---------------------------------------------------
  free energy    TOTEN  =      -901.75731811 eV

  energy without entropy =     -901.75731811  energy(sigma->0) =     -901.75731811


--------------------------------------------------------------------------------------------------------




--------------------------------------- Iteration      1(  16)  ---------------------------------------


    POTLOK:  cpu time    0.1669: real time    0.1683
    SETDIJ:  cpu time    5.0380: real time    5.0400
    EDDIAG:  cpu time    4.4010: real time    4.7809
  RMM-DIIS:  cpu time   17.3436: real time   17.3779
    ORTHCH:  cpu time    1.1592: real time    1.2386
       DOS:  cpu time    0.0015: real time    0.0015
    CHARGE:  cpu time    1.7619: real time    1.7633
    MIXING:  cpu time    0.0009: real time    0.0009
    --------------------------------------------
      LOOP:  cpu time   29.8732: real time   30.3716

 eigenvalue-minimisations  : 19028
 total energy-change (2. order) :-0.1715147E+01  (-0.6284393E+00)
 number of electron     672.0000088 magnetization      48.0000027
 augmentation part      251.2411599 magnetization      33.9136509

 Broyden mixing:
  rms(total) = 0.13761E+01    rms(broyden)= 0.13756E+01
  rms(prec ) = 0.14729E+01
  weight for this iteration     100.00

 eigenvalues of (default mixing * dielectric matrix)
  average eigenvalue GAMMA=   0.9819
  2.0809  0.9152  0.3868  0.5448

 Free energy of the ion-electron system (eV)
  ---------------------------------------------------
  alpha Z        PSCENC =      2652.81237852
  Ewald energy   TEWEN  =    -41915.89594201
  -Hartree energ DENC   =    -25499.83462367
  -exchange      EXHF   =         0.00000000
  -V(xc)+E(xc)   XCENC  =      3707.32388233
  PAW double counting   =     70296.55784972   -73848.96926719
  entropy T*S    EENTRO =        -0.00000000
  eigenvalues    EBANDS =    -10157.66489104
  atomic energy  EATOM  =     73862.19814772
  Solvation  Ediel_sol  =         0.00000000
  ---------------------------------------------------
  free energy    TOTEN  =      -903.47246560 eV

  energy without entropy =     -903.47246560  energy(sigma->0) =     -903.47246560


--------------------------------------------------------------------------------------------------------




--------------------------------------- Iteration      1(  17)  ---------------------------------------


    POTLOK:  cpu time    0.1743: real time    0.1748
    SETDIJ:  cpu time    5.0428: real time    5.0450
    EDDIAG:  cpu time    4.4074: real time    4.7765
  RMM-DIIS:  cpu time   18.2114: real time   18.2623
    ORTHCH:  cpu time    1.1596: real time    1.2401
       DOS:  cpu time    0.0010: real time    0.0011
    CHARGE:  cpu time    1.7642: real time    1.7693
    MIXING:  cpu time    0.0020: real time    0.0020
    --------------------------------------------
      LOOP:  cpu time   30.7627: real time   31.2711

 eigenvalue-minimisations  : 20578
 total energy-change (2. order) : 0.2120402E+00  (-0.5183985E-01)
 number of electron     672.0000088 magnetization      48.0000030
 augmentation part      251.0827745 magnetization      33.9084517

 Broyden mixing:
  rms(total) = 0.74193E+00    rms(broyden)= 0.74186E+00
  rms(prec ) = 0.83665E+00
  weight for this iteration     100.00

 eigenvalues of (default mixing * dielectric matrix)
  average eigenvalue GAMMA=   1.0152
  2.2454  1.1589  0.3791  0.7122  0.5804

 Free energy of the ion-electron system (eV)
  ---------------------------------------------------
  alpha Z        PSCENC =      2652.81237852
  Ewald energy   TEWEN  =    -41915.89594201
  -Hartree energ DENC   =    -25493.46636201
  -exchange      EXHF   =         0.00000000
  -V(xc)+E(xc)   XCENC  =      3704.17633118
  PAW double counting   =     71100.27346945   -74660.54399727
  entropy T*S    EENTRO =        -0.00000000
  eigenvalues    EBANDS =    -10152.81445099
  atomic energy  EATOM  =     73862.19814772
  Solvation  Ediel_sol  =         0.00000000
  ---------------------------------------------------
  free energy    TOTEN  =      -903.26042541 eV

  energy without entropy =     -903.26042541  energy(sigma->0) =     -903.26042541


--------------------------------------------------------------------------------------------------------




--------------------------------------- Iteration      1(  18)  ---------------------------------------


    POTLOK:  cpu time    0.1685: real time    0.1693
    SETDIJ:  cpu time    5.0025: real time    5.0080
    EDDIAG:  cpu time    4.5178: real time    4.8759
  RMM-DIIS:  cpu time   17.8967: real time   17.9544
    ORTHCH:  cpu time    1.1582: real time    1.2389
       DOS:  cpu time    0.0023: real time    0.0023
    CHARGE:  cpu time    1.7663: real time    1.7675
    MIXING:  cpu time    0.0010: real time    0.0010
    --------------------------------------------
      LOOP:  cpu time   30.5134: real time   31.0172

 eigenvalue-minimisations  : 19085
 total energy-change (2. order) : 0.3887778E+00  (-0.6805562E-01)
 number of electron     672.0000086 magnetization      48.0000031
 augmentation part      250.5679923 magnetization      33.8662208

 Broyden mixing:
  rms(total) = 0.26618E+00    rms(broyden)= 0.26587E+00
  rms(prec ) = 0.27974E+00
  weight for this iteration     100.00

 eigenvalues of (default mixing * dielectric matrix)
  average eigenvalue GAMMA=   1.0210
[...]
   4      -0.629    -1.013     1.642    -0.219     0.025     0.032
   5      -0.862    -0.482     1.345    -0.031    -0.080    -0.013
   6      -0.762    -1.059     1.822    -0.061    -0.004     0.034
   7      -0.920    -0.541     1.461     0.023     0.015    -0.003
   8      -0.775    -1.130     1.905    -0.006    -0.001    -0.056
   9      -0.699    -0.805     1.504    -0.153     0.059     0.091
  10      -0.993    -0.869     1.862     0.177    -0.060    -0.061
  11      -0.993    -0.960     1.952     0.103     0.028     0.069
  12      -1.179    -0.801     1.979    -0.106    -0.029    -0.001
  13      -0.912    -0.929     1.841     0.078     0.053     0.021
  14      -0.494    -0.689     1.184     0.120    -0.061     0.046
  15      -0.674    -0.875     1.549    -0.185     0.014     0.054
  16      -0.902    -0.528     1.431    -0.046     0.032    -0.055
  17       1.434     1.422    -2.856    -0.061     0.105     0.044
  18       1.426     1.522    -2.948     0.154    -0.182     0.006
  19       1.383     1.570    -2.953    -0.082    -0.028    -0.047
  20       1.317     1.512    -2.828    -0.005     0.114     0.025
  21       1.506     1.487    -2.993    -0.053    -0.144    -0.118
  22       1.444     1.550    -2.994    -0.047     0.065     0.100
  23       1.514     1.386    -2.900     0.061     0.094     0.059
  24       1.408     1.550    -2.959    -0.012    -0.048    -0.118
  25       0.181    -1.205     1.024     0.288     1.284    -0.408
  26       0.474     0.121    -0.595     0.344     0.391    -0.092
  27      -0.807     1.214    -0.408    -0.786     0.935    -0.198
  28       0.960    -0.388    -0.571    -0.814     0.695     0.078
  29      -0.379    -0.140     0.519     0.094    -0.455     0.754
  30      -0.157     0.626    -0.469     0.909     1.547    -0.977
  31       0.380    -0.535     0.155    -0.121     0.574    -0.692
  32       0.084    -0.113     0.029    -0.139     0.189     0.462
  33       0.545     0.150    -0.695     1.588    -0.098    -0.640
  34       0.311    -0.588     0.277     0.095     0.024     0.810
  35       0.506    -1.796     1.290     0.915    -0.146     0.744
  36      -0.618     0.148     0.470    -0.672     0.725     0.778
  37      -0.784     0.410     0.374    -0.074    -0.950    -0.353
  38       0.322    -1.753     1.430     0.716     0.024    -0.075
  39       0.537    -0.366    -0.171    -0.265    -1.282     0.199
  40      -1.058    -1.168     2.225     0.097     0.039    -0.092
  41      -2.888     1.788     1.100    -4.607     3.274    -3.433
  42      -2.403     1.835     0.568     4.221     1.161     4.614
  43       5.448    -5.797     0.349    -0.016    -3.900    -0.996
  44      -4.335     3.794     0.541    -4.838    -2.710     2.720
  45       6.274    -5.269    -1.005     0.124     4.835     0.336
  46      -4.241     2.020     2.220     4.927    -1.930    -5.266
  47      -2.835     1.674     1.161    -4.985     2.581    -3.765
  48       4.942    -5.368     0.425     0.247    -4.294     0.421
  49      -4.093     3.322     0.771     5.242     1.771     4.441
  50      -1.119     2.933    -1.814    -6.015    -1.693     4.599
  51      -2.736     2.031     0.705     5.085    -2.841    -4.052
  52       6.336    -6.855     0.519     0.999     4.150    -0.395
  53      -2.281     2.915    -0.634    -4.508     1.234    -3.717
  54      -3.046     1.260     1.786     4.644     4.288     3.779
  55       5.962    -6.470     0.508    -0.013    -4.237    -3.001
  56      -3.374     4.575    -1.202    -4.600    -1.495     2.877
  57       7.281    -4.151    -3.130    -0.824     3.579     0.474
  58      -1.561     2.598    -1.037     5.035    -0.413    -4.623
  59      -4.431     3.484     0.947    -3.284     4.270    -2.959
  60       4.606    -3.974    -0.632     2.666    -5.144     1.387
  61      -2.939     2.301     0.638     6.093     3.938     3.616
  62      -4.690     3.204     1.486    -3.880    -2.784     4.510
  63      -3.312     0.732     2.580     5.158    -2.220    -3.138
  64       4.885    -7.524     2.639    -0.502     4.153     0.044
  65      -3.994     2.883     1.111    -3.944     1.915    -4.958
  66      -6.092     4.491     1.601     4.636     2.628     4.055
  67       5.380    -6.310     0.930    -0.277    -5.372     0.083
  68      -2.063     0.565     1.498    -5.577    -1.835     4.951
  69       5.161    -6.512     1.351     0.227     5.542    -2.127
  70      -3.037     2.390     0.647     3.896    -0.981    -3.785
  71      -4.152     3.360     0.791    -4.431     2.485    -3.205
  72       6.759    -5.972    -0.788    -0.824    -3.365    -0.184
  73      -3.254     4.258    -1.004     4.071     1.306     4.884
  74      -2.350     1.477     0.873    -4.964    -2.254     4.822
  75      -4.135     3.052     1.083     2.583    -4.022    -2.772
  76       3.979    -5.688     1.709    -1.139     4.906     0.204
  77      -2.108     1.709     0.399    -6.283     1.672    -4.774
  78      -2.509     3.956    -1.447     4.772     1.598     2.770
  79       5.918    -5.042    -0.876     0.095    -5.285     0.032
  80      -1.868    -0.698     2.565    -5.002    -1.599     4.623
  81       5.460    -7.274     1.814     0.207     5.312    -0.325
  82      -5.059     2.456     2.603     4.138    -2.298    -4.903
  83      -2.149    -0.154     2.303    -4.411     2.512    -4.129
  84       4.496    -8.150     3.653    -0.094    -5.810    -0.180
  85      -3.281     2.940     0.341     5.268     1.516     4.471
  86      -2.283     1.683     0.600    -5.564    -3.600     3.787
  87      -3.160     3.764    -0.604     5.026    -3.290    -3.286
  88       4.941    -4.353    -0.587     0.504     4.588    -0.207
 ---------------------------------------------------------------------


 Total hyperfine coupling parameters after diagonalization (MHz)
 (convention: |A_zz| > |A_xx| > |A_yy|)
 ----------------------------------------------------------------------
  ion      A_xx      A_yy      A_zz     asymmetry (A_yy - A_xx)/ A_zz 
 ----------------------------------------------------------------------
   1       0.905     0.554     3.477      -0.101
   2       2.422     2.095     4.595      -0.071
   3       2.325     1.966     4.226      -0.085
   4       1.782     1.199     3.954      -0.147
   5       1.898     1.510     3.725      -0.104
   6       0.273    -0.049     2.845      -0.113
   7       1.840     1.458     3.840      -0.099
   8       0.243    -0.114     2.924      -0.122
   9       2.379     2.050     4.478      -0.073
  10       0.247    -0.125     2.859      -0.130
  11      -0.524    -0.318     2.510       0.082
  12       0.343    -0.091     3.095      -0.140
  13      -0.410    -0.253     2.433       0.064
  14       2.409     2.099     4.034      -0.077
  15       2.475     2.053     4.589      -0.092
  16       2.691     2.308     4.648      -0.082
  17      13.289     9.060    13.409      -0.315
  18      14.234     9.960    14.554      -0.294
  19      14.351    10.045    14.600      -0.295
  20      13.350     9.199    13.542      -0.307
  21      14.673    10.222    14.774      -0.301
  22      14.528    10.102    14.668      -0.302
  23      13.866     9.600    14.045      -0.304
  24      13.814     9.444    13.961      -0.313
  25      97.242    96.189    99.660      -0.011
  26      93.690    92.903    94.421      -0.008
  27      97.322    95.636    98.908      -0.017
  28      97.234    96.530    99.158      -0.007
  29      94.690    94.025    95.992      -0.007
  30      97.659    94.014    97.709      -0.037
  31      97.494    96.551    98.599      -0.010
  32      94.050    93.310    94.334      -0.008
  33      95.363    94.422    97.952      -0.010
  34      99.318    97.937    99.787      -0.014
  35     101.864    98.783   102.522      -0.030
  36      93.041    91.087    93.744      -0.021
  37      98.792    97.122    99.504      -0.017
  38      97.343    94.819    98.229      -0.026
  39      93.186    92.462    95.179      -0.008
  40      98.094    97.869   101.324      -0.002
  41       4.838     0.851    14.608      -0.273
  42       3.854     0.302    13.308      -0.267
  43       5.007     0.586    14.158      -0.312
  44       8.101     2.245    16.959      -0.345
  45       5.656     3.737    17.733      -0.108
  46       4.766    -0.167    16.063      -0.307
  47       6.262     2.108    16.118      -0.258
  48       4.449     1.103    14.080      -0.238
  49       6.617     1.774    17.463      -0.277
  50       5.777     2.872    18.252      -0.159
  51       2.417    -1.114    13.295      -0.266
  52       7.437     1.946    17.483      -0.314
  53       5.077     2.266    14.727      -0.191
  54       5.640     1.398    16.568      -0.256
  55       7.113    -0.002    16.181      -0.440
  56       6.901     3.769    17.094      -0.183
  57       3.071     1.677    15.014      -0.093
  58       4.658     0.113    14.242      -0.319
  59       5.941    -0.461    14.211      -0.450
  60       4.741    -0.380    14.136      -0.362
  61       6.194     1.132    17.785      -0.285
  62       3.904    -0.289    14.767      -0.284
  63       6.880     0.566    14.745      -0.428
  64       7.778     0.752    16.375      -0.429
  65       3.101    -0.025    14.279      -0.219
  66       8.614     1.870    19.033      -0.354
  67       4.263     0.603    15.894      -0.230
  68       8.187     2.993    18.511      -0.281
  69       2.737    -2.707    13.797      -0.395
  70       3.672    -0.019    12.035      -0.307
  71       6.450     1.453    15.495      -0.322
  72       5.459     1.415    15.553      -0.260
  73       3.213     1.228    15.183      -0.131
  74       2.054    -1.297    13.153      -0.255
  75       7.344     1.345    14.640      -0.410
  76       6.055     2.114    15.968      -0.247
  77       6.123     0.913    17.161      -0.304
  78       5.790     3.314    15.974      -0.155
  79       2.591     1.303    15.152      -0.085
  80       5.912     0.150    14.769      -0.390
  81       6.357     1.006    17.561      -0.305
  82       5.315     0.455    16.272      -0.299
  83       6.070     2.259    15.674      -0.243
  84       7.051     0.640    18.697      -0.343
  85       4.569     0.245    15.267      -0.283
  86       5.826     2.024    17.212      -0.221
  87       5.714     1.761    16.609      -0.238
  88       4.895     3.434    15.477      -0.094
 ---------------------------------------------------------------------



--------------------------------------------------------------------------------------------------------


 stress matrix after NEB project (eV)
    -48.71104     -0.34336     -2.03131
     -0.33757    -44.89767     -6.37453
     -2.00792     -6.34911    -64.18701
  FORCES: max atom, RMS     2.641284    1.064850
  FORCE total and by dimension    9.989176    2.120864
  Stress total and by dimension   92.724726   64.187013
     LOOP+:  cpu time  763.7918: real time  778.3520
    4ORBIT:  cpu time    0.0000: real time    0.0000
 


 total charge     
 
# of ion       s       p       d       tot
------------------------------------------
    1        0.056   6.001   0.000   6.058
    2        0.052   5.994   0.000   6.047
    3        0.047   5.988   0.000   6.035
    4        0.053   5.996   0.000   6.049
    5        0.047   5.989   0.000   6.035
    6        0.050   5.993   0.000   6.043
    7        0.047   5.990   0.000   6.037
    8        0.052   5.996   0.000   6.049
    9        0.048   5.991   0.000   6.040
   10        0.052   5.995   0.000   6.047
   11        0.053   5.996   0.000   6.050
   12        0.053   5.999   0.000   6.052
   13        0.053   5.997   0.000   6.050
   14        0.047   5.989   0.000   6.036
   15        0.045   5.988   0.000   6.033
   16        0.050   5.993   0.000   6.043
   17        0.143   6.119   0.077   6.339
   18        0.147   6.126   0.082   6.355
   19        0.148   6.126   0.082   6.355
   20        0.143   6.119   0.076   6.338
   21        0.152   6.135   0.089   6.376
   22        0.151   6.132   0.087   6.370
   23        0.146   6.123   0.081   6.350
   24        0.149   6.129   0.085   6.362
   25        0.380   6.465   4.837  11.682
   26        0.379   6.463   4.835  11.676
   27        0.366   6.431   4.809  11.606
   28        0.386   6.479   4.852  11.717
   29        0.377   6.456   4.836  11.669
   30        0.368   6.432   4.818  11.618
   31        0.374   6.452   4.829  11.655
   32        0.378   6.456   4.844  11.678
   33        0.375   6.454   4.828  11.656
   34        0.370   6.447   4.817  11.634
   35        0.374   6.446   4.833  11.653
   36        0.381   6.469   4.845  11.696
   37        0.370   6.440   4.821  11.631
   38        0.382   6.471   4.846  11.699
   39        0.384   6.469   4.852  11.705
   40        0.369   6.437   4.817  11.623
   41        1.599   3.533   0.000   5.132
   42        1.599   3.514   0.000   5.113
   43        1.597   3.505   0.000   5.102
   44        1.600   3.527   0.000   5.127
   45        1.597   3.490   0.000   5.087
   46        1.600   3.485   0.000   5.084
   47        1.599   3.520   0.000   5.119
   48        1.595   3.491   0.000   5.086
   49        1.599   3.509   0.000   5.109
   50        1.600   3.485   0.000   5.086
   51        1.598   3.495   0.000   5.093
   52        1.602   3.550   0.000   5.151
   53        1.595   3.500   0.000   5.095
   54        1.599   3.508   0.000   5.107
   55        1.600   3.493   0.000   5.092
   56        1.601   3.505   0.000   5.106
   57        1.599   3.464   0.000   5.063
   58        1.598   3.485   0.000   5.083
   59        1.598   3.474   0.000   5.072
   60        1.599   3.463   0.000   5.062
   61        1.600   3.512   0.000   5.112
   62        1.598   3.501   0.000   5.100
   63        1.598   3.518   0.000   5.116
   64        1.599   3.508   0.000   5.107
   65        1.598   3.487   0.000   5.086
   66        1.600   3.514   0.000   5.114
   67        1.600   3.500   0.000   5.100
   68        1.602   3.505   0.000   5.107
   69        1.599   3.476   0.000   5.074
   70        1.599   3.532   0.000   5.131
   71        1.600   3.487   0.000   5.086
   72        1.600   3.513   0.000   5.113
   73        1.599   3.492   0.000   5.091
   74        1.596   3.489   0.000   5.086
   75        1.599   3.524   0.000   5.123
   76        1.597   3.478   0.000   5.076
   77        1.601   3.501   0.000   5.102
   78        1.599   3.511   0.000   5.110
   79        1.599   3.488   0.000   5.087
   80        1.597   3.530   0.000   5.127
   81        1.602   3.509   0.000   5.111
   82        1.598   3.499   0.000   5.097
   83        1.598   3.516   0.000   5.115
   84        1.603   3.532   0.000   5.135
   85        1.599   3.516   0.000   5.115
   86        1.600   3.500   0.000   5.100
   87        1.600   3.514   0.000   5.115
   88        1.598   3.507   0.000   5.105
--------------------------------------------------
tot         84.748 416.332  77.979 579.059
 


 magnetization (x)
 
# of ion       s       p       d       tot
------------------------------------------
    1        0.001   0.001   0.000   0.002
    2        0.002   0.000   0.000   0.002
    3        0.002   0.000   0.000   0.003
    4        0.002   0.000   0.000   0.002
    5        0.002   0.000   0.000   0.002
    6        0.001   0.000   0.000   0.001
    7        0.002   0.000   0.000   0.002
    8        0.001   0.000   0.000   0.001
    9        0.002   0.000   0.000   0.002
   10        0.001   0.000   0.000   0.001
   11        0.000   0.000   0.000   0.001
   12        0.001   0.000   0.000   0.001
   13        0.000   0.000   0.000   0.001
   14        0.002   0.001   0.000   0.003
   15        0.002   0.000   0.000   0.003
   16        0.002   0.001   0.000   0.003
   17        0.007   0.002   0.001   0.010
   18        0.008   0.003   0.001   0.012
   19        0.008   0.002   0.001   0.011
   20        0.007   0.002   0.001   0.010
   21        0.007   0.002   0.001   0.011
   22        0.007   0.002   0.001   0.011
   23        0.007   0.002   0.001   0.011
   24        0.007   0.002   0.001   0.011
   25        0.016   0.031   2.753   2.799
   26        0.015   0.029   2.748   2.792
   27        0.015   0.029   2.782   2.826
   28        0.016   0.032   2.734   2.782
   29        0.014   0.030   2.749   2.793
   30        0.015   0.028   2.772   2.815
   31        0.016   0.030   2.754   2.799
   32        0.015   0.030   2.730   2.774
   33        0.015   0.030   2.756   2.801
   34        0.016   0.031   2.769   2.816
   35        0.016   0.031   2.766   2.813
   36        0.014   0.028   2.737   2.779
   37        0.016   0.030   2.763   2.809
   38        0.015   0.031   2.731   2.777
   39        0.014   0.029   2.733   2.776
   40        0.016   0.029   2.768   2.813
   41        0.002   0.033   0.000   0.035
   42        0.002   0.021   0.000   0.023
   43        0.002   0.034   0.000   0.036
   44        0.002   0.055   0.000   0.057
   45        0.002   0.037   0.000   0.039
   46        0.002   0.031   0.000   0.033
   47        0.002   0.041   0.000   0.043
   48        0.002   0.023   0.000   0.025
   49        0.002   0.047   0.000   0.049
   50        0.002   0.032   0.000   0.034
   51        0.001   0.018   0.000   0.019
   52        0.002   0.062   0.000   0.064
   53        0.002   0.027   0.000   0.029
   54        0.002   0.038   0.000   0.040
   55        0.002   0.030   0.000   0.032
   56        0.002   0.042   0.000   0.045
   57        0.002   0.009   0.000   0.011
   58        0.002   0.017   0.000   0.019
   59        0.002   0.021   0.000   0.023
   60        0.002   0.010   0.000   0.011
   61        0.002   0.044   0.000   0.047
   62        0.002   0.025   0.000   0.026
   63        0.002   0.040   0.000   0.042
   64        0.002   0.053   0.000   0.055
   65        0.002   0.014   0.000   0.016
   66        0.002   0.064   0.000   0.066
   67        0.002   0.026   0.000   0.028
   68        0.002   0.055   0.000   0.057
   69        0.001   0.011   0.000   0.012
   70        0.001   0.026   0.000   0.027
   71        0.002   0.036   0.000   0.038
   72        0.002   0.033   0.000   0.035
   73        0.002   0.015   0.000   0.017
   74        0.001   0.011   0.000   0.012
   75        0.002   0.040   0.000   0.042
   76        0.002   0.035   0.000   0.037
   77        0.002   0.034   0.000   0.036
   78        0.002   0.040   0.000   0.042
   79        0.002   0.022   0.000   0.024
   80        0.002   0.039   0.000   0.041
   81        0.002   0.038   0.000   0.040
   82        0.002   0.034   0.000   0.036
   83        0.002   0.045   0.000   0.047
   84        0.002   0.057   0.000   0.059
   85        0.002   0.030   0.000   0.031
   86        0.002   0.036   0.000   0.038
   87        0.002   0.032   0.000   0.034
   88        0.002   0.032   0.000   0.035
--------------------------------------------------
tot          0.418   2.095  44.054  46.568
 

 total amount of memory used by VASP MPI-rank0    94434. kBytes
=======================================================================

   base      :      30000. kBytes
   nonlr-proj:      13675. kBytes
   fftplans  :       1275. kBytes
   grid      :      22786. kBytes
   one-center:       2737. kBytes
   wavefun   :      23961. kBytes
 
  
  
 General timing and accounting informations for this job:
 ========================================================
  
                  Total CPU time used (sec):      784.857
                            User time (sec):      776.649
                          System time (sec):        8.208
                         Elapsed time (sec):      801.774
  
                   Maximum memory used (kb):      195340.
                   Average memory used (kb):           0.
  
                          Minor page faults:       318260
                          Major page faults:            0
                 Voluntary context switches:       261148
