 vasp.5.4.4.18Apr17-6-g9f103f2a35 (build Dec 02 2020 12:53:39) complex          
  
 executed on             LinuxIFC date 2021.08.02  15:13:14
 running on   96 total cores
 distrk:  each k-point on   96 cores,    1 groups
 distr:  one band on NCORES_PER_BAND=   1 cores,   96 groups


--------------------------------------------------------------------------------------------------------


 INCAR:
 POTCAR:    PAW_PBE Na_pv 19Sep2006               
 POTCAR:    PAW_PBE Mg_pv 13Apr2007               
 POTCAR:    PAW_PBE Mn_pv 02Aug2007               
 POTCAR:    PAW_PBE O 08Apr2002                   

 ----------------------------------------------------------------------------- 
|                                                                             |
|           W    W    AA    RRRRR   N    N  II  N    N   GGGG   !!!           |
|           W    W   A  A   R    R  NN   N  II  NN   N  G    G  !!!           |
|           W    W  A    A  R    R  N N  N  II  N N  N  G       !!!           |
|           W WW W  AAAAAA  RRRRR   N  N N  II  N  N N  G  GGG   !            |
|           WW  WW  A    A  R   R   N   NN  II  N   NN  G    G                |
|           W    W  A    A  R    R  N    N  II  N    N   GGGG   !!!           |
|                                                                             |
|      For optimal performance we recommend to set                            |
|        NCORE= 4 - approx SQRT( number of cores)                             |
|      NCORE specifies how many cores store one orbital (NPAR=cpu/NCORE).     |
|      This setting can  greatly improve the performance of VASP for DFT.     |
|      The default,   NCORE=1            might be grossly inefficient         |
|      on modern multi-core architectures or massively parallel machines.     |
|      Do your own testing !!!!                                               |
|      Unfortunately you need to use the default for GW and RPA calculations. |
|      (for HF NCORE is supported but not extensively tested yet)             |
|                                                                             |
 ----------------------------------------------------------------------------- 

 POTCAR:    PAW_PBE Na_pv 19Sep2006               
   VRHFIN =Na: p6s1                                                             
   LEXCH  = PE                                                                  
   EATOM  =   766.0439 eV,   56.3026 Ry                                         
                                                                                
   TITEL  = PAW_PBE Na_pv 19Sep2006                                             
   LULTRA =        F    use ultrasoft PP ?                                      
   IUNSCR =        1    unscreen: 0-lin 1-nonlin 2-no                           
   RPACOR =    1.800    partial core radius                                     
   POMASS =   22.990; ZVAL   =    7.000    mass and valenz                      
   RCORE  =    2.200    outmost cutoff radius                                   
   RWIGS  =    2.200; RWIGS  =    1.164    wigner-seitz radius (au A)           
   ENMAX  =  259.561; ENMIN  =  194.671 eV                                      
   ICORE  =        2    local potential                                         
   LCOR   =        T    correct aug charges                                     
   LPAW   =        T    paw PP                                                  
   EAUG   =  368.056                                                            
   DEXC   =    0.000                                                            
   RMAX   =    2.245    core radius for proj-oper                               
   RAUG   =    1.300    factor for augmentation sphere                          
   RDEP   =    2.259    radius for radial grids                                 
   RDEPT  =    1.738    core radius for aug-charge                              
                                                                                
   Atomic configuration                                                         
    5 entries                                                                   
     n  l   j            E        occ.                                          
     1  0  0.50     -1033.6933   2.0000                                         
     2  0  0.50       -56.7526   2.0000                                         
     2  1  1.50       -28.6721   6.0000                                         
     3  0  0.50        -2.7440   1.0000                                         
     3  2  1.50        -1.3606   0.0000                                         
   Description                                                                  
     l       E           TYP  RCUT    TYP  RCUT                                 
     1    -28.6720912     23  2.000                                             
     1      6.8029130     23  2.000                                             
     0     -2.7439560     23  2.200                                             
     0     34.0145650     23  2.200                                             
     2     -1.3605826     23  2.200                                             
  local pseudopotential read in
  partial core-charges read in
  partial kinetic energy density read in
  atomic valenz-charges read in
  non local Contribution for L=           1  read in
    real space projection operators read in
  non local Contribution for L=           1  read in
    real space projection operators read in
  non local Contribution for L=           0  read in
    real space projection operators read in
  non local Contribution for L=           0  read in
    real space projection operators read in
    PAW grid and wavefunctions read in
 
   number of l-projection  operators is LMAX  =           4
   number of lm-projection operators is LMMAX =           8
 
 POTCAR:    PAW_PBE Mg_pv 13Apr2007               
   VRHFIN =Mg: p6s2                                                             
   LEXCH  = PE                                                                  
   EATOM  =  1056.7344 eV,   77.6678 Ry                                         
                                                                                
   TITEL  = PAW_PBE Mg_pv 13Apr2007                                             
   LULTRA =        F    use ultrasoft PP ?                                      
   IUNSCR =        1    unscreen: 0-lin 1-nonlin 2-no                           
   RPACOR =    1.500    partial core radius                                     
   POMASS =   24.305; ZVAL   =    8.000    mass and valenz                      
   RCORE  =    2.000    outmost cutoff radius                                   
   RWIGS  =    2.000; RWIGS  =    1.058    wigner-seitz radius (au A)           
   ENMAX  =  403.929; ENMIN  =  302.947 eV                                      
   RCLOC  =    1.506    cutoff for local pot                                    
   LCOR   =        T    correct aug charges                                     
   LPAW   =        T    paw PP                                                  
   EAUG   =  758.780                                                            
   DEXC   =    0.000                                                            
   RMAX   =    2.045    core radius for proj-oper                               
   RAUG   =    1.300    factor for augmentation sphere                          
   RDEP   =    2.025    radius for radial grids                                 
   RDEPT  =    1.557    core radius for aug-charge                              
                                                                                
   Atomic configuration                                                         
    5 entries                                                                   
     n  l   j            E        occ.                                          
     1  0  0.50     -1259.6230   2.0000                                         
     2  0  0.50       -79.8442   2.0000                                         
     2  1  1.50       -46.6121   6.0000                                         
     3  0  0.50        -4.7055   2.0000                                         
     3  2  1.50        -1.3606   0.0000                                         
   Description                                                                  
     l       E           TYP  RCUT    TYP  RCUT                                 
     1    -46.6121073     23  1.600                                             
     1      2.7211652     23  1.600                                             
     0     -4.7054661     23  2.000                                             
     0     61.2262170     23  2.000                                             
     2     -1.3605826     23  2.000                                             
  local pseudopotential read in
  partial core-charges read in
  partial kinetic energy density read in
  atomic valenz-charges read in
  non local Contribution for L=           1  read in
    real space projection operators read in
  non local Contribution for L=           1  read in
    real space projection operators read in
  non local Contribution for L=           0  read in
    real space projection operators read in
  non local Contribution for L=           0  read in
    real space projection operators read in
  non local Contribution for L=           2  read in
    real space projection operators read in
    PAW grid and wavefunctions read in
 
   number of l-projection  operators is LMAX  =           5
   number of lm-projection operators is LMMAX =          13
 
 POTCAR:    PAW_PBE Mn_pv 02Aug2007               
   VRHFIN =Mn: 3p4s3d                                                           
   LEXCH  = PE                                                                  
   EATOM  =  2025.2664 eV,  148.8529 Ry                                         
                                                                                
   TITEL  = PAW_PBE Mn_pv 02Aug2007                                             
   LULTRA =        F    use ultrasoft PP ?                                      
   IUNSCR =        1    unscreen: 0-lin 1-nonlin 2-no                           
   RPACOR =    2.080    partial core radius                                     
   POMASS =   54.938; ZVAL   =   13.000    mass and valenz                      
   RCORE  =    2.300    outmost cutoff radius                                   
   RWIGS  =    2.500; RWIGS  =    1.323    wigner-seitz radius (au A)           
   ENMAX  =  269.864; ENMIN  =  202.398 eV                                      
   ICORE  =        3    local potential                                         
   LCOR   =        T    correct aug charges                                     
   LPAW   =        T    paw PP                                                  
   EAUG   =  569.085                                                            
   DEXC   =    0.000                                                            
   RMAX   =    2.343    core radius for proj-oper                               
   RAUG   =    1.300    factor for augmentation sphere                          
   RDEP   =    2.338    radius for radial grids                                 
   RDEPT  =    1.798    core radius for aug-charge                              
                                                                                
   Atomic configuration                                                         
    8 entries                                                                   
     n  l   j            E        occ.                                          
     1  0  0.50     -6424.8287   2.0000                                         
     2  0  0.50      -739.1154   2.0000                                         
     2  1  1.50      -625.3949   6.0000                                         
     3  0  0.50       -81.6100   2.0000                                         
     3  1  1.50       -50.4667   6.0000                                         
     3  2  2.50        -3.3745   6.0000                                         
     4  0  0.50        -4.1331   1.0000                                         
     4  3  2.50        -1.3606   0.0000                                         
   Description                                                                  
     l       E           TYP  RCUT    TYP  RCUT                                 
     1    -50.4666628     23  2.000                                             
     1     -1.3605826     23  2.000                                             
     2     -3.3744729     23  2.300                                             
     2     -4.7350555     23  2.300                                             
     0     -4.1331431     23  2.300                                             
     0      7.6656591     23  2.300                                             
     3      9.5240782     23  2.300                                             
  local pseudopotential read in
  partial core-charges read in
  partial kinetic energy density read in
  atomic valenz-charges read in
  non local Contribution for L=           1  read in
    real space projection operators read in
  non local Contribution for L=           1  read in
    real space projection operators read in
  non local Contribution for L=           2  read in
    real space projection operators read in
  non local Contribution for L=           2  read in
    real space projection operators read in
  non local Contribution for L=           0  read in
    real space projection operators read in
  non local Contribution for L=           0  read in
    real space projection operators read in
    PAW grid and wavefunctions read in
 
   number of l-projection  operators is LMAX  =           6
   number of lm-projection operators is LMMAX =          18
 
 POTCAR:    PAW_PBE O 08Apr2002                   
   VRHFIN =O: s2p4                                                              
   LEXCH  = PE                                                                  
   EATOM  =   432.3788 eV,   31.7789 Ry                                         
                                                                                
   TITEL  = PAW_PBE O 08Apr2002                                                 
   LULTRA =        F    use ultrasoft PP ?                                      
   IUNSCR =        1    unscreen: 0-lin 1-nonlin 2-no                           
   RPACOR =    1.200    partial core radius                                     
   POMASS =   16.000; ZVAL   =    6.000    mass and valenz                      
   RCORE  =    1.520    outmost cutoff radius                                   
   RWIGS  =    1.550; RWIGS  =    0.820    wigner-seitz radius (au A)           
   ENMAX  =  400.000; ENMIN  =  300.000 eV                                      
   ICORE  =        2    local potential                                         
   LCOR   =        T    correct aug charges                                     
   LPAW   =        T    paw PP                                                  
   EAUG   =  605.392                                                            
   DEXC   =    0.000                                                            
   RMAX   =    1.553    core radius for proj-oper                               
   RAUG   =    1.300    factor for augmentation sphere                          
   RDEP   =    1.550    radius for radial grids                                 
   RDEPT  =    1.329    core radius for aug-charge                              
                                                                                
   Atomic configuration                                                         
    4 entries                                                                   
     n  l   j            E        occ.                                          
     1  0  0.50      -514.6923   2.0000                                         
     2  0  0.50       -23.9615   2.0000                                         
     2  1  0.50        -9.0305   4.0000                                         
     3  2  1.50        -9.5241   0.0000                                         
   Description                                                                  
     l       E           TYP  RCUT    TYP  RCUT                                 
     0    -23.9615318     23  1.200                                             
     0     -9.5240782     23  1.200                                             
     1     -9.0304911     23  1.520                                             
     1      8.1634956     23  1.520                                             
     2     -9.5240782      7  1.500                                             
  local pseudopotential read in
  partial core-charges read in
  partial kinetic energy density read in
  kinetic energy density of atom read in
  atomic valenz-charges read in
  non local Contribution for L=           0  read in
    real space projection operators read in
  non local Contribution for L=           0  read in
    real space projection operators read in
  non local Contribution for L=           1  read in
    real space projection operators read in
  non local Contribution for L=           1  read in
    real space projection operators read in
    PAW grid and wavefunctions read in
 
   number of l-projection  operators is LMAX  =           4
   number of lm-projection operators is LMMAX =           8
 
 Optimization of the real space projectors (new method)

 maximal supplied QI-value         = 17.01
 optimisation between [QCUT,QGAM] = [ 10.20, 20.41] = [ 29.16,116.64] Ry 
 Optimized for a Real-space Cutoff    1.30 Angstroem

   l    n(q)    QCUT    max X(q) W(low)/X(q) W(high)/X(q)  e(spline) 
   1      7    10.205     4.940    0.23E-03    0.84E-03    0.11E-06
   1      7    10.205     6.253    0.40E-03    0.13E-02    0.18E-06
   0      8    10.205    37.438    0.23E-03    0.37E-03    0.42E-07
   0      8    10.205     9.606    0.16E-03    0.26E-03    0.31E-07
 Optimization of the real space projectors (new method)

 maximal supplied QI-value         = 18.90
 optimisation between [QCUT,QGAM] = [ 10.20, 20.41] = [ 29.16,116.64] Ry 
 Optimized for a Real-space Cutoff    1.26 Angstroem

   l    n(q)    QCUT    max X(q) W(low)/X(q) W(high)/X(q)  e(spline) 
   1      7    10.205     2.974    0.63E-04    0.14E-03    0.13E-06
   1      7    10.205     4.279    0.11E-03    0.45E-03    0.24E-06
   0      8    10.205    16.381    0.44E-03    0.15E-03    0.55E-07
   0      8    10.205     5.611    0.31E-03    0.11E-03    0.40E-07
   2      7    10.205     4.652    0.50E-03    0.47E-03    0.57E-07
 Optimization of the real space projectors (new method)

 maximal supplied QI-value         = 16.25
 optimisation between [QCUT,QGAM] = [ 10.24, 20.48] = [ 29.35,117.42] Ry 
 Optimized for a Real-space Cutoff    1.34 Angstroem

   l    n(q)    QCUT    max X(q) W(low)/X(q) W(high)/X(q)  e(spline) 
   1      8    10.239     3.658    0.23E-03    0.30E-03    0.98E-07
   1      8    10.239     5.612    0.32E-03    0.65E-03    0.21E-06
   2      7    10.239    55.373    0.42E-03    0.45E-03    0.65E-07
   2      7    10.239    50.863    0.43E-03    0.48E-03    0.67E-07
   0      8    10.239    79.536    0.11E-03    0.21E-03    0.56E-07
   0      8    10.239    38.668    0.96E-04    0.19E-03    0.52E-07
 Optimization of the real space projectors (new method)

 maximal supplied QI-value         = 24.76
 optimisation between [QCUT,QGAM] = [ 10.15, 20.30] = [ 28.85,115.39] Ry 
 Optimized for a Real-space Cutoff    1.38 Angstroem

   l    n(q)    QCUT    max X(q) W(low)/X(q) W(high)/X(q)  e(spline) 
   0      8    10.150    20.381    0.22E-03    0.32E-03    0.29E-06
   0      8    10.150    15.268    0.23E-03    0.35E-03    0.30E-06
   1      8    10.150     5.964    0.46E-03    0.53E-03    0.21E-06
   1      8    10.150     5.382    0.38E-03    0.45E-03    0.19E-06
  PAW_PBE Na_pv 19Sep2006               :
 energy of atom  1       EATOM= -766.0439
 kinetic energy error for atom=    0.0103 (will be added to EATOM!!)
  PAW_PBE Mg_pv 13Apr2007               :
 energy of atom  2       EATOM=-1056.7344
 kinetic energy error for atom=    0.0820 (will be added to EATOM!!)
  PAW_PBE Mn_pv 02Aug2007               :
 energy of atom  3       EATOM=-2025.2664
 kinetic energy error for atom=    0.0284 (will be added to EATOM!!)
  PAW_PBE O 08Apr2002                   :
 energy of atom  4       EATOM= -432.3788
 kinetic energy error for atom=    0.1156 (will be added to EATOM!!)
 
 
 POSCAR: Na Mg Mn  O                             
  positions in cartesian coordinates
  No initial velocities read in

 METAGGA = SCAN     LMAXTAU =  6    LMIXTAU =  F

 exchange correlation table for  LEXCH =        8
   RHO(1)=    0.500       N(1)  =     2000
   RHO(2)=  100.500       N(2)  =     4000

 VTST: version 3.2, (02/03/18)

 CHAIN: initializing optimizer
 
 OPT: Using VASP Dynamics algorithm
 CHAIN: Read ICHAIN            0
 
 POSCAR: Na Mg Mn  O                             
  positions in cartesian coordinates
  No initial velocities read in
 


--------------------------------------------------------------------------------------------------------


 ion  position               nearest neighbor table
   1  0.357  0.090  0.253-  51 2.32  43 2.32  52 2.35  28 2.84  26 2.85
   2  0.993  0.425  0.747-  73 2.25  57 2.33  70 2.33  60 2.34  37 2.81  39 2.86
   3  0.334  0.546  0.754-  82 2.25  85 2.27  83 2.29  80 2.33  38 2.75  40 2.89
   4  0.560  0.259  0.749-  46 2.33  49 2.35
   5  0.974  0.595  0.245-  66 2.27  75 2.27  67 2.33  76 2.36
   6  0.201  0.411  0.248-  78 2.19
   7  0.684  0.609  0.747-  72 2.29
   8  0.016  0.753  0.741-  69 2.34  44 2.35
   9  0.671  0.883  0.242-  79 2.31  54 2.32  88 2.34  15 2.73
  10  0.549  0.446  0.247-  74 2.21  65 2.22  43 2.36  33 2.77  35 2.91
  11  0.813  0.250  0.254-  62 2.30  75 2.34
  12  0.437  0.895  0.750-  84 2.14  81 2.17  29 2.87  31 2.91
  13  0.829  0.080  0.752-  56 2.30  59 2.34  32 2.88  30 2.90
  14  0.191  0.099  0.740-  44 2.21  45 2.30  58 2.37
  15  0.363  0.777  0.270-  88 2.21  51 2.30   9 2.73
  16  0.010  0.937  0.257-  63 2.31  41 2.33  50 2.35  27 2.78  25 2.92
  17  0.670  0.254  0.011-  53 2.00  43 2.01  66 2.08  60 2.10  49 2.14  71 2.25  26 2.85
  18  0.692  0.264  0.499-  57 1.99  62 2.01  75 2.03  68 2.05  46 2.05  52 2.06  36 2.80  39 2.82

  19  0.172  0.254  0.008-  61 2.04  83 2.06  48 2.07  41 2.09  78 2.10  55 2.16  30 2.84
  20  0.186  0.262  0.507-  58 1.95  45 2.01  80 2.04  50 2.11  87 2.13  64 2.19  40 2.82  32 2.84
                            35 2.85
  21  0.171  0.753  0.994-  73 2.02  42 2.03  84 2.08  47 2.10  77 2.10  67 2.10  37 2.80
  22  0.183  0.760  0.502-  76 2.00  81 2.01  70 2.01  51 2.09  86 2.09  44 2.11  36 2.85
  23  0.676  0.758  0.996-  59 1.99  65 1.99  85 2.02  54 2.09  72 2.09  79 2.16  25 2.83  33 2.84

  24  0.687  0.754  0.489-  63 1.97  88 2.00  74 2.03  69 2.04  56 2.21
  25  0.002  0.916  0.998-  67 1.86  41 1.90  47 1.91  54 1.93  72 1.96  61 1.97  34 2.82  23 2.83
                            30 2.90  16 2.92  26 2.94
  26  0.342  0.093  0.999-  49 1.84  48 1.86  47 1.92  42 1.95  41 1.95  43 1.96   1 2.85  17 2.85
                            33 2.93  29 2.94  25 2.94
  27  0.020  0.927  0.504-  58 1.85  50 1.85  44 1.92  63 1.94  69 1.96  76 1.96  16 2.78  32 2.85
                            28 2.90  36 2.95
  28  0.354  0.093  0.506-  51 1.87  52 1.88  45 1.91  44 1.96  46 1.98  50 1.98   1 2.84  35 2.87
                            27 2.90  31 2.90
  29  0.505  0.917  0.000-  79 1.88  84 1.91  42 1.92  59 1.92  53 1.95  49 2.02  12 2.87  38 2.87
                            26 2.94  30 2.95
  30  0.845  0.092  0.010-  54 1.87  61 1.89  53 1.90  55 1.92  59 2.00  60 2.08  19 2.84  13 2.90
                            25 2.90  37 2.93  29 2.95
  31  0.523  0.928  0.499-  56 1.87  62 1.87  46 1.93  51 1.96  88 1.98  81 2.01  28 2.90  12 2.91
                            32 2.92  40 2.96
  32  0.859  0.094  0.496-  63 1.83  64 1.90  57 1.95  58 1.95  56 2.00  62 2.03  20 2.84  27 2.85
                            39 2.85  13 2.88  31 2.92
  33  0.506  0.431  0.002-  65 1.85  48 1.88  85 1.90  78 1.91  71 1.94  43 2.02  38 2.75  10 2.77
                            23 2.84  34 2.90  26 2.93
  34  0.840  0.591  0.994-  66 1.80  71 1.83  67 1.84  72 1.89  65 1.96  73 2.02  25 2.82  37 2.89
                            33 2.90
  35  0.514  0.423  0.505-  74 1.86  87 1.87  45 1.91  68 1.94  82 1.99  52 1.99  20 2.85  28 2.87
                            10 2.91  40 2.92  36 2.96
  36  0.855  0.587  0.501-  68 1.82  70 1.85  69 1.91  75 1.92  76 1.95  74 1.99  18 2.80  39 2.83
                            22 2.85  27 2.95  35 2.96
  37  0.012  0.430  0.997-  83 1.87  55 1.88  66 1.89  73 1.89  60 1.91  77 2.04  21 2.80   2 2.81
                            38 2.88  34 2.89  30 2.93
  38  0.344  0.586  0.997-  85 1.85  77 1.85  78 1.89  83 1.91  84 1.93  79 1.93   3 2.75  33 2.75
                            29 2.87  37 2.88
  39  0.017  0.423  0.493-  80 1.86  64 1.86  86 1.89  75 1.90  57 1.92  70 1.94  18 2.82  40 2.83
                            36 2.83  32 2.85   2 2.86
  40  0.343  0.587  0.499-  82 1.90  86 1.90  87 1.91  81 1.93  80 1.95  88 1.99  20 2.82  39 2.83
                             3 2.89  35 2.92  31 2.96
  41  0.166  0.065  0.094-  25 1.90  26 1.95  19 2.09  16 2.33
  42  0.345  0.926  0.087-  29 1.92  26 1.95  21 2.03
  43  0.498  0.258  0.100-  26 1.96  17 2.01  33 2.02   1 2.32  10 2.36
  44  0.183  0.938  0.602-  27 1.92  28 1.96  22 2.11  14 2.21   8 2.35
  45  0.358  0.257  0.595-  28 1.91  35 1.91  20 2.01  14 2.30
  46  0.521  0.087  0.595-  31 1.93  28 1.98  18 2.05   4 2.33
  47  0.174  0.939  0.906-  25 1.91  26 1.92  21 2.10
  48  0.355  0.260  0.917-  26 1.86  33 1.88  19 2.07
  49  0.486  0.080  0.906-  26 1.84  29 2.02  17 2.14   4 2.35
  50  0.179  0.077  0.413-  27 1.85  28 1.98  20 2.11  16 2.35
  51  0.362  0.944  0.411-  28 1.87  31 1.96  22 2.09  15 2.30   1 2.32
  52  0.506  0.250  0.410-  28 1.88  35 1.99  18 2.06   1 2.35
  53  0.673  0.078  0.093-  30 1.90  29 1.95  17 2.00
  54  0.853  0.935  0.094-  30 1.87  25 1.93  23 2.09   9 2.32
  55  0.990  0.270  0.098-  37 1.88  30 1.92  19 2.16
  56  0.681  0.938  0.593-  31 1.87  32 2.00  24 2.21  13 2.30
  57  0.861  0.261  0.589-  39 1.92  32 1.95  18 1.99   2 2.33
  58  0.019  0.085  0.589-  27 1.85  32 1.95  20 1.95  14 2.37
  59  0.675  0.931  0.911-  29 1.92  23 1.99  30 2.00  13 2.34
  60  0.851  0.268  0.907-  37 1.91  30 2.08  17 2.10   2 2.34
  61  0.996  0.084  0.913-  30 1.89  25 1.97  19 2.04
  62  0.678  0.085  0.408-  31 1.87  18 2.01  32 2.03  11 2.30
  63  0.860  0.937  0.414-  32 1.83  27 1.94  24 1.97  16 2.31
  64  0.002  0.262  0.401-  39 1.86  32 1.90  20 2.19
  65  0.671  0.583  0.086-  33 1.85  34 1.96  23 1.99  10 2.22
  66  0.860  0.450  0.080-  34 1.80  37 1.89  17 2.08   5 2.27
  67  0.986  0.750  0.085-  34 1.84  25 1.86  21 2.10   5 2.33
  68  0.693  0.443  0.588-  36 1.82  35 1.94  18 2.05
  69  0.856  0.750  0.588-  36 1.91  27 1.96  24 2.04   8 2.34
  70  0.009  0.581  0.587-  36 1.85  39 1.94  22 2.01   2 2.33
  71  0.676  0.449  0.907-  34 1.83  33 1.94  17 2.25
  72  0.848  0.749  0.898-  34 1.89  25 1.96  23 2.09   7 2.29
  73  0.004  0.578  0.898-  37 1.89  34 2.02  21 2.02   2 2.25
  74  0.675  0.566  0.411-  35 1.86  36 1.99  24 2.03  10 2.21
  75  0.863  0.434  0.402-  39 1.90  36 1.92  18 2.03   5 2.27  11 2.34
  76  0.011  0.759  0.409-  36 1.95  27 1.96  22 2.00   5 2.36
  77  0.196  0.589  0.094-  38 1.85  37 2.04  21 2.10
  78  0.353  0.439  0.098-  38 1.89  33 1.91  19 2.10   6 2.19
  79  0.490  0.755  0.095-  29 1.88  38 1.93  23 2.16   9 2.31
  80  0.171  0.434  0.592-  39 1.86  40 1.95  20 2.04   3 2.33
  81  0.353  0.754  0.591-  40 1.93  31 2.01  22 2.01  12 2.17
  82  0.489  0.576  0.599-  40 1.90  35 1.99   3 2.25
  83  0.172  0.430  0.912-  37 1.87  38 1.91  19 2.06   3 2.29
  84  0.354  0.753  0.905-  29 1.91  38 1.93  21 2.08  12 2.14
  85  0.498  0.584  0.907-  38 1.85  33 1.90  23 2.02   3 2.27
  86  0.182  0.581  0.405-  39 1.89  40 1.90  22 2.09
  87  0.371  0.441  0.409-  35 1.87  40 1.91  20 2.13
  88  0.512  0.756  0.405-  31 1.98  40 1.99  24 2.00  15 2.21   9 2.34
 
  LATTYP: Found a hexagonal cell.
 ALAT       =    10.0190000534
 C/A-ratio  =     1.1196726572
  
  Lattice vectors:
  
 A1 = (  10.0190000534,   0.0000000000,   0.0000000000)
 A2 = (  -5.0095000267,   8.6767085668,   0.0000000000)
 A3 = (   0.0000000000,   0.0000000000,  11.2180004120)


Analysis of symmetry for initial positions (statically):
=====================================================================
 Subroutine PRICEL returns:
 Original cell was already a primitive cell.
 

 Routine SETGRP: Setting up the symmetry group for a 
 hexagonal supercell.


 Subroutine GETGRP returns: Found  1 space group operations
 (whereof  1 operations were pure point group operations)
 out of a pool of 24 trial point group operations.


The static configuration has the point symmetry C_1 .


Analysis of symmetry for dynamics (positions and initial velocities):
=====================================================================
 Subroutine PRICEL returns:
 Original cell was already a primitive cell.
 

 Routine SETGRP: Setting up the symmetry group for a 
 hexagonal supercell.


 Subroutine GETGRP returns: Found  1 space group operations
 (whereof  1 operations were pure point group operations)
 out of a pool of 24 trial point group operations.


The dynamic configuration has the point symmetry C_1 .


Analysis of structural, dynamic, and magnetic symmetry:
=====================================================================
 Subroutine PRICEL returns:
 Original cell was already a primitive cell.
 

 Routine SETGRP: Setting up the symmetry group for a 
 hexagonal supercell.


 Subroutine GETGRP returns: Found  1 space group operations
 (whereof  1 operations were pure point group operations)
 out of a pool of 24 trial point group operations.


The magnetic configuration has the point symmetry C_1 .


 Subroutine INISYM returns: Found  1 space group operations
 (whereof  1 operations are pure point group operations),
 and found     1 'primitive' translations

 
 

Automatic generation of k-mesh.
 generate k-points for:    2    2    2
Space group operators:
 irot       det(A)        alpha          n_x          n_y          n_z        tau_x        tau_y        tau_z
    1     1.000000     0.000000     1.000000     0.000000     0.000000     0.000000     0.000000     0.000000
 
 Subroutine IBZKPT returns following result:
 ===========================================
 
 Found      8 irreducible k-points:
 
 Following reciprocal coordinates:
            Coordinates               Weight
  0.000000  0.000000  0.000000      1.000000
  0.500000 -0.000000 -0.000000      1.000000
  0.000000  0.500000  0.000000      1.000000
  0.500000  0.500000 -0.000000      1.000000
  0.000000  0.000000  0.500000      1.000000
  0.500000 -0.000000  0.500000      1.000000
  0.000000  0.500000  0.500000      1.000000
  0.500000  0.500000  0.500000      1.000000
 
 Following cartesian coordinates:
            Coordinates               Weight
  0.000000  0.000000  0.000000      1.000000
  0.049905  0.028813 -0.000000      1.000000
  0.000000  0.057626  0.000000      1.000000
  0.049905  0.086438 -0.000000      1.000000
  0.000000  0.000000  0.044571      1.000000
  0.049905  0.028813  0.044571      1.000000
  0.000000  0.057626  0.044571      1.000000
  0.049905  0.086438  0.044571      1.000000
 


--------------------------------------------------------------------------------------------------------




 Dimension of arrays:
   k-points           NKPTS =      8   k-points in BZ     NKDIM =      8   number of bands    NBANDS=    480
   number of dos      NEDOS =    301   number of ions     NIONS =     88
   non local maximal  LDIM  =      6   non local SUM 2l+1 LMDIM =     18
   total plane-waves  NPLWV = 140000
   max r-space proj   IRMAX =   1632   max aug-charges    IRDMAX=   4555
   dimension x,y,z NGX =    50 NGY =   50 NGZ =   56
   dimension x,y,z NGXF=   100 NGYF=  100 NGZF=  112
   support grid    NGXF=   100 NGYF=  100 NGZF=  112
   ions per type =              16   8  16  48
   NGX,Y,Z   is equivalent  to a cutoff of   8.30,  8.30,  8.30 a.u.
   NGXF,Y,Z  is equivalent  to a cutoff of  16.59, 16.59, 16.60 a.u.

 SYSTEM =  unknown system                          
 POSCAR =  Na Mg Mn  O                             

 Startparameter for this run:
   NWRITE =      2    write-flag & timer
   PREC   = normal    normal or accurate (medium, high low for compatibility)
   ISTART =      0    job   : 0-new  1-cont  2-samecut
   ICHARG =      1    charge: 1-file 2-atom 10-const
   ISPIN  =      2    spin polarized calculation?
   LNONCOLLINEAR =      F non collinear calculations
   LSORBIT =      F    spin-orbit coupling
   INIWAV =      1    electr: 0-lowe 1-rand  2-diag
   LASPH  =      T    aspherical Exc in radial PAW
   METAGGA=      F    non-selfconsistent MetaGGA calc.

 Electronic Relaxation 1
   ENCUT  =  400.0 eV  29.40 Ry    5.42 a.u.  16.34 16.34 18.29*2*pi/ulx,y,z
   ENINI  =  400.0     initial cutoff
   ENAUG  =  758.8 eV  augmentation charge cutoff
   NELM   =    200;   NELMIN=  6; NELMDL=-12     # of ELM steps 
   EDIFF  = 0.1E-04   stopping-criterion for ELM
   LREAL  =      T    real-space projection
   NLSPLINE    = F    spline interpolate recip. space projectors
   LCOMPAT=      F    compatible to vasp.4.4
   GGA_COMPAT  = T    GGA compatible to vasp.4.4-vasp.4.6
   LMAXPAW     = -100 max onsite density
   LMAXMIX     =    4 max onsite mixed and CHGCAR
   VOSKOWN=      0    Vosko Wilk Nusair interpolation
   ROPT   =   -0.00050  -0.00050  -0.00050  -0.00050
 Ionic relaxation
   EDIFFG = 0.1E-03   stopping-criterion for IOM
   NSW    =      1    number of steps for IOM
   NBLOCK =      1;   KBLOCK =      1    inner block; outer block 
   IBRION =     -1    ionic relax: 0-MD 1-quasi-New 2-CG
   NFREE  =      0    steps in history (QN), initial steepest desc. (CG)
   ISIF   =      2    stress and relaxation
   IWAVPR =     10    prediction:  0-non 1-charg 2-wave 3-comb
   ISYM   =      2    0-nonsym 1-usesym 2-fastsym
   LCORR  =      T    Harris-Foulkes like correction to forces

   POTIM  = 0.5000    time-step for ionic-motion
   TEIN   =    0.0    initial temperature
   TEBEG  =    0.0;   TEEND  =   0.0 temperature during run
   SMASS  =  -3.00    Nose mass-parameter (am)
   estimated Nose-frequenzy (Omega)   =  0.10E-29 period in steps =****** mass=  -0.229E-26a.u.
   SCALEE = 1.0000    scale energy and forces
   NPACO  =    256;   APACO  = 16.0  distance and # of slots for P.C.
   PSTRESS=    0.0 pullay stress

  Mass of Ions in am
   POMASS =  22.99 24.30 54.94 16.00
  Ionic Valenz
   ZVAL   =   7.00  8.00 13.00  6.00
  Atomic Wigner-Seitz radii
   RWIGS  =  -1.00 -1.00 -1.00 -1.00
  virtual crystal weights 
   VCA    =   1.00  1.00  1.00  1.00
   NELECT =     672.0000    total number of electrons
   NUPDOWN=      48.0000    fix difference up-down

 DOS related values:
   EMIN   =  10.00;   EMAX   =-10.00  energy-range for DOS
   EFERMI =   0.00
   ISMEAR =     0;   SIGMA  =   0.05  broadening in eV -4-tet -1-fermi 0-gaus

 Electronic relaxation 2 (details)
   IALGO  =     48    algorithm
   LDIAG  =      T    sub-space diagonalisation (order eigenvalues)
   LSUBROT=      F    optimize rotation matrix (better conditioning)
   TURBO    =      0    0=normal 1=particle mesh
   IRESTART =      0    0=no restart 2=restart with 2 vectors
   NREBOOT  =      0    no. of reboots
   NMIN     =      0    reboot dimension
   EREF     =   0.00    reference energy to select bands
   IMIX   =      4    mixing-type and parameters
     AMIX     =   0.40;   BMIX     =  1.00
     AMIX_MAG =   1.60;   BMIX_MAG =  1.00
     AMIN     =   0.10
     WC   =   100.;   INIMIX=   1;  MIXPRE=   1;  MAXMIX= -45

 Intra band minimization:
   WEIMIN = 0.0000     energy-eigenvalue tresh-hold
   EBREAK =  0.52E-08  absolut break condition
   DEPER  =   0.30     relativ break condition  

   TIME   =   0.40     timestep for ELM

  volume/ion in A,a.u.               =      11.08        74.78
  Fermi-wavevector in a.u.,A,eV,Ry     =   1.445993  2.732531 28.448379  2.090897
  Thomas-Fermi vector in A             =   2.564112
 
 Write flags
   LWAVE        =      F    write WAVECAR
   LDOWNSAMPLE  =      F    k-point downsampling of WAVECAR
   LCHARG       =      F    write CHGCAR
   LVTOT        =      F    write LOCPOT, total local potential
   LVHAR        =      F    write LOCPOT, Hartree potential only
   LELF         =      F    write electronic localiz. function (ELF)
   LORBIT       =     11    0 simple, 1 ext, 2 COOP (PROOUT), +10 PAW based schemes


 Dipole corrections
   LMONO  =      F    monopole corrections only (constant potential shift)
   LDIPOL =      F    correct potential (dipole corrections)
   IDIPOL =      0    1-x, 2-y, 3-z, 4-all directions 
   EPSILON=  1.0000000 bulk dielectric constant

 Exchange correlation treatment:
   GGA     =    --    GGA type
   LEXCH   =     8    internal setting for exchange type
   VOSKOWN=      0    Vosko Wilk Nusair interpolation
   LHFCALC =     F    Hartree Fock is set to
   LHFONE  =     F    Hartree Fock one center treatment
   AEXX    =    0.0000 exact exchange contribution

 Linear response parameters
   LEPSILON=     F    determine dielectric tensor
   LRPA    =     F    only Hartree local field effects (RPA)
   LNABLA  =     F    use nabla operator in PAW spheres
   LVEL    =     F    velocity operator in full k-point grid
   LINTERFAST=   F  fast interpolation
   KINTER  =     0    interpolate to denser k-point grid
   CSHIFT  =0.1000    complex shift for real part using Kramers Kronig
   OMEGAMAX=  -1.0    maximum frequency
   DEG_THRESHOLD= 0.2000000E-02 threshold for treating states as degnerate
   RTIME   =   -0.100 relaxation time in fs
  (WPLASMAI=    0.000 imaginary part of plasma frequency in eV, 0.658/RTIME)
   DFIELD  = 0.0000000 0.0000000 0.0000000 field for delta impulse in time
 
 Orbital magnetization related:
   ORBITALMAG=     F  switch on orbital magnetization
   LCHIMAG   =     F  perturbation theory with respect to B field
   DQ        =  0.001000  dq finite difference perturbation B field
   LLRAUG    =     F  two centre corrections for induced B field



--------------------------------------------------------------------------------------------------------


 Static calculation
 charge density and potential will be updated during run
 spin polarized calculation
 RMM-DIIS sequential band-by-band
 perform sub-space diagonalisation
    before iterative eigenvector-optimisation
 modified Broyden-mixing scheme, WC =      100.0
 initial mixing is a Kerker type mixing with AMIX =  0.4000 and BMIX =      1.0000
 Hartree-type preconditioning will be used
 using additional bands          144
 real space projection scheme for non local part
 use partial core corrections
 calculate Harris-corrections to forces 
   (improved forces if not selfconsistent)
 use gradient corrections 
 use of overlap-Matrix (Vanderbilt PP)
 Gauss-broadening in eV      SIGMA  =   0.05


--------------------------------------------------------------------------------------------------------


  energy-cutoff  :      400.00
  volume of cell :      975.20
      direct lattice vectors                 reciprocal lattice vectors
    10.019000053  0.000000000  0.000000000     0.099810360  0.057625538 -0.000000000
    -5.009500027  8.676708567  0.000000000     0.000000000  0.115251076  0.000000000
     0.000000000  0.000000000 11.218000412     0.000000000  0.000000000  0.089142446

  length of vectors
    10.019000053 10.019000053 11.218000412     0.115251076  0.115251076  0.089142446


 
 k-points in units of 2pi/SCALE and weight: read from INCAR                         
   0.00000000  0.00000000  0.00000000       0.125
   0.04990518  0.02881277 -0.00000000       0.125
   0.00000000  0.05762554  0.00000000       0.125
   0.04990518  0.08643831 -0.00000000       0.125
   0.00000000  0.00000000  0.04457122       0.125
   0.04990518  0.02881277  0.04457122       0.125
   0.00000000  0.05762554  0.04457122       0.125
   0.04990518  0.08643831  0.04457122       0.125
 
 k-points in reciprocal lattice and weights: read from INCAR                         
   0.00000000  0.00000000  0.00000000       0.125
   0.50000000 -0.00000000 -0.00000000       0.125
   0.00000000  0.50000000  0.00000000       0.125
   0.50000000  0.50000000 -0.00000000       0.125
   0.00000000  0.00000000  0.50000000       0.125
   0.50000000 -0.00000000  0.50000000       0.125
   0.00000000  0.50000000  0.50000000       0.125
   0.50000000  0.50000000  0.50000000       0.125
 
 position of ions in fractional coordinates (direct lattice) 
   0.35701469  0.09037430  0.25286057
   0.99314683  0.42492825  0.74698874
   0.33392322  0.54648504  0.75438846
   0.55955043  0.25876748  0.74945620
   0.97411741  0.59530540  0.24451327
   0.20132444  0.41122259  0.24767070
   0.68364812  0.60949610  0.74705292
   0.01629887  0.75314471  0.74072470
   0.67129105  0.88336262  0.24229095
   0.54920673  0.44634239  0.24660545
   0.81260483  0.24985083  0.25425654
   0.43703622  0.89536717  0.75007485
   0.82941178  0.08000532  0.75185324
   0.19123693  0.09907229  0.74006683
   0.36342707  0.77742844  0.27026474
   0.00977024  0.93741653  0.25704938
   0.67004073  0.25403296  0.01093412
   0.69213885  0.26395032  0.49912549
   0.17177376  0.25371141  0.00821248
   0.18565944  0.26210400  0.50686306
   0.17119804  0.75262065  0.99350148
   0.18288187  0.76027216  0.50154749
   0.67600794  0.75752343  0.99649440
   0.68701208  0.75400020  0.48862719
   0.00233047  0.91577583  0.99772845
   0.34155798  0.09259594  0.99929549
   0.02030749  0.92704278  0.50430378
   0.35395044  0.09282552  0.50629522
   0.50529204  0.91708393  0.00008911
   0.84497887  0.09200586  0.00977889
   0.52280757  0.92778960  0.49919146
   0.85897780  0.09416681  0.49646727
   0.50561222  0.43051579  0.00221106
   0.83996063  0.59068482  0.99382664
   0.51444355  0.42303023  0.50454179
   0.85510323  0.58669713  0.50086288
   0.01241903  0.42982658  0.99711400
   0.34432634  0.58589152  0.99731553
   0.01725737  0.42298067  0.49276251
   0.34281288  0.58728260  0.49856568
   0.16558055  0.06480119  0.09364057
   0.34459702  0.92649517  0.08673783
   0.49776334  0.25759077  0.09951952
   0.18286335  0.93779577  0.60215099
   0.35767169  0.25670679  0.59514885
   0.52111954  0.08653293  0.59540825
   0.17366582  0.93897352  0.90607057
   0.35492285  0.25975288  0.91744514
   0.48649411  0.07961763  0.90635582
   0.17873879  0.07675295  0.41301924
   0.36244737  0.94419209  0.41065696
   0.50553647  0.24995308  0.41033249
   0.67282485  0.07847135  0.09281244
   0.85302744  0.93526140  0.09411035
   0.98980714  0.27023611  0.09768140
   0.68139492  0.93800495  0.59313155
   0.86148927  0.26062302  0.58869939
   0.01924162  0.08522644  0.58924762
   0.67533698  0.93061609  0.91054552
   0.85094192  0.26797028  0.90679262
   0.99577961  0.08442280  0.91271168
   0.67788402  0.08457931  0.40776073
   0.86039466  0.93689473  0.41413085
   0.00203095  0.26159459  0.40068460
   0.67053892  0.58300218  0.08611936
   0.85974268  0.44992752  0.08021349
   0.98647047  0.75020614  0.08474755
   0.69337334  0.44333516  0.58821356
   0.85586062  0.75028796  0.58841413
   0.00915253  0.58130338  0.58720091
   0.67554608  0.44859292  0.90663216
   0.84843908  0.74938440  0.89762878
   0.00395768  0.57821580  0.89796752
   0.67496490  0.56570184  0.41061328
   0.86277083  0.43400559  0.40173291
   0.01149201  0.75873010  0.40851844
   0.19552714  0.58873707  0.09357372
   0.35337071  0.43912389  0.09836512
   0.49003437  0.75503631  0.09509092
   0.17062431  0.43413813  0.59214118
   0.35322724  0.75405783  0.59130681
   0.48913387  0.57649510  0.59924316
   0.17243525  0.42977818  0.91213225
   0.35384595  0.75268980  0.90479583
   0.49806963  0.58409015  0.90734530
   0.18168094  0.58145551  0.40519164
   0.37085054  0.44121800  0.40906666
   0.51187782  0.75572090  0.40528078
 
 position of ions in cartesian coordinates  (Angst):
   3.12420013  0.78415143  2.83659000
   7.82166003  3.68697857  8.37972000
   0.60795997  4.74169143  8.46273000
   4.30984005  2.24525000  8.40740000
   6.77749997  5.16529143  2.74295000
  -0.04295003  3.56805857  2.77837000
   3.79619989  5.28842000  8.38044000
  -3.60958000  6.53481713  8.30945000
   2.30046000  7.66468000  2.71802000
   3.26655000  3.87278287  2.76642000
   6.88986005  2.16788287  2.85225000
  -0.10667600  7.76884000  8.41434000
   7.90909005  0.69418287  8.43429000
   1.41970019  0.85962143  8.30207000
  -0.25335200  6.74552000  3.03183000
  -4.59810011  8.13369000  2.88358000
   5.44056000  2.20417000  0.12265900
   5.61228000  2.29022000  5.59919000
   0.45003400  2.20138000  0.09212760
   0.54711200  2.27420000  5.68599000
  -2.05502000  6.53027000 11.14510000
  -1.97629000  6.59666000  5.62636000
   2.97811000  6.57281000 11.17867461
   3.10601000  6.54224000  5.48142000
  -4.56423005  7.94592000 11.19251821
   2.95821000  0.80342800 11.21009722
  -4.44056005  8.04368000  5.65728000
   3.08122000  0.80542000  5.67962000
   0.46838900  7.95727000  0.00099959
   8.00494000  0.79830800  0.10969959
   0.59024700  8.05016000  5.59993000
   8.13437000  0.81705800  5.56937000
   2.90906000  3.73546000  0.02480370
   5.45653000  5.12520000 11.14874761
   3.03504000  3.67051000  5.65995000
   5.62822000  5.09060000  5.61868000
  -2.02879005  3.72948000 11.18562531
   0.51478200  5.08361000 11.18788601
  -1.94602005  3.67008000  5.52781000
   0.49265000  5.09568000  5.59291000
   1.33433000  0.56226100  1.05046000
  -1.18876003  8.03892857  0.97302500
   3.69669000  2.23504000  1.11641000
  -2.86578003  8.13698057  6.75493000
   2.29754000  2.22737000  6.67638000
   4.78761000  0.75082100  6.67929000
  -2.96383003  8.14719957 10.16430000
   2.25474000  2.25380000 10.29190000
   4.47534000  0.69081900 10.16750000
   1.40629000  0.66596300  4.63325000
  -1.09857003  8.19247957  4.60675000
   3.81283000  2.16877000  4.60311000
   6.34793000  0.68087300  1.04117000
   3.86128997  8.11499057  1.05573000
   8.56313000  2.34476000  1.09579000
   2.12795997  8.13879557  6.65375000
   7.32567000  2.26135000  6.60403000
  -0.23416005  0.73948500  6.61018000
   2.10427997  8.07468457 10.21450000
   7.18319000  2.32510000 10.17240000
   9.55380000  0.73251200 10.23880000
   6.36802000  0.73387000  4.57426000
   3.92691997  8.12916257  4.64572000
  -1.29011005  2.26978000  4.49488000
   3.79758000  5.05854000  0.96608700
   6.35985000  3.90389000  0.89983500
   6.12529000  6.50932000  0.95069800
   4.72602000  3.84669000  6.59858000
   4.81630000  6.51003000  6.60083000
  -2.82034005  5.04380000  6.58722000
   4.52107000  3.89231000 10.17060000
   4.74647000  6.50219000 10.06960000
  -2.85692005  5.01701000 10.07340000
   3.92859000  4.90843000  4.60626000
   6.46995000  3.76574000  4.50664000
  -3.68572005  6.58328000  4.58276000
  -0.99029200  5.10830000  1.04971000
   1.34063000  3.81015000  1.10346000
   1.12730000  6.55123000  1.06673000
  -0.46533000  3.76689000  6.64264000
  -0.23846900  6.54274000  6.63328000
   2.01268000  5.00208000  6.72231000
  -0.42534500  3.72906000 10.23230000
  -0.22541700  6.53087000 10.15000000
   2.06416000  5.06798000 10.17860000
  -1.09254000  5.04512000  4.54544000
   1.50527000  3.82832000  4.58891000
   1.34272000  6.55717000  4.54644000
 


--------------------------------------------------------------------------------------------------------


 k-point  1 :   0.0000 0.0000 0.0000  plane waves:   17725
 k-point  2 :   0.5000-0.0000-0.0000  plane waves:   17736
 k-point  3 :   0.0000 0.5000 0.0000  plane waves:   17736
 k-point  4 :   0.5000 0.5000-0.0000  plane waves:   17736
 k-point  5 :   0.0000 0.0000 0.5000  plane waves:   17676
 k-point  6 :   0.5000-0.0000 0.5000  plane waves:   17700
 k-point  7 :   0.0000 0.5000 0.5000  plane waves:   17700
 k-point  8 :   0.5000 0.5000 0.5000  plane waves:   17700

 maximum and minimum number of plane-waves per node :     17736    17676

 maximum number of plane-waves:     17736
 maximum index in each direction: 
   IXMAX=   16   IYMAX=   16   IZMAX=   18
   IXMIN=  -16   IYMIN=  -16   IZMIN=  -18


 serial   3D FFT for wavefunctions
 parallel 3D FFT for charge:
    minimum data exchange during FFTs selected (reduces bandwidth)


 total amount of memory used by VASP MPI-rank0    94432. kBytes
=======================================================================

   base      :      30000. kBytes
   nonlr-proj:      13673. kBytes
   fftplans  :       1275. kBytes
   grid      :      22786. kBytes
   one-center:       2737. kBytes
   wavefun   :      23961. kBytes
 
     INWAV:  cpu time    0.0000: real time    0.0001
 Broyden mixing: mesh for mixing (old mesh)
   NGX = 33   NGY = 33   NGZ = 37
  (NGX  =100   NGY  =100   NGZ  =112)
  gives a total of  40293 points

 initial charge density was supplied:
 charge density of overlapping atoms calculated
 number of electron     672.0000000 magnetization      48.0000000
 keeping initial charge density in first step


--------------------------------------------------------------------------------------------------------


 Maximum index for non-local projection operator         1553
 Maximum index for augmentation-charges          533 (set IRDMAX)


--------------------------------------------------------------------------------------------------------


 First call to EWALD:  gamma=   0.179
 Maximum number of real-space cells 3x 3x 2
 Maximum number of reciprocal cells 3x 3x 3

    FEWALD:  cpu time    0.0033: real time    0.0038


--------------------------------------- Iteration      1(   1)  ---------------------------------------


    POTLOK:  cpu time    0.1934: real time    0.1950
    SETDIJ:  cpu time    4.6180: real time    4.6199
    EDDIAG:  cpu time    4.3898: real time    4.8187
  RMM-DIIS:  cpu time    9.0279: real time    9.0337
    ORTHCH:  cpu time    1.1615: real time    1.2406
       DOS:  cpu time    0.0020: real time    0.0022
    --------------------------------------------
      LOOP:  cpu time   19.3928: real time   19.9102

 eigenvalue-minimisations  :  7680
 total energy-change (2. order) : 0.1594814E+04  (-0.3497983E+05)
 number of electron     672.0000000 magnetization      48.0000000
 augmentation part      672.0000000 magnetization      48.0000000

 Free energy of the ion-electron system (eV)
  ---------------------------------------------------
  alpha Z        PSCENC =      2652.81237852
  Ewald energy   TEWEN  =    -41592.92590040
  -Hartree energ DENC   =    -26003.66761357
  -exchange      EXHF   =         0.00000000
  -V(xc)+E(xc)   XCENC  =      3607.06880384
  PAW double counting   =     55594.23204139   -59034.67079123
  entropy T*S    EENTRO =        -0.03871152
  eigenvalues    EBANDS =     -7490.19439145
  atomic energy  EATOM  =     73862.19814772
  Solvation  Ediel_sol  =         0.00000000
  ---------------------------------------------------
  free energy    TOTEN  =      1594.81396330 eV

  energy without entropy =     1594.85267482  energy(sigma->0) =     1594.83331906


--------------------------------------------------------------------------------------------------------




--------------------------------------- Iteration      1(   2)  ---------------------------------------


    EDDIAG:  cpu time    4.3861: real time    4.7577
  RMM-DIIS:  cpu time    9.0253: real time    9.0336
    ORTHCH:  cpu time    1.1614: real time    1.2395
       DOS:  cpu time    0.0018: real time    0.0018
    --------------------------------------------
      LOOP:  cpu time   14.5745: real time   15.0326

 eigenvalue-minimisations  :  7680
 total energy-change (2. order) :-0.2315727E+04  (-0.8027628E+04)
 number of electron     672.0000000 magnetization      48.0000000
 augmentation part      672.0000000 magnetization      48.0000000

 Free energy of the ion-electron system (eV)
  ---------------------------------------------------
  alpha Z        PSCENC =      2652.81237852
  Ewald energy   TEWEN  =    -41592.92590040
  -Hartree energ DENC   =    -26003.66761357
  -exchange      EXHF   =         0.00000000
  -V(xc)+E(xc)   XCENC  =      3607.06880384
  PAW double counting   =     55594.23204139   -59034.67079123
  entropy T*S    EENTRO =        -0.02702498
  eigenvalues    EBANDS =     -9805.93271712
  atomic energy  EATOM  =     73862.19814772
  Solvation  Ediel_sol  =         0.00000000
  ---------------------------------------------------
  free energy    TOTEN  =      -720.91267583 eV

  energy without entropy =     -720.88565085  energy(sigma->0) =     -720.89916334


--------------------------------------------------------------------------------------------------------




--------------------------------------- Iteration      1(   3)  ---------------------------------------


    EDDIAG:  cpu time    4.4063: real time    4.8069
  RMM-DIIS:  cpu time    9.0066: real time    9.0183
    ORTHCH:  cpu time    1.1596: real time    1.2411
       DOS:  cpu time    0.0019: real time    0.0019
    --------------------------------------------
      LOOP:  cpu time   14.5744: real time   15.0682

 eigenvalue-minimisations  :  7680
 total energy-change (2. order) : 0.7837025E+02  (-0.1421620E+04)
 number of electron     672.0000000 magnetization      48.0000000
 augmentation part      672.0000000 magnetization      48.0000000

 Free energy of the ion-electron system (eV)
  ---------------------------------------------------
  alpha Z        PSCENC =      2652.81237852
  Ewald energy   TEWEN  =    -41592.92590040
  -Hartree energ DENC   =    -26003.66761357
  -exchange      EXHF   =         0.00000000
  -V(xc)+E(xc)   XCENC  =      3607.06880384
  PAW double counting   =     55594.23204139   -59034.67079123
  entropy T*S    EENTRO =        -0.03935066
  eigenvalues    EBANDS =     -9727.55014383
  atomic energy  EATOM  =     73862.19814772
  Solvation  Ediel_sol  =         0.00000000
  ---------------------------------------------------
  free energy    TOTEN  =      -642.54242821 eV

  energy without entropy =     -642.50307755  energy(sigma->0) =     -642.52275288


--------------------------------------------------------------------------------------------------------




--------------------------------------- Iteration      1(   4)  ---------------------------------------


    EDDIAG:  cpu time    4.3804: real time    4.7730
  RMM-DIIS:  cpu time    9.0139: real time    9.0299
    ORTHCH:  cpu time    1.1569: real time    1.2399
       DOS:  cpu time    0.0012: real time    0.0012
    --------------------------------------------
      LOOP:  cpu time   14.5524: real time   15.0440

 eigenvalue-minimisations  :  7680
 total energy-change (2. order) :-0.4675597E+03  (-0.4287848E+03)
 number of electron     672.0000000 magnetization      48.0000000
 augmentation part      672.0000000 magnetization      48.0000000

 Free energy of the ion-electron system (eV)
  ---------------------------------------------------
  alpha Z        PSCENC =      2652.81237852
  Ewald energy   TEWEN  =    -41592.92590040
  -Hartree energ DENC   =    -26003.66761357
  -exchange      EXHF   =         0.00000000
  -V(xc)+E(xc)   XCENC  =      3607.06880384
  PAW double counting   =     55594.23204139   -59034.67079123
  entropy T*S    EENTRO =        -0.00000000
  eigenvalues    EBANDS =    -10195.14920046
  atomic energy  EATOM  =     73862.19814772
  Solvation  Ediel_sol  =         0.00000000
  ---------------------------------------------------
  free energy    TOTEN  =     -1110.10213419 eV

  energy without entropy =    -1110.10213419  energy(sigma->0) =    -1110.10213419


--------------------------------------------------------------------------------------------------------




--------------------------------------- Iteration      1(   5)  ---------------------------------------


    EDDIAG:  cpu time    4.4515: real time    4.8535
  RMM-DIIS:  cpu time    9.0202: real time    9.0324
    ORTHCH:  cpu time    1.1614: real time    1.2405
       DOS:  cpu time    0.0018: real time    0.0018
    --------------------------------------------
      LOOP:  cpu time   14.6349: real time   15.1282

 eigenvalue-minimisations  :  7680
 total energy-change (2. order) :-0.1046511E+03  (-0.1601980E+03)
 number of electron     672.0000000 magnetization      48.0000000
 augmentation part      672.0000000 magnetization      48.0000000

 Free energy of the ion-electron system (eV)
  ---------------------------------------------------
  alpha Z        PSCENC =      2652.81237852
  Ewald energy   TEWEN  =    -41592.92590040
  -Hartree energ DENC   =    -26003.66761357
  -exchange      EXHF   =         0.00000000
  -V(xc)+E(xc)   XCENC  =      3607.06880384
  PAW double counting   =     55594.23204139   -59034.67079123
  entropy T*S    EENTRO =        -0.00000000
  eigenvalues    EBANDS =    -10299.80033604
  atomic energy  EATOM  =     73862.19814772
  Solvation  Ediel_sol  =         0.00000000
  ---------------------------------------------------
  free energy    TOTEN  =     -1214.75326976 eV

  energy without entropy =    -1214.75326976  energy(sigma->0) =    -1214.75326976


--------------------------------------------------------------------------------------------------------




--------------------------------------- Iteration      1(   6)  ---------------------------------------


    EDDIAG:  cpu time    4.3805: real time    4.7795
  RMM-DIIS:  cpu time    8.9879: real time    9.0212
    ORTHCH:  cpu time    1.1619: real time    1.2392
       DOS:  cpu time    0.0013: real time    0.0013
    --------------------------------------------
      LOOP:  cpu time   14.5316: real time   15.0412

 eigenvalue-minimisations  :  7680
 total energy-change (2. order) :-0.8955395E+01  (-0.7942564E+02)
 number of electron     672.0000000 magnetization      48.0000000
 augmentation part      672.0000000 magnetization      48.0000000

 Free energy of the ion-electron system (eV)
  ---------------------------------------------------
  alpha Z        PSCENC =      2652.81237852
  Ewald energy   TEWEN  =    -41592.92590040
  -Hartree energ DENC   =    -26003.66761357
  -exchange      EXHF   =         0.00000000
  -V(xc)+E(xc)   XCENC  =      3607.06880384
  PAW double counting   =     55594.23204139   -59034.67079123
  entropy T*S    EENTRO =        -0.00000000
  eigenvalues    EBANDS =    -10308.75573073
  atomic energy  EATOM  =     73862.19814772
  Solvation  Ediel_sol  =         0.00000000
  ---------------------------------------------------
  free energy    TOTEN  =     -1223.70866445 eV

  energy without entropy =    -1223.70866445  energy(sigma->0) =    -1223.70866445


--------------------------------------------------------------------------------------------------------




--------------------------------------- Iteration      1(   7)  ---------------------------------------


    EDDIAG:  cpu time    4.4035: real time    4.8035
  RMM-DIIS:  cpu time    8.9921: real time    9.0096
    ORTHCH:  cpu time    1.1702: real time    1.2510
       DOS:  cpu time    0.0018: real time    0.0018
    --------------------------------------------
      LOOP:  cpu time   14.5676: real time   15.0660

 eigenvalue-minimisations  :  7680
 total energy-change (2. order) :-0.1723524E+01  (-0.4828337E+02)
 number of electron     672.0000000 magnetization      48.0000000
 augmentation part      672.0000000 magnetization      48.0000000

 Free energy of the ion-electron system (eV)
  ---------------------------------------------------
  alpha Z        PSCENC =      2652.81237852
  Ewald energy   TEWEN  =    -41592.92590040
  -Hartree energ DENC   =    -26003.66761357
  -exchange      EXHF   =         0.00000000
  -V(xc)+E(xc)   XCENC  =      3607.06880384
  PAW double counting   =     55594.23204139   -59034.67079123
  entropy T*S    EENTRO =        -0.00000000
  eigenvalues    EBANDS =    -10310.47925424
  atomic energy  EATOM  =     73862.19814772
  Solvation  Ediel_sol  =         0.00000000
  ---------------------------------------------------
  free energy    TOTEN  =     -1225.43218797 eV

  energy without entropy =    -1225.43218797  energy(sigma->0) =    -1225.43218797


--------------------------------------------------------------------------------------------------------




--------------------------------------- Iteration      1(   8)  ---------------------------------------


    EDDIAG:  cpu time    4.4161: real time    4.7964
  RMM-DIIS:  cpu time    9.0180: real time    9.0358
    ORTHCH:  cpu time    1.1900: real time    1.2834
       DOS:  cpu time    0.0022: real time    0.0022
    --------------------------------------------
      LOOP:  cpu time   14.6264: real time   15.1179

 eigenvalue-minimisations  :  7680
 total energy-change (2. order) : 0.5014188E+01  (-0.2989634E+02)
 number of electron     672.0000000 magnetization      48.0000000
 augmentation part      672.0000000 magnetization      48.0000000

 Free energy of the ion-electron system (eV)
  ---------------------------------------------------
  alpha Z        PSCENC =      2652.81237852
  Ewald energy   TEWEN  =    -41592.92590040
  -Hartree energ DENC   =    -26003.66761357
  -exchange      EXHF   =         0.00000000
  -V(xc)+E(xc)   XCENC  =      3607.06880384
  PAW double counting   =     55594.23204139   -59034.67079123
  entropy T*S    EENTRO =        -0.00000000
  eigenvalues    EBANDS =    -10305.46506647
  atomic energy  EATOM  =     73862.19814772
  Solvation  Ediel_sol  =         0.00000000
  ---------------------------------------------------
  free energy    TOTEN  =     -1220.41800019 eV

  energy without entropy =    -1220.41800019  energy(sigma->0) =    -1220.41800019


--------------------------------------------------------------------------------------------------------




--------------------------------------- Iteration      1(   9)  ---------------------------------------


    EDDIAG:  cpu time    4.3915: real time    4.7761
  RMM-DIIS:  cpu time   18.8481: real time   18.8624
    ORTHCH:  cpu time    1.1823: real time    1.2613
       DOS:  cpu time    0.0013: real time    0.0013
    --------------------------------------------
      LOOP:  cpu time   24.4231: real time   24.9011

 eigenvalue-minimisations  : 21774
 total energy-change (2. order) : 0.9225379E+01  (-0.1317948E+02)
 number of electron     672.0000000 magnetization      48.0000000
 augmentation part      672.0000000 magnetization      48.0000000

 Free energy of the ion-electron system (eV)
  ---------------------------------------------------
  alpha Z        PSCENC =      2652.81237852
  Ewald energy   TEWEN  =    -41592.92590040
  -Hartree energ DENC   =    -26003.66761357
  -exchange      EXHF   =         0.00000000
  -V(xc)+E(xc)   XCENC  =      3607.06880384
  PAW double counting   =     55594.23204139   -59034.67079123
  entropy T*S    EENTRO =        -0.00000000
  eigenvalues    EBANDS =    -10296.23968738
  atomic energy  EATOM  =     73862.19814772
  Solvation  Ediel_sol  =         0.00000000
  ---------------------------------------------------
  free energy    TOTEN  =     -1211.19262111 eV

  energy without entropy =    -1211.19262111  energy(sigma->0) =    -1211.19262111


--------------------------------------------------------------------------------------------------------




--------------------------------------- Iteration      1(  10)  ---------------------------------------


    EDDIAG:  cpu time    4.4163: real time    4.7972
  RMM-DIIS:  cpu time   17.8416: real time   17.8773
    ORTHCH:  cpu time    1.1625: real time    1.2432
       DOS:  cpu time    0.0015: real time    0.0015
    --------------------------------------------
      LOOP:  cpu time   23.4219: real time   23.9193

 eigenvalue-minimisations  : 19685
 total energy-change (2. order) :-0.1861612E+01  (-0.5223597E+00)
 number of electron     672.0000000 magnetization      48.0000000
 augmentation part      672.0000000 magnetization      48.0000000

 Free energy of the ion-electron system (eV)
  ---------------------------------------------------
  alpha Z        PSCENC =      2652.81237852
  Ewald energy   TEWEN  =    -41592.92590040
  -Hartree energ DENC   =    -26003.66761357
  -exchange      EXHF   =         0.00000000
  -V(xc)+E(xc)   XCENC  =      3607.06880384
  PAW double counting   =     55594.23204139   -59034.67079123
  entropy T*S    EENTRO =        -0.00000000
  eigenvalues    EBANDS =    -10298.10129959
  atomic energy  EATOM  =     73862.19814772
  Solvation  Ediel_sol  =         0.00000000
  ---------------------------------------------------
  free energy    TOTEN  =     -1213.05423331 eV

  energy without entropy =    -1213.05423331  energy(sigma->0) =    -1213.05423331


--------------------------------------------------------------------------------------------------------




--------------------------------------- Iteration      1(  11)  ---------------------------------------


    EDDIAG:  cpu time    4.3850: real time    4.7768
  RMM-DIIS:  cpu time   19.6905: real time   19.8076
    ORTHCH:  cpu time    1.1596: real time    1.2389
       DOS:  cpu time    0.0012: real time    0.0012
    --------------------------------------------
      LOOP:  cpu time   25.2362: real time   25.8244

 eigenvalue-minimisations  : 22546
 total energy-change (2. order) : 0.6928800E-01  (-0.4279380E-01)
 number of electron     672.0000000 magnetization      48.0000000
 augmentation part      672.0000000 magnetization      48.0000000

 Free energy of the ion-electron system (eV)
  ---------------------------------------------------
  alpha Z        PSCENC =      2652.81237852
  Ewald energy   TEWEN  =    -41592.92590040
  -Hartree energ DENC   =    -26003.66761357
  -exchange      EXHF   =         0.00000000
  -V(xc)+E(xc)   XCENC  =      3607.06880384
  PAW double counting   =     55594.23204139   -59034.67079123
  entropy T*S    EENTRO =        -0.00000000
  eigenvalues    EBANDS =    -10298.03201159
  atomic energy  EATOM  =     73862.19814772
  Solvation  Ediel_sol  =         0.00000000
  ---------------------------------------------------
  free energy    TOTEN  =     -1212.98494531 eV

  energy without entropy =    -1212.98494531  energy(sigma->0) =    -1212.98494531


--------------------------------------------------------------------------------------------------------




--------------------------------------- Iteration      1(  12)  ---------------------------------------


    EDDIAG:  cpu time    4.3948: real time    4.7906
  RMM-DIIS:  cpu time   21.6079: real time   21.6841
    ORTHCH:  cpu time    1.1619: real time    1.2372
       DOS:  cpu time    0.0025: real time    0.0025
    CHARGE:  cpu time    1.7875: real time    1.7909
    MIXING:  cpu time    0.0009: real time    0.0012
    --------------------------------------------
      LOOP:  cpu time   28.9556: real time   29.5065

 eigenvalue-minimisations  : 24469
 total energy-change (2. order) :-0.8707038E-03  (-0.4297043E-02)
 number of electron     671.9999902 magnetization      47.9999983
 augmentation part      239.2276349 magnetization      29.0679237

 Broyden mixing:
  rms(total) = 0.12776E+02    rms(broyden)= 0.12768E+02
  rms(prec ) = 0.14581E+02
  weight for this iteration     100.00

 Free energy of the ion-electron system (eV)
  ---------------------------------------------------
  alpha Z        PSCENC =      2652.81237852
  Ewald energy   TEWEN  =    -41592.92590040
  -Hartree energ DENC   =    -26003.66761357
  -exchange      EXHF   =         0.00000000
  -V(xc)+E(xc)   XCENC  =      3607.06880384
  PAW double counting   =     55594.23204139   -59034.67079123
  entropy T*S    EENTRO =        -0.00000000
  eigenvalues    EBANDS =    -10298.03288229
  atomic energy  EATOM  =     73862.19814772
  Solvation  Ediel_sol  =         0.00000000
  ---------------------------------------------------
  free energy    TOTEN  =     -1212.98581602 eV

  energy without entropy =    -1212.98581602  energy(sigma->0) =    -1212.98581602


--------------------------------------------------------------------------------------------------------




--------------------------------------- Iteration      1(  13)  ---------------------------------------


    POTLOK:  cpu time    0.1763: real time    0.1777
    SETDIJ:  cpu time    4.9610: real time    4.9659
    EDDIAG:  cpu time    4.3973: real time    4.7904
  RMM-DIIS:  cpu time   17.4491: real time   17.4940
    ORTHCH:  cpu time    1.1648: real time    1.2423
       DOS:  cpu time    0.0016: real time    0.0016
    CHARGE:  cpu time    1.7751: real time    1.7814
    MIXING:  cpu time    0.0009: real time    0.0010
    --------------------------------------------
      LOOP:  cpu time   29.9263: real time   30.4542

 eigenvalue-minimisations  : 18780
 total energy-change (2. order) : 0.2296254E+03  (-0.1204895E+03)
 number of electron     671.9999965 magnetization      47.9999977
 augmentation part      268.4986281 magnetization      26.7512689

 Broyden mixing:
  rms(total) = 0.13789E+02    rms(broyden)= 0.13786E+02
  rms(prec ) = 0.15459E+02
  weight for this iteration     100.00

 eigenvalues of (default mixing * dielectric matrix)
  average eigenvalue GAMMA=   0.3237
  0.3237

 Free energy of the ion-electron system (eV)
  ---------------------------------------------------
  alpha Z        PSCENC =      2652.81237852
  Ewald energy   TEWEN  =    -41592.92590040
  -Hartree energ DENC   =    -25346.63930304
  -exchange      EXHF   =         0.00000000
  -V(xc)+E(xc)   XCENC  =      3697.77887988
  PAW double counting   =     60065.97455118   -63491.84560091
  entropy T*S    EENTRO =        -0.07193134
  eigenvalues    EBANDS =    -10830.64160574
  atomic energy  EATOM  =     73862.19814772
  Solvation  Ediel_sol  =         0.00000000
  ---------------------------------------------------
  free energy    TOTEN  =      -983.36038412 eV

  energy without entropy =     -983.28845278  energy(sigma->0) =     -983.32441845


--------------------------------------------------------------------------------------------------------




--------------------------------------- Iteration      1(  14)  ---------------------------------------


    POTLOK:  cpu time    0.1826: real time    0.1837
    SETDIJ:  cpu time    4.9495: real time    4.9560
    EDDIAG:  cpu time    4.4002: real time    4.7894
  RMM-DIIS:  cpu time   17.7605: real time   17.8249
    ORTHCH:  cpu time    1.1583: real time    1.2395
       DOS:  cpu time    0.0011: real time    0.0011
    CHARGE:  cpu time    1.7775: real time    1.7792
    MIXING:  cpu time    0.0009: real time    0.0009
    --------------------------------------------
      LOOP:  cpu time   30.2305: real time   30.7746

 eigenvalue-minimisations  : 19449
 total energy-change (2. order) : 0.6758868E+02  (-0.1738407E+02)
 number of electron     671.9999920 magnetization      47.9999964
 augmentation part      246.6893431 magnetization      32.1848832

 Broyden mixing:
  rms(total) = 0.54015E+01    rms(broyden)= 0.53976E+01
  rms(prec ) = 0.58147E+01
  weight for this iteration     100.00

 eigenvalues of (default mixing * dielectric matrix)
  average eigenvalue GAMMA=   0.7395
  1.1191  0.3600

 Free energy of the ion-electron system (eV)
  ---------------------------------------------------
  alpha Z        PSCENC =      2652.81237852
  Ewald energy   TEWEN  =    -41592.92590040
  -Hartree energ DENC   =    -25958.50383240
  -exchange      EXHF   =         0.00000000
  -V(xc)+E(xc)   XCENC  =      3675.91311427
  PAW double counting   =     63520.16779862   -67003.68160452
  entropy T*S    EENTRO =        -0.00000000
  eigenvalues    EBANDS =    -10071.75180339
  atomic energy  EATOM  =     73862.19814772
  Solvation  Ediel_sol  =         0.00000000
  ---------------------------------------------------
  free energy    TOTEN  =      -915.77170156 eV

  energy without entropy =     -915.77170156  energy(sigma->0) =     -915.77170156


--------------------------------------------------------------------------------------------------------




--------------------------------------- Iteration      1(  15)  ---------------------------------------


    POTLOK:  cpu time    0.1717: real time    0.1728
    SETDIJ:  cpu time    4.9631: real time    4.9657
    EDDIAG:  cpu time    4.4279: real time    4.8135
  RMM-DIIS:  cpu time   18.2804: real time   18.3214
    ORTHCH:  cpu time    1.1561: real time    1.2372
       DOS:  cpu time    0.0025: real time    0.0025
    CHARGE:  cpu time    1.7769: real time    1.7775
    MIXING:  cpu time    0.0009: real time    0.0009
    --------------------------------------------
      LOOP:  cpu time   30.7794: real time   31.2916

 eigenvalue-minimisations  : 20296
 total energy-change (2. order) : 0.1420038E+02  (-0.1878514E+01)
 number of electron     671.9999928 magnetization      47.9999957
 augmentation part      249.6097211 magnetization      33.7620280

 Broyden mixing:
  rms(total) = 0.22052E+01    rms(broyden)= 0.22050E+01
  rms(prec ) = 0.22944E+01
  weight for this iteration     100.00

 eigenvalues of (default mixing * dielectric matrix)
  average eigenvalue GAMMA=   0.9558
  1.7346  0.3893  0.7435

 Free energy of the ion-electron system (eV)
  ---------------------------------------------------
  alpha Z        PSCENC =      2652.81237852
  Ewald energy   TEWEN  =    -41592.92590040
  -Hartree energ DENC   =    -25889.15742905
  -exchange      EXHF   =         0.00000000
  -V(xc)+E(xc)   XCENC  =      3708.60495421
  PAW double counting   =     67722.57832248   -71246.93225982
  entropy T*S    EENTRO =        -0.00000000
  eigenvalues    EBANDS =    -10118.74953106
  atomic energy  EATOM  =     73862.19814772
  Solvation  Ediel_sol  =         0.00000000
  ---------------------------------------------------
  free energy    TOTEN  =      -901.57131741 eV

  energy without entropy =     -901.57131741  energy(sigma->0) =     -901.57131741


--------------------------------------------------------------------------------------------------------




--------------------------------------- Iteration      1(  16)  ---------------------------------------


    POTLOK:  cpu time    0.1738: real time    0.1747
    SETDIJ:  cpu time    5.5888: real time    5.5911
    EDDIAG:  cpu time    4.4574: real time    4.8490
  RMM-DIIS:  cpu time   17.5161: real time   17.5633
    ORTHCH:  cpu time    1.1661: real time    1.2472
       DOS:  cpu time    0.0014: real time    0.0014
    CHARGE:  cpu time    1.7795: real time    1.7813
    MIXING:  cpu time    0.0010: real time    0.0010
    --------------------------------------------
      LOOP:  cpu time   30.6842: real time   31.2091

 eigenvalue-minimisations  : 19028
 total energy-change (2. order) :-0.1471509E+01  (-0.6729141E+00)
 number of electron     671.9999935 magnetization      47.9999956
 augmentation part      251.1724255 magnetization      33.8371960

 Broyden mixing:
  rms(total) = 0.14291E+01    rms(broyden)= 0.14286E+01
  rms(prec ) = 0.15112E+01
  weight for this iteration     100.00

 eigenvalues of (default mixing * dielectric matrix)
  average eigenvalue GAMMA=   0.9785
  2.1043  0.8951  0.3970  0.5175

 Free energy of the ion-electron system (eV)
  ---------------------------------------------------
  alpha Z        PSCENC =      2652.81237852
  Ewald energy   TEWEN  =    -41592.92590040
  -Hartree energ DENC   =    -25836.44840781
  -exchange      EXHF   =         0.00000000
  -V(xc)+E(xc)   XCENC  =      3709.87783187
  PAW double counting   =     70767.44234200   -74321.78622682
  entropy T*S    EENTRO =        -0.00000000
  eigenvalues    EBANDS =    -10144.21299144
  atomic energy  EATOM  =     73862.19814772
  Solvation  Ediel_sol  =         0.00000000
  ---------------------------------------------------
  free energy    TOTEN  =      -903.04282636 eV

  energy without entropy =     -903.04282636  energy(sigma->0) =     -903.04282636


--------------------------------------------------------------------------------------------------------




--------------------------------------- Iteration      1(  17)  ---------------------------------------


    POTLOK:  cpu time    0.1741: real time    0.1758
    SETDIJ:  cpu time    5.0304: real time    5.0315
    EDDIAG:  cpu time    4.4157: real time    4.8206
  RMM-DIIS:  cpu time   18.5655: real time   18.6217
    ORTHCH:  cpu time    1.1606: real time    1.2389
       DOS:  cpu time    0.0014: real time    0.0014
    CHARGE:  cpu time    1.7822: real time    1.7843
    MIXING:  cpu time    0.0020: real time    0.0020
    --------------------------------------------
      LOOP:  cpu time   31.1319: real time   31.6762

 eigenvalue-minimisations  : 20628
 total energy-change (2. order) : 0.1365649E+00  (-0.5934173E-01)
 number of electron     671.9999934 magnetization      47.9999956
 augmentation part      251.1321779 magnetization      33.8292086

 Broyden mixing:
  rms(total) = 0.76061E+00    rms(broyden)= 0.76051E+00
  rms(prec ) = 0.85564E+00
  weight for this iteration     100.00

 eigenvalues of (default mixing * dielectric matrix)
  average eigenvalue GAMMA=   1.0056
  2.2502  1.1370  0.3856  0.6869  0.5683

 Free energy of the ion-electron system (eV)
  ---------------------------------------------------
  alpha Z        PSCENC =      2652.81237852
  Ewald energy   TEWEN  =    -41592.92590040
  -Hartree energ DENC   =    -25826.57204931
  -exchange      EXHF   =         0.00000000
  -V(xc)+E(xc)   XCENC  =      3706.74739975
  PAW double counting   =     71610.91013845   -75173.35578537
  entropy T*S    EENTRO =        -0.00000000
  eigenvalues    EBANDS =    -10142.72059083
  atomic energy  EATOM  =     73862.19814772
  Solvation  Ediel_sol  =         0.00000000
  ---------------------------------------------------
  free energy    TOTEN  =      -902.90626147 eV

  energy without entropy =     -902.90626147  energy(sigma->0) =     -902.90626147


--------------------------------------------------------------------------------------------------------




--------------------------------------- Iteration      1(  18)  ---------------------------------------


    POTLOK:  cpu time    0.1723: real time    0.1732
    SETDIJ:  cpu time    5.0168: real time    5.0190
    EDDIAG:  cpu time    4.4115: real time    4.7823
  RMM-DIIS:  cpu time   17.7388: real time   17.7809
    ORTHCH:  cpu time    1.1645: real time    1.2443
       DOS:  cpu time    0.0014: real time    0.0015
    CHARGE:  cpu time    1.7801: real time    1.7812
    MIXING:  cpu time    0.0011: real time    0.0011
    --------------------------------------------
      LOOP:  cpu time   30.2866: real time   30.7835

 eigenvalue-minimisations  : 19095
 total energy-change (2. order) : 0.3958580E+00  (-0.7036101E-01)
 number of electron     671.9999932 magnetization      47.9999956
 augmentation part      250.6260378 magnetization      33.7928357

 Broyden mixing:
  rms(total) = 0.25815E+00    rms(broyden)= 0.25785E+00
  rms(prec ) = 0.27167E+00
  weight for this iteration     100.00

 eigenvalues of (default mixing * dielectric matrix)
  average eigenvalue GAMMA=   1.0229
  2.4611  1.3793  0.8352  0.3874  0.5867  0.4876

[...]
   4      -0.741    -0.465     1.206     0.062     0.036    -0.016
   5      -0.807    -0.949     1.756    -0.291     0.071    -0.070
   6      -0.641    -0.832     1.473     0.164    -0.083    -0.037
   7      -0.672    -0.858     1.529     0.189    -0.085    -0.010
   8      -0.990    -0.572     1.562    -0.010    -0.017     0.002
   9      -0.577    -0.705     1.282     0.166     0.029    -0.006
  10      -0.810    -1.125     1.935     0.144     0.083    -0.059
  11      -0.839    -0.549     1.388     0.008     0.078     0.061
  12      -0.925    -0.776     1.701    -0.272    -0.018    -0.079
  13      -0.830    -1.024     1.854     0.080     0.012    -0.043
  14      -0.783    -0.875     1.658     0.248    -0.047     0.115
  15      -1.082    -0.524     1.606     0.014     0.137    -0.016
  16      -0.843    -1.063     1.906    -0.117     0.006     0.049
  17       1.406     1.482    -2.887     0.170     0.037    -0.053
  18       1.509     1.490    -2.999     0.071    -0.066     0.008
  19       1.402     1.515    -2.917     0.059    -0.034     0.008
  20       1.420     1.593    -3.013     0.085     0.088    -0.037
  21       1.603     1.354    -2.957    -0.037     0.039     0.037
  22       1.433     1.520    -2.953     0.026    -0.044     0.082
  23       1.336     1.650    -2.985    -0.032     0.018     0.057
  24       1.398     1.467    -2.865     0.033     0.032    -0.030
  25       0.653    -0.375    -0.278    -0.103     0.308     0.636
  26      -0.010    -0.918     0.928     0.321     0.949    -0.478
  27       0.043    -1.769     1.726    -0.653    -0.194    -0.709
  28      -0.523     0.216     0.307    -0.034     1.640     0.273
  29      -0.420    -0.562     0.982    -0.225     0.470     0.250
  30      -0.448    -1.290     1.738     0.944     1.130    -0.367
  31      -0.237    -0.884     1.121    -0.335    -0.367    -0.651
  32      -0.086    -1.733     1.819     1.246     0.529    -0.191
  33       0.466    -0.916     0.450    -1.655    -0.008     0.489
  34      -0.259     0.720    -0.461     0.161    -2.355    -0.052
  35      -1.780     1.592     0.188    -0.536     1.682     1.104
  36      -1.972     0.216     1.756    -1.244     1.057    -0.083
  37      -1.071     0.933     0.138    -0.176    -0.287     0.997
  38       0.322     0.893    -1.215    -0.295     1.034     0.604
  39       1.827    -0.534    -1.293    -0.563    -1.330    -0.657
  40      -1.282     1.559    -0.276     0.520    -0.086     0.551
  41      -1.296     1.357    -0.061    -5.752     0.991    -3.721
  42      -3.578     2.669     0.909     4.614     3.040     4.393
  43       4.453    -4.227    -0.226     0.452    -4.309    -0.960
  44      -3.075     3.174    -0.098    -4.055    -3.185     2.666
  45       4.046    -6.301     2.254     1.423     4.886    -0.262
  46      -3.427     2.801     0.626     4.367    -2.495    -4.301
  47      -2.632     2.221     0.410    -6.035     3.377    -3.280
  48       5.444    -7.253     1.809     1.778    -4.292     0.127
  49      -3.436     2.974     0.462     5.548     3.809     2.705
  50      -2.379     2.838    -0.459    -4.726    -0.688     4.393
  51      -2.613     1.892     0.722     4.224    -0.630    -4.348
  52       6.119    -6.752     0.634    -0.125     5.854     1.485
  53      -4.405     1.398     3.008    -4.023     2.200    -4.332
  54      -0.878    -0.360     1.238     6.666     2.408     4.429
  55       6.639    -6.985     0.346    -0.004    -2.767     0.321
  56      -4.161     4.868    -0.707    -5.471    -3.098     3.108
  57       4.376    -4.228    -0.148     0.364     5.207     0.565
  58      -2.556     0.881     1.675     4.716    -3.533    -4.620
  59      -3.366     3.972    -0.605    -4.969     2.255    -4.067
  60       4.468    -4.716     0.247    -1.197    -5.131    -0.617
  61      -2.065     2.358    -0.293     5.286     4.571     3.269
  62      -3.187     1.750     1.437    -3.734    -2.276     5.741
  63      -2.601    -0.675     3.276     4.508    -1.911    -4.710
  64       7.743    -7.436    -0.307     1.443     3.989     0.161
  65      -4.291     3.657     0.634    -4.555     1.911    -5.193
  66      -3.573     2.527     1.046     5.117     1.354     3.127
  67       7.138    -7.036    -0.102     1.171    -4.850     0.941
  68      -4.090     3.053     1.037    -5.593    -1.371     4.513
  69       3.023    -6.548     3.525     1.021     4.694    -0.296
  70      -4.959     3.464     1.496     3.805    -3.155    -3.160
  71      -4.353     4.287     0.066    -5.562     1.883    -3.247
  72       6.489    -6.126    -0.363    -0.950    -4.376    -0.221
  73      -3.236     2.744     0.493     4.141     1.523     4.384
  74      -3.138     4.054    -0.916    -5.393    -1.020     5.647
  75      -3.255     2.684     0.572     3.830    -1.393    -3.961
  76       5.279    -5.147    -0.132     0.623     4.465    -0.153
  77      -3.065     3.319    -0.254    -3.567     2.658    -4.216
  78      -3.111     2.934     0.176     4.284     1.853     3.574
  79       6.834    -5.522    -1.311     1.681    -3.200     1.835
  80      -1.557     2.390    -0.833    -5.587    -2.561     3.669
  81       3.705    -5.352     1.647    -1.134     3.884    -1.598
  82      -2.951     4.553    -1.602     6.122    -2.349    -4.322
  83      -4.007     2.700     1.307    -5.002     1.933    -3.470
  84       4.643    -5.106     0.464    -0.135    -3.915    -1.537
  85      -3.656     1.897     1.760     4.212     1.548     5.378
  86      -3.426     1.099     2.327    -4.548    -2.732     3.576
  87      -3.208     4.468    -1.260     6.137    -2.303    -2.878
  88       4.048    -5.078     1.030    -0.045     4.043    -0.426
 ---------------------------------------------------------------------


 Total hyperfine coupling parameters after diagonalization (MHz)
 (convention: |A_zz| > |A_xx| > |A_yy|)
 ----------------------------------------------------------------------
  ion      A_xx      A_yy      A_zz     asymmetry (A_yy - A_xx)/ A_zz 
 ----------------------------------------------------------------------
   1       0.128    -0.065     2.842      -0.068
   2       0.685     0.308     3.351      -0.113
   3       0.217    -0.213     2.935      -0.146
   4       2.030     1.728     3.689      -0.082
   5       2.544     1.949     4.887      -0.122
   6       2.765     2.390     4.793      -0.078
   7       2.788     2.369     4.877      -0.086
   8       2.305     1.886     4.438      -0.094
   9       2.311     1.956     4.056      -0.088
  10      -0.352     0.076     2.770       0.154
  11       2.434     2.143     4.378      -0.067
  12       0.302    -0.263     2.575      -0.219
  13      -0.352    -0.100     2.555       0.099
  14       2.630     2.122     4.872      -0.104
  15       1.786     1.220     3.922      -0.144
  16       0.401     0.078     3.099      -0.104
  17      14.217    10.058    14.565      -0.286
  18      14.853    10.425    14.996      -0.295
  19      15.393    11.099    15.557      -0.276
  20      15.234    10.831    15.474      -0.284
  21      14.066     9.759    14.326      -0.301
  22      14.016     9.634    14.118      -0.310
  23      14.954    10.635    15.275      -0.283
  24      14.298    10.047    14.393      -0.295
  25      96.963    95.690    97.458      -0.013
  26      94.472    93.373    96.235      -0.011
  27      96.952    94.580    98.566      -0.024
  28      97.143    95.117    98.547      -0.021
  29      96.580    96.007    98.008      -0.006
  30      98.521    96.464   100.818      -0.020
  31      94.732    93.572    96.188      -0.012
  32     104.242   101.315   105.721      -0.028
  33      98.839    96.309   100.028      -0.025
  34      96.868    93.446    98.179      -0.035
  35      99.873    96.160   101.375      -0.037
  36      94.736    91.409    96.272      -0.035
  37      96.426    95.795    98.576      -0.006
  38      95.312    92.574    95.526      -0.029
  39      95.273    93.251    97.787      -0.021
  40      96.228    95.203    98.395      -0.010
  41       4.098    -0.955    12.968      -0.390
  42       4.664     1.167    16.009      -0.218
  43       2.660     0.745    12.330      -0.155
  44       5.944     1.698    14.631      -0.290
  45       7.708     2.652    17.446      -0.290
  46       2.687    -0.420    13.547      -0.229
  47       3.211    -1.696    14.014      -0.350
  48       8.926     2.221    18.197      -0.368
  49       5.647    -0.329    15.400      -0.388
  50       5.148     1.193    14.810      -0.267
  51       5.943     1.559    14.401      -0.304
  52       3.911    -0.627    16.447      -0.276
  53       4.681    -0.152    14.407      -0.335
  54       6.268     0.283    16.926      -0.354
  55       8.116     1.799    16.483      -0.383
  56       6.881     1.769    18.117      -0.282
  57       4.081     3.197    15.372      -0.058
  58       5.665     2.798    17.543      -0.163
  59       4.408     1.422    16.086      -0.186
  60       1.587    -1.237    12.085      -0.234
  61       6.819     2.644    18.161      -0.230
  62       2.479     0.568    14.806      -0.129
  63       6.104     1.083    15.697      -0.320
  64       9.524     3.865    20.945      -0.270
  65       4.175     0.639    16.300      -0.217
  66       7.246     1.524    15.302      -0.374
  67       7.794     2.509    19.542      -0.270
  68       6.083     0.358    16.514      -0.347
  69       5.062    -0.412    14.312      -0.382
  70       7.483     1.410    16.015      -0.379
  71       6.864     1.335    17.066      -0.324
  72       7.274     3.404    18.328      -0.211
  73       3.845     0.702    13.936      -0.226
  74       3.990     0.069    16.699      -0.235
  75       6.381     3.188    15.575      -0.205
  76       4.108     1.443    14.492      -0.184
  77       4.496     2.624    15.425      -0.121
  78       6.965     3.702    16.431      -0.199
  79       5.227    -0.324    14.474      -0.384
  80       4.721     2.193    16.191      -0.156
  81       4.549     0.108    12.798      -0.347
  82       4.156     1.451    17.888      -0.151
  83       7.383     1.829    16.304      -0.341
  84       4.962     0.684    13.366      -0.320
  85       7.368     3.565    18.368      -0.207
  86       7.137     2.270    16.217      -0.300
  87       6.729     2.484    18.318      -0.232
  88       2.981    -0.391    11.586      -0.291
 ---------------------------------------------------------------------



--------------------------------------------------------------------------------------------------------


 stress matrix after NEB project (eV)
    -41.69304     -0.02253      1.19316
     -0.03063    -38.05735     -2.02723
      1.14700     -2.03066    -49.23775
  FORCES: max atom, RMS     2.478108    1.078414
  FORCE total and by dimension   10.116416    2.142316
  Stress total and by dimension   74.980008   49.237749
     LOOP+:  cpu time  794.9546: real time  809.6242
    4ORBIT:  cpu time    0.0000: real time    0.0000
 


 total charge     
 
# of ion       s       p       d       tot
------------------------------------------
    1        0.051   5.995   0.000   6.046
    2        0.055   5.999   0.000   6.054
    3        0.055   5.999   0.000   6.054
    4        0.044   5.985   0.000   6.030
    5        0.051   5.993   0.000   6.044
    6        0.048   5.990   0.000   6.038
    7        0.049   5.991   0.000   6.039
    8        0.050   5.992   0.000   6.042
    9        0.048   5.990   0.000   6.038
   10        0.053   5.998   0.000   6.051
   11        0.048   5.990   0.000   6.039
   12        0.057   6.002   0.000   6.058
   13        0.047   5.990   0.000   6.037
   14        0.050   5.994   0.000   6.044
   15        0.052   5.995   0.000   6.047
   16        0.051   5.994   0.000   6.045
   17        0.143   6.117   0.075   6.335
   18        0.153   6.137   0.091   6.381
   19        0.143   6.118   0.077   6.337
   20        0.148   6.127   0.083   6.358
   21        0.146   6.123   0.080   6.349
   22        0.151   6.132   0.087   6.369
   23        0.150   6.131   0.086   6.367
   24        0.146   6.122   0.080   6.347
   25        0.377   6.457   4.832  11.666
   26        0.384   6.470   4.844  11.698
   27        0.384   6.471   4.850  11.705
   28        0.374   6.452   4.828  11.654
   29        0.371   6.442   4.816  11.628
   30        0.370   6.439   4.820  11.629
   31        0.372   6.445   4.819  11.636
   32        0.367   6.436   4.819  11.622
   33        0.383   6.473   4.854  11.710
   34        0.401   6.514   4.894  11.809
   35        0.376   6.455   4.835  11.666
   36        0.391   6.484   4.862  11.736
   37        0.387   6.478   4.857  11.723
   38        0.395   6.501   4.881  11.777
   39        0.395   6.498   4.879  11.772
   40        0.374   6.454   4.827  11.654
   41        1.597   3.504   0.000   5.101
   42        1.598   3.502   0.000   5.100
   43        1.595   3.497   0.000   5.092
   44        1.597   3.509   0.000   5.106
   45        1.598   3.525   0.000   5.123
   46        1.598   3.493   0.000   5.091
   47        1.598   3.498   0.000   5.096
   48        1.601   3.521   0.000   5.121
   49        1.597   3.500   0.000   5.097
   50        1.600   3.502   0.000   5.102
   51        1.598   3.522   0.000   5.119
   52        1.602   3.486   0.000   5.088
   53        1.596   3.516   0.000   5.112
   54        1.598   3.518   0.000   5.116
   55        1.598   3.503   0.000   5.101
   56        1.602   3.465   0.000   5.067
   57        1.599   3.513   0.000   5.113
   58        1.601   3.526   0.000   5.126
   59        1.600   3.489   0.000   5.089
   60        1.598   3.469   0.000   5.067
   61        1.599   3.495   0.000   5.094
   62        1.600   3.494   0.000   5.095
   63        1.599   3.544   0.000   5.143
   64        1.602   3.498   0.000   5.099
   65        1.603   3.521   0.000   5.123
   66        1.600   3.556   0.000   5.156
   67        1.602   3.534   0.000   5.136
   68        1.599   3.532   0.000   5.131
   69        1.597   3.516   0.000   5.113
   70        1.601   3.535   0.000   5.136
   71        1.600   3.509   0.000   5.109
   72        1.599   3.511   0.000   5.110
   73        1.597   3.511   0.000   5.109
   74        1.602   3.511   0.000   5.113
   75        1.598   3.532   0.000   5.131
   76        1.596   3.509   0.000   5.105
   77        1.599   3.491   0.000   5.090
   78        1.600   3.518   0.000   5.119
   79        1.600   3.502   0.000   5.102
   80        1.601   3.519   0.000   5.120
   81        1.598   3.504   0.000   5.102
   82        1.600   3.476   0.000   5.075
   83        1.599   3.527   0.000   5.127
   84        1.599   3.516   0.000   5.115
   85        1.602   3.536   0.000   5.137
   86        1.597   3.520   0.000   5.117
   87        1.600   3.506   0.000   5.106
   88        1.595   3.510   0.000   5.106
--------------------------------------------------
tot         84.845 416.858  78.176 579.879
 


 magnetization (x)
 
# of ion       s       p       d       tot
------------------------------------------
    1        0.001   0.000   0.000   0.001
    2        0.001   0.001   0.000   0.002
    3        0.001   0.000   0.000   0.001
    4        0.002   0.000   0.000   0.002
    5        0.002   0.000   0.000   0.003
    6        0.002   0.001   0.000   0.003
    7        0.002   0.001   0.000   0.003
    8        0.002   0.000   0.000   0.002
    9        0.002   0.000   0.000   0.002
   10        0.001   0.000   0.000   0.001
   11        0.002   0.000   0.000   0.003
   12        0.001   0.000   0.000   0.001
   13        0.001   0.000   0.000   0.001
   14        0.002   0.000   0.000   0.003
   15        0.002   0.000   0.000   0.002
   16        0.001   0.000   0.000   0.001
   17        0.007   0.003   0.001   0.011
   18        0.007   0.003   0.001   0.011
   19        0.008   0.002   0.001   0.012
   20        0.008   0.002   0.001   0.011
   21        0.007   0.002   0.001   0.011
   22        0.007   0.002   0.001   0.010
   23        0.008   0.002   0.001   0.011
   24        0.007   0.003   0.001   0.011
   25        0.016   0.031   2.753   2.800
   26        0.015   0.031   2.738   2.783
   27        0.015   0.030   2.739   2.785
   28        0.016   0.030   2.758   2.804
   29        0.015   0.030   2.770   2.815
   30        0.016   0.030   2.772   2.818
   31        0.015   0.029   2.759   2.803
   32        0.017   0.031   2.778   2.826
   33        0.016   0.031   2.742   2.789
   34        0.015   0.032   2.700   2.747
   35        0.016   0.031   2.754   2.802
   36        0.014   0.030   2.726   2.771
   37        0.015   0.031   2.738   2.784
   38        0.015   0.031   2.704   2.750
   39        0.015   0.031   2.712   2.758
   40        0.015   0.030   2.747   2.793
   41        0.001   0.023   0.000   0.024
   42        0.002   0.028   0.000   0.030
   43        0.002   0.009   0.000   0.011
   44        0.002   0.033   0.000   0.035
   45        0.002   0.053   0.000   0.055
   46        0.002   0.011   0.000   0.012
   47        0.002   0.020   0.000   0.021
   48        0.002   0.062   0.000   0.064
   49        0.002   0.038   0.000   0.039
   50        0.002   0.025   0.000   0.027
   51        0.002   0.042   0.000   0.044
   52        0.002   0.021   0.000   0.023
   53        0.002   0.033   0.000   0.035
   54        0.002   0.041   0.000   0.043
   55        0.002   0.043   0.000   0.046
   56        0.002   0.035   0.000   0.037
   57        0.002   0.031   0.000   0.033
   58        0.002   0.038   0.000   0.040
   59        0.002   0.017   0.000   0.019
   60        0.001  -0.002   0.000  -0.000
   61        0.002   0.039   0.000   0.042
   62        0.002   0.013   0.000   0.014
   63        0.002   0.050   0.000   0.052
   64        0.003   0.058   0.000   0.061
   65        0.002   0.029   0.000   0.031
   66        0.002   0.055   0.000   0.057
   67        0.002   0.062   0.000   0.064
   68        0.002   0.048   0.000   0.050
   69        0.002   0.034   0.000   0.035
   70        0.002   0.047   0.000   0.049
   71        0.002   0.050   0.000   0.052
   72        0.002   0.050   0.000   0.052
   73        0.002   0.027   0.000   0.028
   74        0.002   0.029   0.000   0.031
   75        0.002   0.044   0.000   0.046
   76        0.002   0.028   0.000   0.030
   77        0.002   0.031   0.000   0.033
   78        0.002   0.049   0.000   0.052
   79        0.002   0.026   0.000   0.028
   80        0.002   0.037   0.000   0.038
   81        0.002   0.024   0.000   0.026
   82        0.002   0.029   0.000   0.032
   83        0.002   0.050   0.000   0.053
   84        0.002   0.027   0.000   0.029
   85        0.002   0.058   0.000   0.061
   86        0.002   0.053   0.000   0.055
   87        0.002   0.048   0.000   0.050
   88        0.001   0.009   0.000   0.010
--------------------------------------------------
tot          0.424   2.218  43.901  46.542
 

 total amount of memory used by VASP MPI-rank0    94432. kBytes
=======================================================================

   base      :      30000. kBytes
   nonlr-proj:      13673. kBytes
   fftplans  :       1275. kBytes
   grid      :      22786. kBytes
   one-center:       2737. kBytes
   wavefun   :      23961. kBytes
 
  
  
 General timing and accounting informations for this job:
 ========================================================
  
                  Total CPU time used (sec):      815.735
                            User time (sec):      807.432
                          System time (sec):        8.303
                         Elapsed time (sec):      832.835
  
                   Maximum memory used (kb):      193744.
                   Average memory used (kb):           0.
  
                          Minor page faults:       272640
                          Major page faults:            0
                 Voluntary context switches:       266967
