 vasp.5.4.4.18Apr17-6-g9f103f2a35 (build Dec 02 2020 12:53:39) complex          
  
 executed on             LinuxIFC date 2021.07.31  14:05:37
 running on   64 total cores
 distrk:  each k-point on   64 cores,    1 groups
 distr:  one band on NCORES_PER_BAND=   1 cores,   64 groups


--------------------------------------------------------------------------------------------------------


 INCAR:
 POTCAR:    PAW_PBE Na_pv 19Sep2006               
 POTCAR:    PAW_PBE Mg_pv 13Apr2007               
 POTCAR:    PAW_PBE Mn_pv 02Aug2007               
 POTCAR:    PAW_PBE O 08Apr2002                   

 ----------------------------------------------------------------------------- 
|                                                                             |
|           W    W    AA    RRRRR   N    N  II  N    N   GGGG   !!!           |
|           W    W   A  A   R    R  NN   N  II  NN   N  G    G  !!!           |
|           W    W  A    A  R    R  N N  N  II  N N  N  G       !!!           |
|           W WW W  AAAAAA  RRRRR   N  N N  II  N  N N  G  GGG   !            |
|           WW  WW  A    A  R   R   N   NN  II  N   NN  G    G                |
|           W    W  A    A  R    R  N    N  II  N    N   GGGG   !!!           |
|                                                                             |
|      For optimal performance we recommend to set                            |
|        NCORE= 4 - approx SQRT( number of cores)                             |
|      NCORE specifies how many cores store one orbital (NPAR=cpu/NCORE).     |
|      This setting can  greatly improve the performance of VASP for DFT.     |
|      The default,   NCORE=1            might be grossly inefficient         |
|      on modern multi-core architectures or massively parallel machines.     |
|      Do your own testing !!!!                                               |
|      Unfortunately you need to use the default for GW and RPA calculations. |
|      (for HF NCORE is supported but not extensively tested yet)             |
|                                                                             |
 ----------------------------------------------------------------------------- 

 POTCAR:    PAW_PBE Na_pv 19Sep2006               
   VRHFIN =Na: p6s1                                                             
   LEXCH  = PE                                                                  
   EATOM  =   766.0439 eV,   56.3026 Ry                                         
                                                                                
   TITEL  = PAW_PBE Na_pv 19Sep2006                                             
   LULTRA =        F    use ultrasoft PP ?                                      
   IUNSCR =        1    unscreen: 0-lin 1-nonlin 2-no                           
   RPACOR =    1.800    partial core radius                                     
   POMASS =   22.990; ZVAL   =    7.000    mass and valenz                      
   RCORE  =    2.200    outmost cutoff radius                                   
   RWIGS  =    2.200; RWIGS  =    1.164    wigner-seitz radius (au A)           
   ENMAX  =  259.561; ENMIN  =  194.671 eV                                      
   ICORE  =        2    local potential                                         
   LCOR   =        T    correct aug charges                                     
   LPAW   =        T    paw PP                                                  
   EAUG   =  368.056                                                            
   DEXC   =    0.000                                                            
   RMAX   =    2.245    core radius for proj-oper                               
   RAUG   =    1.300    factor for augmentation sphere                          
   RDEP   =    2.259    radius for radial grids                                 
   RDEPT  =    1.738    core radius for aug-charge                              
                                                                                
   Atomic configuration                                                         
    5 entries                                                                   
     n  l   j            E        occ.                                          
     1  0  0.50     -1033.6933   2.0000                                         
     2  0  0.50       -56.7526   2.0000                                         
     2  1  1.50       -28.6721   6.0000                                         
     3  0  0.50        -2.7440   1.0000                                         
     3  2  1.50        -1.3606   0.0000                                         
   Description                                                                  
     l       E           TYP  RCUT    TYP  RCUT                                 
     1    -28.6720912     23  2.000                                             
     1      6.8029130     23  2.000                                             
     0     -2.7439560     23  2.200                                             
     0     34.0145650     23  2.200                                             
     2     -1.3605826     23  2.200                                             
  local pseudopotential read in
  partial core-charges read in
  partial kinetic energy density read in
  atomic valenz-charges read in
  non local Contribution for L=           1  read in
    real space projection operators read in
  non local Contribution for L=           1  read in
    real space projection operators read in
  non local Contribution for L=           0  read in
    real space projection operators read in
  non local Contribution for L=           0  read in
    real space projection operators read in
    PAW grid and wavefunctions read in
 
   number of l-projection  operators is LMAX  =           4
   number of lm-projection operators is LMMAX =           8
 
 POTCAR:    PAW_PBE Mg_pv 13Apr2007               
   VRHFIN =Mg: p6s2                                                             
   LEXCH  = PE                                                                  
   EATOM  =  1056.7344 eV,   77.6678 Ry                                         
                                                                                
   TITEL  = PAW_PBE Mg_pv 13Apr2007                                             
   LULTRA =        F    use ultrasoft PP ?                                      
   IUNSCR =        1    unscreen: 0-lin 1-nonlin 2-no                           
   RPACOR =    1.500    partial core radius                                     
   POMASS =   24.305; ZVAL   =    8.000    mass and valenz                      
   RCORE  =    2.000    outmost cutoff radius                                   
   RWIGS  =    2.000; RWIGS  =    1.058    wigner-seitz radius (au A)           
   ENMAX  =  403.929; ENMIN  =  302.947 eV                                      
   RCLOC  =    1.506    cutoff for local pot                                    
   LCOR   =        T    correct aug charges                                     
   LPAW   =        T    paw PP                                                  
   EAUG   =  758.780                                                            
   DEXC   =    0.000                                                            
   RMAX   =    2.045    core radius for proj-oper                               
   RAUG   =    1.300    factor for augmentation sphere                          
   RDEP   =    2.025    radius for radial grids                                 
   RDEPT  =    1.557    core radius for aug-charge                              
                                                                                
   Atomic configuration                                                         
    5 entries                                                                   
     n  l   j            E        occ.                                          
     1  0  0.50     -1259.6230   2.0000                                         
     2  0  0.50       -79.8442   2.0000                                         
     2  1  1.50       -46.6121   6.0000                                         
     3  0  0.50        -4.7055   2.0000                                         
     3  2  1.50        -1.3606   0.0000                                         
   Description                                                                  
     l       E           TYP  RCUT    TYP  RCUT                                 
     1    -46.6121073     23  1.600                                             
     1      2.7211652     23  1.600                                             
     0     -4.7054661     23  2.000                                             
     0     61.2262170     23  2.000                                             
     2     -1.3605826     23  2.000                                             
  local pseudopotential read in
  partial core-charges read in
  partial kinetic energy density read in
  atomic valenz-charges read in
  non local Contribution for L=           1  read in
    real space projection operators read in
  non local Contribution for L=           1  read in
    real space projection operators read in
  non local Contribution for L=           0  read in
    real space projection operators read in
  non local Contribution for L=           0  read in
    real space projection operators read in
  non local Contribution for L=           2  read in
    real space projection operators read in
    PAW grid and wavefunctions read in
 
   number of l-projection  operators is LMAX  =           5
   number of lm-projection operators is LMMAX =          13
 
 POTCAR:    PAW_PBE Mn_pv 02Aug2007               
   VRHFIN =Mn: 3p4s3d                                                           
   LEXCH  = PE                                                                  
   EATOM  =  2025.2664 eV,  148.8529 Ry                                         
                                                                                
   TITEL  = PAW_PBE Mn_pv 02Aug2007                                             
   LULTRA =        F    use ultrasoft PP ?                                      
   IUNSCR =        1    unscreen: 0-lin 1-nonlin 2-no                           
   RPACOR =    2.080    partial core radius                                     
   POMASS =   54.938; ZVAL   =   13.000    mass and valenz                      
   RCORE  =    2.300    outmost cutoff radius                                   
   RWIGS  =    2.500; RWIGS  =    1.323    wigner-seitz radius (au A)           
   ENMAX  =  269.864; ENMIN  =  202.398 eV                                      
   ICORE  =        3    local potential                                         
   LCOR   =        T    correct aug charges                                     
   LPAW   =        T    paw PP                                                  
   EAUG   =  569.085                                                            
   DEXC   =    0.000                                                            
   RMAX   =    2.343    core radius for proj-oper                               
   RAUG   =    1.300    factor for augmentation sphere                          
   RDEP   =    2.338    radius for radial grids                                 
   RDEPT  =    1.798    core radius for aug-charge                              
                                                                                
   Atomic configuration                                                         
    8 entries                                                                   
     n  l   j            E        occ.                                          
     1  0  0.50     -6424.8287   2.0000                                         
     2  0  0.50      -739.1154   2.0000                                         
     2  1  1.50      -625.3949   6.0000                                         
     3  0  0.50       -81.6100   2.0000                                         
     3  1  1.50       -50.4667   6.0000                                         
     3  2  2.50        -3.3745   6.0000                                         
     4  0  0.50        -4.1331   1.0000                                         
     4  3  2.50        -1.3606   0.0000                                         
   Description                                                                  
     l       E           TYP  RCUT    TYP  RCUT                                 
     1    -50.4666628     23  2.000                                             
     1     -1.3605826     23  2.000                                             
     2     -3.3744729     23  2.300                                             
     2     -4.7350555     23  2.300                                             
     0     -4.1331431     23  2.300                                             
     0      7.6656591     23  2.300                                             
     3      9.5240782     23  2.300                                             
  local pseudopotential read in
  partial core-charges read in
  partial kinetic energy density read in
  atomic valenz-charges read in
  non local Contribution for L=           1  read in
    real space projection operators read in
  non local Contribution for L=           1  read in
    real space projection operators read in
  non local Contribution for L=           2  read in
    real space projection operators read in
  non local Contribution for L=           2  read in
    real space projection operators read in
  non local Contribution for L=           0  read in
    real space projection operators read in
  non local Contribution for L=           0  read in
    real space projection operators read in
    PAW grid and wavefunctions read in
 
   number of l-projection  operators is LMAX  =           6
   number of lm-projection operators is LMMAX =          18
 
 POTCAR:    PAW_PBE O 08Apr2002                   
   VRHFIN =O: s2p4                                                              
   LEXCH  = PE                                                                  
   EATOM  =   432.3788 eV,   31.7789 Ry                                         
                                                                                
   TITEL  = PAW_PBE O 08Apr2002                                                 
   LULTRA =        F    use ultrasoft PP ?                                      
   IUNSCR =        1    unscreen: 0-lin 1-nonlin 2-no                           
   RPACOR =    1.200    partial core radius                                     
   POMASS =   16.000; ZVAL   =    6.000    mass and valenz                      
   RCORE  =    1.520    outmost cutoff radius                                   
   RWIGS  =    1.550; RWIGS  =    0.820    wigner-seitz radius (au A)           
   ENMAX  =  400.000; ENMIN  =  300.000 eV                                      
   ICORE  =        2    local potential                                         
   LCOR   =        T    correct aug charges                                     
   LPAW   =        T    paw PP                                                  
   EAUG   =  605.392                                                            
   DEXC   =    0.000                                                            
   RMAX   =    1.553    core radius for proj-oper                               
   RAUG   =    1.300    factor for augmentation sphere                          
   RDEP   =    1.550    radius for radial grids                                 
   RDEPT  =    1.329    core radius for aug-charge                              
                                                                                
   Atomic configuration                                                         
    4 entries                                                                   
     n  l   j            E        occ.                                          
     1  0  0.50      -514.6923   2.0000                                         
     2  0  0.50       -23.9615   2.0000                                         
     2  1  0.50        -9.0305   4.0000                                         
     3  2  1.50        -9.5241   0.0000                                         
   Description                                                                  
     l       E           TYP  RCUT    TYP  RCUT                                 
     0    -23.9615318     23  1.200                                             
     0     -9.5240782     23  1.200                                             
     1     -9.0304911     23  1.520                                             
     1      8.1634956     23  1.520                                             
     2     -9.5240782      7  1.500                                             
  local pseudopotential read in
  partial core-charges read in
  partial kinetic energy density read in
  kinetic energy density of atom read in
  atomic valenz-charges read in
  non local Contribution for L=           0  read in
    real space projection operators read in
  non local Contribution for L=           0  read in
    real space projection operators read in
  non local Contribution for L=           1  read in
    real space projection operators read in
  non local Contribution for L=           1  read in
    real space projection operators read in
    PAW grid and wavefunctions read in
 
   number of l-projection  operators is LMAX  =           4
   number of lm-projection operators is LMMAX =           8
 
 Optimization of the real space projectors (new method)

 maximal supplied QI-value         = 17.01
 optimisation between [QCUT,QGAM] = [ 10.20, 20.41] = [ 29.16,116.64] Ry 
 Optimized for a Real-space Cutoff    1.30 Angstroem

   l    n(q)    QCUT    max X(q) W(low)/X(q) W(high)/X(q)  e(spline) 
   1      7    10.205     4.940    0.23E-03    0.84E-03    0.11E-06
   1      7    10.205     6.253    0.40E-03    0.13E-02    0.18E-06
   0      8    10.205    37.438    0.23E-03    0.37E-03    0.42E-07
   0      8    10.205     9.606    0.16E-03    0.26E-03    0.31E-07
 Optimization of the real space projectors (new method)

 maximal supplied QI-value         = 18.90
 optimisation between [QCUT,QGAM] = [ 10.20, 20.41] = [ 29.16,116.64] Ry 
 Optimized for a Real-space Cutoff    1.26 Angstroem

   l    n(q)    QCUT    max X(q) W(low)/X(q) W(high)/X(q)  e(spline) 
   1      7    10.205     2.974    0.63E-04    0.14E-03    0.13E-06
   1      7    10.205     4.279    0.11E-03    0.45E-03    0.24E-06
   0      8    10.205    16.381    0.44E-03    0.15E-03    0.55E-07
   0      8    10.205     5.611    0.31E-03    0.11E-03    0.40E-07
   2      7    10.205     4.652    0.50E-03    0.47E-03    0.57E-07
 Optimization of the real space projectors (new method)

 maximal supplied QI-value         = 16.25
 optimisation between [QCUT,QGAM] = [ 10.24, 20.48] = [ 29.35,117.42] Ry 
 Optimized for a Real-space Cutoff    1.34 Angstroem

   l    n(q)    QCUT    max X(q) W(low)/X(q) W(high)/X(q)  e(spline) 
   1      8    10.239     3.658    0.23E-03    0.30E-03    0.98E-07
   1      8    10.239     5.612    0.32E-03    0.65E-03    0.21E-06
   2      7    10.239    55.373    0.42E-03    0.45E-03    0.65E-07
   2      7    10.239    50.863    0.43E-03    0.48E-03    0.67E-07
   0      8    10.239    79.536    0.11E-03    0.21E-03    0.56E-07
   0      8    10.239    38.668    0.96E-04    0.19E-03    0.52E-07
 Optimization of the real space projectors (new method)

 maximal supplied QI-value         = 24.76
 optimisation between [QCUT,QGAM] = [ 10.15, 20.30] = [ 28.85,115.39] Ry 
 Optimized for a Real-space Cutoff    1.38 Angstroem

   l    n(q)    QCUT    max X(q) W(low)/X(q) W(high)/X(q)  e(spline) 
   0      8    10.150    20.381    0.22E-03    0.32E-03    0.29E-06
   0      8    10.150    15.268    0.23E-03    0.35E-03    0.30E-06
   1      8    10.150     5.964    0.46E-03    0.53E-03    0.21E-06
   1      8    10.150     5.382    0.38E-03    0.45E-03    0.19E-06
  PAW_PBE Na_pv 19Sep2006               :
 energy of atom  1       EATOM= -766.0439
 kinetic energy error for atom=    0.0103 (will be added to EATOM!!)
  PAW_PBE Mg_pv 13Apr2007               :
 energy of atom  2       EATOM=-1056.7344
 kinetic energy error for atom=    0.0820 (will be added to EATOM!!)
  PAW_PBE Mn_pv 02Aug2007               :
 energy of atom  3       EATOM=-2025.2664
 kinetic energy error for atom=    0.0284 (will be added to EATOM!!)
  PAW_PBE O 08Apr2002                   :
 energy of atom  4       EATOM= -432.3788
 kinetic energy error for atom=    0.1156 (will be added to EATOM!!)
 
 
 POSCAR: Na Mg Mn  O                             
  positions in cartesian coordinates
  No initial velocities read in

 METAGGA = SCAN     LMAXTAU =  6    LMIXTAU =  F

 exchange correlation table for  LEXCH =        8
   RHO(1)=    0.500       N(1)  =     2000
   RHO(2)=  100.500       N(2)  =     4000

 VTST: version 3.2, (02/03/18)

 CHAIN: initializing optimizer
 
 OPT: Using VASP Dynamics algorithm
 CHAIN: Read ICHAIN            0
 
 POSCAR: Na Mg Mn  O                             
  positions in cartesian coordinates
  No initial velocities read in
 


--------------------------------------------------------------------------------------------------------


 ion  position               nearest neighbor table
   1  0.603  0.865  0.231-  79 2.12  54 2.33
   2  0.482  0.886  0.748-  56 2.19  84 2.28  59 2.28  31 2.87  29 2.90
   3  0.640  0.629  0.753-  72 2.34  85 2.35  69 2.37
   4  0.257  0.408  0.751-  83 2.26  80 2.30
   5  0.788  0.638  0.244-  65 2.24  67 2.26  76 2.36  34 2.88  36 2.92
   6  0.410  0.394  0.238-  78 2.19  43 2.20  87 2.34  33 2.73
   7  0.984  0.902  0.742-  44 2.11  47 2.35  69 2.35  72 2.37  27 2.86  25 2.97
   8  0.789  0.421  0.759-  71 2.32  60 2.33  73 2.34  68 2.36
   9  0.121  0.919  0.247-  51 2.33  67 2.34
  10  0.889  0.383  0.269-  75 2.12  64 2.24  66 2.30  39 2.86
  11  0.979  0.133  0.252-  55 2.33  50 2.33  64 2.34
  12  0.129  0.634  0.754-  73 2.26  81 2.30  84 2.36  70 2.37
  13  0.452  0.234  0.741-  46 2.23  68 2.37
  14  0.824  0.107  0.755-  61 2.20  58 2.33  60 2.38  30 2.86  32 2.97
  15  0.289  0.614  0.251-  77 2.34  86 2.36  40 2.82  38 2.96
  16  0.470  0.106  0.246-  42 2.24  62 2.37
  17  0.641  0.286  0.006-  43 2.02  66 2.03  71 2.03  49 2.07  60 2.09  53 2.21  34 2.81  37 2.83
                            33 2.84
  18  0.623  0.262  0.501-  75 2.01  68 2.02  52 2.07  57 2.07  62 2.07  46 2.13  32 2.85
  19  0.132  0.271  0.006-  41 2.01  78 2.02  83 2.05  55 2.08  61 2.12  48 2.18  25 2.83
  20  0.124  0.259  0.498-  45 2.00  50 2.02  58 2.03  80 2.06  64 2.10  87 2.18  27 2.84  28 2.86

  21  0.128  0.761  0.008-  77 2.01  73 2.08  67 2.14  84 2.15  47 2.15  42 2.18  34 2.83  37 2.84
                            38 2.84
  22  0.124  0.765  0.498-  81 1.99  76 2.04  51 2.04  44 2.06  70 2.11  86 2.15  31 2.76  28 2.84

  23  0.629  0.777  0.989-  59 1.92  85 2.04  79 2.08  54 2.09  65 2.13  72 2.13  29 2.77  38 2.86

  24  0.620  0.768  0.510-  56 1.96  88 2.04  82 2.07  74 2.07  69 2.08  63 2.20  40 2.83  32 2.85

  25  0.970  0.945  0.003-  41 1.82  67 1.87  61 1.88  47 1.89  54 1.97  72 1.99  19 2.83  30 2.89
                            26 2.90  34 2.92   7 2.97
  26  0.304  0.103  0.006-  42 1.89  48 1.90  47 1.91  49 1.92  43 1.94  41 2.02  29 2.88  25 2.90
                            33 2.93
  27  0.956  0.933  0.491-  44 1.84  76 1.87  58 1.90  63 1.92  50 1.96  69 1.97  20 2.84  28 2.86
                             7 2.86  32 2.90  36 2.92
  28  0.286  0.092  0.493-  46 1.83  51 1.92  44 1.92  45 1.96  50 1.96  52 2.00  31 2.80  22 2.84
                            20 2.86  27 2.86  35 2.93
  29  0.474  0.940  0.001-  59 1.83  49 1.84  53 1.89  79 1.91  84 1.97  42 1.99  23 2.77  30 2.83
                            26 2.88   2 2.90  38 2.90
  30  0.800  0.109  0.009-  53 1.87  55 1.87  54 1.90  60 1.92  59 1.94  61 2.00  37 2.83  29 2.83
                            14 2.86  25 2.89
  31  0.442  0.925  0.500-  88 1.86  62 1.90  46 1.90  81 1.91  51 1.96  56 2.03  22 2.76  28 2.80
                            40 2.84   2 2.87  32 2.98
  32  0.785  0.096  0.492-  64 1.80  63 1.85  56 1.89  62 1.96  58 1.98  57 2.02  18 2.85  24 2.85
                            27 2.90  39 2.90  14 2.97  31 2.98
  33  0.468  0.440  0.999-  48 1.87  85 1.87  78 1.90  65 1.92  43 1.94  71 1.96   6 2.73  17 2.84
                            34 2.90  38 2.92  26 2.93
  34  0.802  0.609  0.989-  72 1.85  65 1.87  71 1.96  73 1.97  67 1.99  66 2.01  17 2.81  21 2.83
                             5 2.88  33 2.90  25 2.92  37 2.94
  35  0.460  0.429  0.505-  52 1.89  74 1.89  45 1.92  87 1.96  82 1.99  68 2.06  36 2.87  40 2.91
                            28 2.93
  36  0.791  0.597  0.502-  75 1.85  74 1.86  69 1.88  76 1.92  70 1.97  68 2.06  35 2.87  39 2.90
                            27 2.92   5 2.92
  37  0.966  0.434  0.996-  73 1.85  77 1.88  83 1.90  55 1.92  60 1.96  66 1.99  17 2.83  30 2.83
                            21 2.84  38 2.89  34 2.94
  38  0.299  0.607  0.988-  84 1.89  79 1.90  78 1.95  85 1.96  83 1.96  77 2.00  21 2.84  23 2.86
                            37 2.89  29 2.90  33 2.92  15 2.96
  39  0.956  0.429  0.518-  80 1.86  57 1.87  70 1.89  86 1.95  75 1.97  64 2.03  10 2.86  36 2.90
                            32 2.90  40 2.93
  40  0.294  0.599  0.502-  87 1.88  88 1.94  82 1.95  86 1.95  80 1.98  81 2.03  15 2.82  24 2.83
                            31 2.84  35 2.91  39 2.93
  41  0.123  0.092  0.094-  25 1.82  19 2.01  26 2.02
  42  0.316  0.953  0.101-  26 1.89  29 1.99  21 2.18  16 2.24
  43  0.461  0.276  0.095-  33 1.94  26 1.94  17 2.02   6 2.20
  44  0.112  0.940  0.583-  27 1.84  28 1.92  22 2.06   7 2.11
  45  0.296  0.260  0.589-  35 1.92  28 1.96  20 2.00
  46  0.428  0.080  0.588-  28 1.83  31 1.90  18 2.13  13 2.23
  47  0.133  0.951  0.915-  25 1.89  26 1.91  21 2.15   7 2.35
  48  0.322  0.269  0.913-  33 1.87  26 1.90  19 2.18
  49  0.466  0.096  0.920-  29 1.84  26 1.92  17 2.07
  50  0.124  0.093  0.396-  27 1.96  28 1.96  20 2.02  11 2.33
  51  0.291  0.937  0.396-  28 1.92  31 1.96  22 2.04   9 2.33
  52  0.451  0.272  0.406-  35 1.89  28 2.00  18 2.07
  53  0.634  0.088  0.098-  30 1.87  29 1.89  17 2.21
  54  0.803  0.946  0.094-  30 1.90  25 1.97  23 2.09   1 2.33
  55  0.953  0.273  0.097-  30 1.87  37 1.92  19 2.08  11 2.33
  56  0.628  0.946  0.589-  32 1.89  24 1.96  31 2.03   2 2.19
  57  0.798  0.263  0.600-  39 1.87  32 2.02  18 2.07
  58  0.945  0.084  0.586-  27 1.90  32 1.98  20 2.03  14 2.33
  59  0.633  0.951  0.914-  29 1.83  23 1.92  30 1.94   2 2.28
  60  0.804  0.264  0.905-  30 1.92  37 1.96  17 2.09   8 2.33  14 2.38
  61  0.954  0.090  0.906-  25 1.88  30 2.00  19 2.12  14 2.20
  62  0.607  0.077  0.406-  31 1.90  32 1.96  18 2.07  16 2.37
  63  0.804  0.952  0.401-  32 1.85  27 1.92  24 2.20
  64  0.936  0.256  0.412-  32 1.80  39 2.03  20 2.10  10 2.24  11 2.34
  65  0.643  0.599  0.082-  34 1.87  33 1.92  23 2.13   5 2.24
  66  0.817  0.458  0.099-  37 1.99  34 2.01  17 2.03  10 2.30
  67  0.948  0.779  0.095-  25 1.87  34 1.99  21 2.14   5 2.26   9 2.34
  68  0.628  0.426  0.608-  18 2.02  36 2.06  35 2.06   8 2.36  13 2.37
  69  0.805  0.763  0.591-  36 1.88  27 1.97  24 2.08   7 2.35   3 2.37
  70  0.949  0.589  0.601-  39 1.89  36 1.97  22 2.11  12 2.37
  71  0.632  0.445  0.900-  34 1.96  33 1.96  17 2.03   8 2.32
  72  0.816  0.772  0.903-  34 1.85  25 1.99  23 2.13   3 2.34   7 2.37
  73  0.960  0.585  0.904-  37 1.85  34 1.97  21 2.08  12 2.26   8 2.34
  74  0.626  0.590  0.420-  36 1.86  35 1.89  24 2.07
  75  0.801  0.442  0.419-  36 1.85  39 1.97  18 2.01  10 2.12
  76  0.946  0.764  0.410-  27 1.87  36 1.92  22 2.04   5 2.36
  77  0.126  0.583  0.091-  37 1.88  38 2.00  21 2.01  15 2.34
  78  0.312  0.453  0.085-  33 1.90  38 1.95  19 2.02   6 2.19
  79  0.447  0.764  0.087-  38 1.90  29 1.91  23 2.08   1 2.12
  80  0.123  0.433  0.595-  39 1.86  40 1.98  20 2.06   4 2.30
  81  0.290  0.768  0.598-  31 1.91  22 1.99  40 2.03  12 2.30
  82  0.446  0.587  0.603-  40 1.95  35 1.99  24 2.07
  83  0.126  0.437  0.904-  37 1.90  38 1.96  19 2.05   4 2.26
  84  0.313  0.775  0.902-  38 1.89  29 1.97  21 2.15   2 2.28  12 2.36
  85  0.460  0.588  0.903-  33 1.87  38 1.96  23 2.04   3 2.35
  86  0.117  0.571  0.410-  39 1.95  40 1.95  22 2.15  15 2.36
  87  0.312  0.455  0.406-  40 1.88  35 1.96  20 2.18   6 2.34
  88  0.451  0.772  0.412-  31 1.86  40 1.94  24 2.04
 
  LATTYP: Found a hexagonal cell.
 ALAT       =    10.0190000534
 C/A-ratio  =     1.1196726572
  
  Lattice vectors:
  
 A1 = (  10.0190000534,   0.0000000000,   0.0000000000)
 A2 = (  -5.0095000267,   8.6767085668,   0.0000000000)
 A3 = (   0.0000000000,   0.0000000000,  11.2180004120)


Analysis of symmetry for initial positions (statically):
=====================================================================
 Subroutine PRICEL returns:
 Original cell was already a primitive cell.
 

 Routine SETGRP: Setting up the symmetry group for a 
 hexagonal supercell.


 Subroutine GETGRP returns: Found  1 space group operations
 (whereof  1 operations were pure point group operations)
 out of a pool of 24 trial point group operations.


The static configuration has the point symmetry C_1 .


Analysis of symmetry for dynamics (positions and initial velocities):
=====================================================================
 Subroutine PRICEL returns:
 Original cell was already a primitive cell.
 

 Routine SETGRP: Setting up the symmetry group for a 
 hexagonal supercell.


 Subroutine GETGRP returns: Found  1 space group operations
 (whereof  1 operations were pure point group operations)
 out of a pool of 24 trial point group operations.


The dynamic configuration has the point symmetry C_1 .


Analysis of structural, dynamic, and magnetic symmetry:
=====================================================================
 Subroutine PRICEL returns:
 Original cell was already a primitive cell.
 

 Routine SETGRP: Setting up the symmetry group for a 
 hexagonal supercell.


 Subroutine GETGRP returns: Found  1 space group operations
 (whereof  1 operations were pure point group operations)
 out of a pool of 24 trial point group operations.


The magnetic configuration has the point symmetry C_1 .


 Subroutine INISYM returns: Found  1 space group operations
 (whereof  1 operations are pure point group operations),
 and found     1 'primitive' translations

 
 

Automatic generation of k-mesh.
 generate k-points for:    2    2    2
Space group operators:
 irot       det(A)        alpha          n_x          n_y          n_z        tau_x        tau_y        tau_z
    1     1.000000     0.000000     1.000000     0.000000     0.000000     0.000000     0.000000     0.000000
 
 Subroutine IBZKPT returns following result:
 ===========================================
 
 Found      8 irreducible k-points:
 
 Following reciprocal coordinates:
            Coordinates               Weight
  0.000000  0.000000  0.000000      1.000000
  0.500000 -0.000000 -0.000000      1.000000
  0.000000  0.500000  0.000000      1.000000
  0.500000  0.500000 -0.000000      1.000000
  0.000000  0.000000  0.500000      1.000000
  0.500000 -0.000000  0.500000      1.000000
  0.000000  0.500000  0.500000      1.000000
  0.500000  0.500000  0.500000      1.000000
 
 Following cartesian coordinates:
            Coordinates               Weight
  0.000000  0.000000  0.000000      1.000000
  0.049905  0.028813 -0.000000      1.000000
  0.000000  0.057626  0.000000      1.000000
  0.049905  0.086438 -0.000000      1.000000
  0.000000  0.000000  0.044571      1.000000
  0.049905  0.028813  0.044571      1.000000
  0.000000  0.057626  0.044571      1.000000
  0.049905  0.086438  0.044571      1.000000
 


--------------------------------------------------------------------------------------------------------




 Dimension of arrays:
   k-points           NKPTS =      8   k-points in BZ     NKDIM =      8   number of bands    NBANDS=    448
   number of dos      NEDOS =    301   number of ions     NIONS =     88
   non local maximal  LDIM  =      6   non local SUM 2l+1 LMDIM =     18
   total plane-waves  NPLWV = 140000
   max r-space proj   IRMAX =   1632   max aug-charges    IRDMAX=   4555
   dimension x,y,z NGX =    50 NGY =   50 NGZ =   56
   dimension x,y,z NGXF=   100 NGYF=  100 NGZF=  112
   support grid    NGXF=   100 NGYF=  100 NGZF=  112
   ions per type =              16   8  16  48
   NGX,Y,Z   is equivalent  to a cutoff of   8.30,  8.30,  8.30 a.u.
   NGXF,Y,Z  is equivalent  to a cutoff of  16.59, 16.59, 16.60 a.u.

 SYSTEM =  unknown system                          
 POSCAR =  Na Mg Mn  O                             

 Startparameter for this run:
   NWRITE =      2    write-flag & timer
   PREC   = normal    normal or accurate (medium, high low for compatibility)
   ISTART =      0    job   : 0-new  1-cont  2-samecut
   ICHARG =      1    charge: 1-file 2-atom 10-const
   ISPIN  =      2    spin polarized calculation?
   LNONCOLLINEAR =      F non collinear calculations
   LSORBIT =      F    spin-orbit coupling
   INIWAV =      1    electr: 0-lowe 1-rand  2-diag
   LASPH  =      T    aspherical Exc in radial PAW
   METAGGA=      F    non-selfconsistent MetaGGA calc.

 Electronic Relaxation 1
   ENCUT  =  400.0 eV  29.40 Ry    5.42 a.u.  16.34 16.34 18.29*2*pi/ulx,y,z
   ENINI  =  400.0     initial cutoff
   ENAUG  =  758.8 eV  augmentation charge cutoff
   NELM   =    200;   NELMIN=  6; NELMDL=-12     # of ELM steps 
   EDIFF  = 0.1E-04   stopping-criterion for ELM
   LREAL  =      T    real-space projection
   NLSPLINE    = F    spline interpolate recip. space projectors
   LCOMPAT=      F    compatible to vasp.4.4
   GGA_COMPAT  = T    GGA compatible to vasp.4.4-vasp.4.6
   LMAXPAW     = -100 max onsite density
   LMAXMIX     =    4 max onsite mixed and CHGCAR
   VOSKOWN=      0    Vosko Wilk Nusair interpolation
   ROPT   =   -0.00050  -0.00050  -0.00050  -0.00050
 Ionic relaxation
   EDIFFG = 0.1E-03   stopping-criterion for IOM
   NSW    =      1    number of steps for IOM
   NBLOCK =      1;   KBLOCK =      1    inner block; outer block 
   IBRION =     -1    ionic relax: 0-MD 1-quasi-New 2-CG
   NFREE  =      0    steps in history (QN), initial steepest desc. (CG)
   ISIF   =      2    stress and relaxation
   IWAVPR =     10    prediction:  0-non 1-charg 2-wave 3-comb
   ISYM   =      2    0-nonsym 1-usesym 2-fastsym
   LCORR  =      T    Harris-Foulkes like correction to forces

   POTIM  = 0.5000    time-step for ionic-motion
   TEIN   =    0.0    initial temperature
   TEBEG  =    0.0;   TEEND  =   0.0 temperature during run
   SMASS  =  -3.00    Nose mass-parameter (am)
   estimated Nose-frequenzy (Omega)   =  0.10E-29 period in steps =****** mass=  -0.229E-26a.u.
   SCALEE = 1.0000    scale energy and forces
   NPACO  =    256;   APACO  = 16.0  distance and # of slots for P.C.
   PSTRESS=    0.0 pullay stress

  Mass of Ions in am
   POMASS =  22.99 24.30 54.94 16.00
  Ionic Valenz
   ZVAL   =   7.00  8.00 13.00  6.00
  Atomic Wigner-Seitz radii
   RWIGS  =  -1.00 -1.00 -1.00 -1.00
  virtual crystal weights 
   VCA    =   1.00  1.00  1.00  1.00
   NELECT =     672.0000    total number of electrons
   NUPDOWN=      48.0000    fix difference up-down

 DOS related values:
   EMIN   =  10.00;   EMAX   =-10.00  energy-range for DOS
   EFERMI =   0.00
   ISMEAR =     0;   SIGMA  =   0.05  broadening in eV -4-tet -1-fermi 0-gaus

 Electronic relaxation 2 (details)
   IALGO  =     48    algorithm
   LDIAG  =      T    sub-space diagonalisation (order eigenvalues)
   LSUBROT=      F    optimize rotation matrix (better conditioning)
   TURBO    =      0    0=normal 1=particle mesh
   IRESTART =      0    0=no restart 2=restart with 2 vectors
   NREBOOT  =      0    no. of reboots
   NMIN     =      0    reboot dimension
   EREF     =   0.00    reference energy to select bands
   IMIX   =      4    mixing-type and parameters
     AMIX     =   0.40;   BMIX     =  1.00
     AMIX_MAG =   1.60;   BMIX_MAG =  1.00
     AMIN     =   0.10
     WC   =   100.;   INIMIX=   1;  MIXPRE=   1;  MAXMIX= -45

 Intra band minimization:
   WEIMIN = 0.0000     energy-eigenvalue tresh-hold
   EBREAK =  0.56E-08  absolut break condition
   DEPER  =   0.30     relativ break condition  

   TIME   =   0.40     timestep for ELM

  volume/ion in A,a.u.               =      11.08        74.78
  Fermi-wavevector in a.u.,A,eV,Ry     =   1.445993  2.732531 28.448379  2.090897
  Thomas-Fermi vector in A             =   2.564112
 
 Write flags
   LWAVE        =      F    write WAVECAR
   LDOWNSAMPLE  =      F    k-point downsampling of WAVECAR
   LCHARG       =      F    write CHGCAR
   LVTOT        =      F    write LOCPOT, total local potential
   LVHAR        =      F    write LOCPOT, Hartree potential only
   LELF         =      F    write electronic localiz. function (ELF)
   LORBIT       =     11    0 simple, 1 ext, 2 COOP (PROOUT), +10 PAW based schemes


 Dipole corrections
   LMONO  =      F    monopole corrections only (constant potential shift)
   LDIPOL =      F    correct potential (dipole corrections)
   IDIPOL =      0    1-x, 2-y, 3-z, 4-all directions 
   EPSILON=  1.0000000 bulk dielectric constant

 Exchange correlation treatment:
   GGA     =    --    GGA type
   LEXCH   =     8    internal setting for exchange type
   VOSKOWN=      0    Vosko Wilk Nusair interpolation
   LHFCALC =     F    Hartree Fock is set to
   LHFONE  =     F    Hartree Fock one center treatment
   AEXX    =    0.0000 exact exchange contribution

 Linear response parameters
   LEPSILON=     F    determine dielectric tensor
   LRPA    =     F    only Hartree local field effects (RPA)
   LNABLA  =     F    use nabla operator in PAW spheres
   LVEL    =     F    velocity operator in full k-point grid
   LINTERFAST=   F  fast interpolation
   KINTER  =     0    interpolate to denser k-point grid
   CSHIFT  =0.1000    complex shift for real part using Kramers Kronig
   OMEGAMAX=  -1.0    maximum frequency
   DEG_THRESHOLD= 0.2000000E-02 threshold for treating states as degnerate
   RTIME   =   -0.100 relaxation time in fs
  (WPLASMAI=    0.000 imaginary part of plasma frequency in eV, 0.658/RTIME)
   DFIELD  = 0.0000000 0.0000000 0.0000000 field for delta impulse in time
 
 Orbital magnetization related:
   ORBITALMAG=     F  switch on orbital magnetization
   LCHIMAG   =     F  perturbation theory with respect to B field
   DQ        =  0.001000  dq finite difference perturbation B field
   LLRAUG    =     F  two centre corrections for induced B field



--------------------------------------------------------------------------------------------------------


 Static calculation
 charge density and potential will be updated during run
 spin polarized calculation
 RMM-DIIS sequential band-by-band
 perform sub-space diagonalisation
    before iterative eigenvector-optimisation
 modified Broyden-mixing scheme, WC =      100.0
 initial mixing is a Kerker type mixing with AMIX =  0.4000 and BMIX =      1.0000
 Hartree-type preconditioning will be used
 using additional bands          112
 real space projection scheme for non local part
 use partial core corrections
 calculate Harris-corrections to forces 
   (improved forces if not selfconsistent)
 use gradient corrections 
 use of overlap-Matrix (Vanderbilt PP)
 Gauss-broadening in eV      SIGMA  =   0.05


--------------------------------------------------------------------------------------------------------


  energy-cutoff  :      400.00
  volume of cell :      975.20
      direct lattice vectors                 reciprocal lattice vectors
    10.019000053  0.000000000  0.000000000     0.099810360  0.057625538 -0.000000000
    -5.009500027  8.676708567  0.000000000     0.000000000  0.115251076  0.000000000
     0.000000000  0.000000000 11.218000412     0.000000000  0.000000000  0.089142446

  length of vectors
    10.019000053 10.019000053 11.218000412     0.115251076  0.115251076  0.089142446


 
 k-points in units of 2pi/SCALE and weight: read from INCAR                         
   0.00000000  0.00000000  0.00000000       0.125
   0.04990518  0.02881277 -0.00000000       0.125
   0.00000000  0.05762554  0.00000000       0.125
   0.04990518  0.08643831 -0.00000000       0.125
   0.00000000  0.00000000  0.04457122       0.125
   0.04990518  0.02881277  0.04457122       0.125
   0.00000000  0.05762554  0.04457122       0.125
   0.04990518  0.08643831  0.04457122       0.125
 
 k-points in reciprocal lattice and weights: read from INCAR                         
   0.00000000  0.00000000  0.00000000       0.125
   0.50000000 -0.00000000 -0.00000000       0.125
   0.00000000  0.50000000  0.00000000       0.125
   0.50000000  0.50000000 -0.00000000       0.125
   0.00000000  0.00000000  0.50000000       0.125
   0.50000000 -0.00000000  0.50000000       0.125
   0.00000000  0.50000000  0.50000000       0.125
   0.50000000  0.50000000  0.50000000       0.125
 
 position of ions in fractional coordinates (direct lattice) 
   0.60318513  0.86547796  0.23144945
   0.48191378  0.88607530  0.74836688
   0.64038243  0.62864391  0.75300675
   0.25740268  0.40776275  0.75119359
   0.78766162  0.63769474  0.24407024
   0.40955786  0.39425895  0.23756373
   0.98413087  0.90214739  0.74159473
   0.78879404  0.42064667  0.75896146
   0.12064371  0.91939702  0.24739257
   0.88918643  0.38316175  0.26925387
   0.97878468  0.13289404  0.25193973
   0.12941282  0.63372533  0.75393383
   0.45221509  0.23404991  0.74087892
   0.82354571  0.10677798  0.75497145
   0.28874251  0.61425136  0.25092440
   0.46962075  0.10611644  0.24582367
   0.64100064  0.28578809  0.00598780
   0.62332087  0.26238982  0.50080137
   0.13246542  0.27118463  0.00631722
   0.12417899  0.25947282  0.49832589
   0.12753030  0.76099133  0.00755033
   0.12439573  0.76486492  0.49810125
   0.62868806  0.77655368  0.98851284
   0.62035785  0.76826137  0.50950167
   0.96952345  0.94470616  0.00254927
   0.30411206  0.10253692  0.00553533
   0.95638187  0.93264398  0.49062309
   0.28564234  0.09185361  0.49344623
   0.47384895  0.94007998  0.00111424
   0.80021118  0.10866471  0.00871809
   0.44209355  0.92523910  0.49965857
   0.78525708  0.09602570  0.49180779
   0.46830203  0.43976007  0.99864182
   0.80225758  0.60895672  0.98943038
   0.45963538  0.42906016  0.50452664
   0.79059297  0.59690607  0.50162148
   0.96642059  0.43441819  0.99625415
   0.29946550  0.60677617  0.98771350
   0.95647720  0.42899793  0.51818861
   0.29405422  0.59877544  0.50193081
   0.12314388  0.09207996  0.09379033
   0.31643610  0.95315366  0.10073542
   0.46103968  0.27560566  0.09521126
   0.11214781  0.94041900  0.58302012
   0.29601263  0.25997416  0.58902476
   0.42822795  0.07987142  0.58849080
   0.13343310  0.95125387  0.91477087
   0.32178463  0.26922651  0.91280974
   0.46596201  0.09559305  0.91955782
   0.12350969  0.09336132  0.39610535
   0.29074062  0.93682409  0.39642181
   0.45135260  0.27223111  0.40580316
   0.63350686  0.08760061  0.09812087
   0.80288805  0.94631109  0.09427081
   0.95263391  0.27321074  0.09709752
   0.62785306  0.94594667  0.58907022
   0.79797966  0.26268256  0.59987964
   0.94533493  0.08366318  0.58592617
   0.63347704  0.95141960  0.91409339
   0.80428752  0.26351467  0.90542874
   0.95428939  0.09030152  0.90643605
   0.60650994  0.07699832  0.40610446
   0.80362238  0.95189593  0.40097877
   0.93635528  0.25580668  0.41221250
   0.64274121  0.59944390  0.08211989
   0.81696769  0.45793978  0.09859957
   0.94775401  0.77911917  0.09476912
   0.62770602  0.42630336  0.60832767
   0.80468191  0.76267054  0.59061684
   0.94871221  0.58886270  0.60125778
   0.63167856  0.44489220  0.89951860
   0.81639235  0.77231360  0.90274555
   0.96029392  0.58466410  0.90377961
   0.62553728  0.59009243  0.42016401
   0.80052193  0.44184036  0.41888036
   0.94589347  0.76375620  0.41008200
   0.12620519  0.58289845  0.09067748
   0.31244397  0.45291829  0.08517552
   0.44705115  0.76415958  0.08740845
   0.12277598  0.43340743  0.59479584
   0.28966373  0.76778538  0.59823763
   0.44644372  0.58742782  0.60314760
   0.12579926  0.43663216  0.90356566
   0.31297553  0.77537236  0.90216613
   0.45971503  0.58800177  0.90256727
   0.11670045  0.57098149  0.40970314
   0.31237411  0.45477037  0.40607148
   0.45067089  0.77205543  0.41245497
 
 position of ions in cartesian coordinates  (Angst):
   1.70770005  7.50950000  2.59640000
   0.38949995  7.68821713  8.39518000
   3.26679995  5.45456000  8.44723000
   0.53622997  3.53803857  8.42689000
   4.69704997  5.53309143  2.73798000
   2.12832000  3.42087000  2.66499000
   5.34069989  7.82767000  8.31921000
   5.79569803  3.64982857  8.51403000
  -3.39699005  7.97734000  2.77525000
   6.98931005  3.32458287  3.02049000
   9.14071105  1.15308287  2.82626000
  -1.87806000  5.49865000  8.45763000
   3.35827000  2.03078287  8.31118000
   7.71620019  0.92648143  8.46927000
  -0.18418100  5.32968000  2.81487000
   4.17353997  0.92074143  2.75765000
   4.99053000  2.47970000  0.06717110
   4.93061000  2.27668000  5.61799000
  -0.03132840  2.35299000  0.07086660
  -0.05567980  2.25137000  5.59022000
  -2.53446000  6.60290000  0.08469959
  -2.58527000  6.63651000  5.58770000
   2.40868000  6.73793000 11.08913741
   2.36676000  6.66598000  5.71559000
   4.98115000  8.19694000  0.02859770
   2.53324000  0.88968300  0.06209530
   4.90991000  8.09228000  5.50381000
   2.40171000  0.79698700  5.53548000
   0.03816200  8.15680000  0.01249959
   7.47296000  0.94285200  0.09779959
  -0.20565000  8.02803000  5.60517000
   7.38645000  0.83318700  5.51710000
   2.48894000  3.81567000 11.20276431
   4.98725000  5.28374000 11.09943041
   2.45571000  3.72283000  5.65978000
   4.93075000  5.17918000  5.62719000
   7.50635000  3.76932000 11.17597951
  -0.03930040  5.26482000 11.08017041
   7.43388000  3.72229000  5.81304000
  -0.05343630  5.19540000  5.63066000
   0.77250400  0.79895100  1.05214000
  -1.60445003  8.27023657  1.13005000
   3.23851000  2.39135000  1.06808000
  -3.58742003  8.15974157  6.54032000
   1.66341000  2.25572000  6.60768000
   3.89030000  0.69302100  6.60169000
  -3.42844003  8.25375257 10.26190000
   1.87527000  2.33600000 10.23990000
   4.18960000  0.82943300 10.31560000
   0.76975000  0.81006900  4.44351000
  -1.78009003  8.12854957  4.44706000
   3.15836000  2.36207000  4.55230000
   5.90827000  0.76008500  1.10072000
   3.30358997  8.21086557  1.05753000
   8.17579000  2.37057000  1.08924000
   1.55173997  8.20770357  6.60819000
   6.67905000  2.27922000  6.72945000
   9.05220000  0.72592100  6.57292000
   1.58066997  8.25519057 10.25430000
   6.73808000  2.28644000 10.15710000
   9.10866000  0.78352000 10.16840000
   5.69090000  0.66809200  4.55568000
   3.28296997  8.25932357  4.49818000
   8.09988000  2.21956000  4.62420000
   3.43671000  5.20120000  0.92122100
   5.89115000  3.97341000  1.10609000
   5.59255000  6.76019000  1.06312000
   4.15342000  3.69891000  6.82422000
   4.24151000  6.61747000  6.62554000
   6.55524000  5.10939000  6.74491000
   4.10010000  3.86020000 10.09080000
   4.31053000  6.70114000 10.12700000
   6.69231000  5.07296000 10.13860000
   3.31119000  5.12006000  4.71340000
   5.80703000  3.83372000  4.69900000
   5.65087000  6.62689000  4.60030000
  -1.65558000  5.05764000  1.01722000
   0.86148200  3.92984000  0.95549900
   0.65094800  6.63039000  0.98054800
  -0.94106200  3.76055000  6.67242000
  -0.94408000  6.66185000  6.71103000
   1.53020000  5.09694000  6.76611000
  -0.92692600  3.78853000 10.13620000
  -0.74852600  6.72768000 10.12050000
   1.66029000  5.10192000 10.12500000
  -1.69111000  4.95424000  4.59605000
   0.85150400  3.94591000  4.55531000
   0.64766000  6.69890000  4.62692000
 


--------------------------------------------------------------------------------------------------------


 k-point  1 :   0.0000 0.0000 0.0000  plane waves:   17725
 k-point  2 :   0.5000-0.0000-0.0000  plane waves:   17736
 k-point  3 :   0.0000 0.5000 0.0000  plane waves:   17736
 k-point  4 :   0.5000 0.5000-0.0000  plane waves:   17736
 k-point  5 :   0.0000 0.0000 0.5000  plane waves:   17676
 k-point  6 :   0.5000-0.0000 0.5000  plane waves:   17700
 k-point  7 :   0.0000 0.5000 0.5000  plane waves:   17700
 k-point  8 :   0.5000 0.5000 0.5000  plane waves:   17700

 maximum and minimum number of plane-waves per node :     17736    17676

 maximum number of plane-waves:     17736
 maximum index in each direction: 
   IXMAX=   16   IYMAX=   16   IZMAX=   18
   IXMIN=  -16   IYMIN=  -16   IZMIN=  -18


 serial   3D FFT for wavefunctions
 parallel 3D FFT for charge:
    minimum data exchange during FFTs selected (reduces bandwidth)


 total amount of memory used by VASP MPI-rank0   104117. kBytes
=======================================================================

   base      :      30000. kBytes
   nonlr-proj:      13675. kBytes
   fftplans  :       1316. kBytes
   grid      :      22786. kBytes
   one-center:       2737. kBytes
   wavefun   :      33603. kBytes
 
     INWAV:  cpu time    0.0000: real time    0.0001
 Broyden mixing: mesh for mixing (old mesh)
   NGX = 33   NGY = 33   NGZ = 37
  (NGX  =100   NGY  =100   NGZ  =112)
  gives a total of  40293 points

 initial charge density was supplied:
 charge density of overlapping atoms calculated
 number of electron     672.0000000 magnetization      48.0000000
 keeping initial charge density in first step


--------------------------------------------------------------------------------------------------------


 Maximum index for non-local projection operator         1553
 Maximum index for augmentation-charges          269 (set IRDMAX)


--------------------------------------------------------------------------------------------------------


 First call to EWALD:  gamma=   0.179
 Maximum number of real-space cells 3x 3x 2
 Maximum number of reciprocal cells 3x 3x 3

    FEWALD:  cpu time    0.0024: real time    0.0031


--------------------------------------- Iteration      1(   1)  ---------------------------------------


    POTLOK:  cpu time    0.0668: real time    0.0703
    SETDIJ:  cpu time    2.5546: real time    2.5566
    EDDIAG:  cpu time    3.2356: real time    3.2434
  RMM-DIIS:  cpu time    8.6730: real time    8.7140
    ORTHCH:  cpu time    0.5853: real time    0.5894
       DOS:  cpu time    0.0013: real time    0.0014
    --------------------------------------------
      LOOP:  cpu time   15.1167: real time   15.1752

 eigenvalue-minimisations  :  7168
 total energy-change (2. order) : 0.1810242E+04  (-0.3590409E+05)
 number of electron     672.0000000 magnetization      48.0000000
 augmentation part      672.0000000 magnetization      48.0000000

 Free energy of the ion-electron system (eV)
  ---------------------------------------------------
  alpha Z        PSCENC =      2652.81237852
  Ewald energy   TEWEN  =    -41788.98013664
  -Hartree energ DENC   =    -25820.48076549
  -exchange      EXHF   =         0.00000000
  -V(xc)+E(xc)   XCENC  =      3606.22372959
  PAW double counting   =     55594.23204139   -59034.67079123
  entropy T*S    EENTRO =        -0.04451047
  eigenvalues    EBANDS =     -7261.04775120
  atomic energy  EATOM  =     73862.19814772
  Solvation  Ediel_sol  =         0.00000000
  ---------------------------------------------------
  free energy    TOTEN  =      1810.24234218 eV

  energy without entropy =     1810.28685265  energy(sigma->0) =     1810.26459742


--------------------------------------------------------------------------------------------------------




--------------------------------------- Iteration      1(   2)  ---------------------------------------


    EDDIAG:  cpu time    3.2116: real time    3.2200
  RMM-DIIS:  cpu time    8.7006: real time    8.7122
    ORTHCH:  cpu time    0.5849: real time    0.5890
       DOS:  cpu time    0.0011: real time    0.0011
    --------------------------------------------
      LOOP:  cpu time   12.4981: real time   12.5223

 eigenvalue-minimisations  :  7168
 total energy-change (2. order) :-0.2633691E+04  (-0.8650506E+04)
 number of electron     672.0000000 magnetization      48.0000000
 augmentation part      672.0000000 magnetization      48.0000000

 Free energy of the ion-electron system (eV)
  ---------------------------------------------------
  alpha Z        PSCENC =      2652.81237852
  Ewald energy   TEWEN  =    -41788.98013664
  -Hartree energ DENC   =    -25820.48076549
  -exchange      EXHF   =         0.00000000
  -V(xc)+E(xc)   XCENC  =      3606.22372959
  PAW double counting   =     55594.23204139   -59034.67079123
  entropy T*S    EENTRO =        -0.04843350
  eigenvalues    EBANDS =     -9894.73511729
  atomic energy  EATOM  =     73862.19814772
  Solvation  Ediel_sol  =         0.00000000
  ---------------------------------------------------
  free energy    TOTEN  =      -823.44894695 eV

  energy without entropy =     -823.40051344  energy(sigma->0) =     -823.42473019


--------------------------------------------------------------------------------------------------------




--------------------------------------- Iteration      1(   3)  ---------------------------------------


    EDDIAG:  cpu time    3.2714: real time    3.2779
  RMM-DIIS:  cpu time    8.6908: real time    8.7262
    ORTHCH:  cpu time    0.5875: real time    0.5916
       DOS:  cpu time    0.0010: real time    0.0010
    --------------------------------------------
      LOOP:  cpu time   12.5507: real time   12.5967

 eigenvalue-minimisations  :  7168
 total energy-change (2. order) : 0.2902730E+03  (-0.1558881E+04)
 number of electron     672.0000000 magnetization      48.0000000
 augmentation part      672.0000000 magnetization      48.0000000

 Free energy of the ion-electron system (eV)
  ---------------------------------------------------
  alpha Z        PSCENC =      2652.81237852
  Ewald energy   TEWEN  =    -41788.98013664
  -Hartree energ DENC   =    -25820.48076549
  -exchange      EXHF   =         0.00000000
  -V(xc)+E(xc)   XCENC  =      3606.22372959
  PAW double counting   =     55594.23204139   -59034.67079123
  entropy T*S    EENTRO =        -0.03873814
  eigenvalues    EBANDS =     -9604.47180225
  atomic energy  EATOM  =     73862.19814772
  Solvation  Ediel_sol  =         0.00000000
  ---------------------------------------------------
  free energy    TOTEN  =      -533.17593654 eV

  energy without entropy =     -533.13719840  energy(sigma->0) =     -533.15656747


--------------------------------------------------------------------------------------------------------




--------------------------------------- Iteration      1(   4)  ---------------------------------------


    EDDIAG:  cpu time    3.2405: real time    3.2470
  RMM-DIIS:  cpu time    8.6890: real time    8.7020
    ORTHCH:  cpu time    0.5826: real time    0.5867
       DOS:  cpu time    0.0008: real time    0.0008
    --------------------------------------------
      LOOP:  cpu time   12.5129: real time   12.5365

 eigenvalue-minimisations  :  7168
 total energy-change (2. order) :-0.5234918E+03  (-0.5076468E+03)
 number of electron     672.0000000 magnetization      48.0000000
 augmentation part      672.0000000 magnetization      48.0000000

 Free energy of the ion-electron system (eV)
  ---------------------------------------------------
  alpha Z        PSCENC =      2652.81237852
  Ewald energy   TEWEN  =    -41788.98013664
  -Hartree energ DENC   =    -25820.48076549
  -exchange      EXHF   =         0.00000000
  -V(xc)+E(xc)   XCENC  =      3606.22372959
  PAW double counting   =     55594.23204139   -59034.67079123
  entropy T*S    EENTRO =        -0.00030994
  eigenvalues    EBANDS =    -10128.00206011
  atomic energy  EATOM  =     73862.19814772
  Solvation  Ediel_sol  =         0.00000000
  ---------------------------------------------------
  free energy    TOTEN  =     -1056.66776620 eV

  energy without entropy =    -1056.66745626  energy(sigma->0) =    -1056.66761123


--------------------------------------------------------------------------------------------------------




--------------------------------------- Iteration      1(   5)  ---------------------------------------


    EDDIAG:  cpu time    3.2390: real time    3.2451
  RMM-DIIS:  cpu time    8.6895: real time    8.7054
    ORTHCH:  cpu time    0.5821: real time    0.5861
       DOS:  cpu time    0.0006: real time    0.0006
    --------------------------------------------
      LOOP:  cpu time   12.5112: real time   12.5373

 eigenvalue-minimisations  :  7168
 total energy-change (2. order) :-0.1485744E+03  (-0.2134783E+03)
 number of electron     672.0000000 magnetization      48.0000000
 augmentation part      672.0000000 magnetization      48.0000000

 Free energy of the ion-electron system (eV)
  ---------------------------------------------------
  alpha Z        PSCENC =      2652.81237852
  Ewald energy   TEWEN  =    -41788.98013664
  -Hartree energ DENC   =    -25820.48076549
  -exchange      EXHF   =         0.00000000
  -V(xc)+E(xc)   XCENC  =      3606.22372959
  PAW double counting   =     55594.23204139   -59034.67079123
  entropy T*S    EENTRO =        -0.00000000
  eigenvalues    EBANDS =    -10276.57681406
  atomic energy  EATOM  =     73862.19814772
  Solvation  Ediel_sol  =         0.00000000
  ---------------------------------------------------
  free energy    TOTEN  =     -1205.24221021 eV

  energy without entropy =    -1205.24221021  energy(sigma->0) =    -1205.24221021


--------------------------------------------------------------------------------------------------------




--------------------------------------- Iteration      1(   6)  ---------------------------------------


    EDDIAG:  cpu time    3.2743: real time    3.3340
  RMM-DIIS:  cpu time    8.6895: real time    8.7030
    ORTHCH:  cpu time    0.5847: real time    0.5887
       DOS:  cpu time    0.0007: real time    0.0007
    --------------------------------------------
      LOOP:  cpu time   12.5492: real time   12.6264

 eigenvalue-minimisations  :  7168
 total energy-change (2. order) :-0.2159822E+02  (-0.1156193E+03)
 number of electron     672.0000000 magnetization      48.0000000
 augmentation part      672.0000000 magnetization      48.0000000

 Free energy of the ion-electron system (eV)
  ---------------------------------------------------
  alpha Z        PSCENC =      2652.81237852
  Ewald energy   TEWEN  =    -41788.98013664
  -Hartree energ DENC   =    -25820.48076549
  -exchange      EXHF   =         0.00000000
  -V(xc)+E(xc)   XCENC  =      3606.22372959
  PAW double counting   =     55594.23204139   -59034.67079123
  entropy T*S    EENTRO =        -0.00000000
  eigenvalues    EBANDS =    -10298.17503659
  atomic energy  EATOM  =     73862.19814772
  Solvation  Ediel_sol  =         0.00000000
  ---------------------------------------------------
  free energy    TOTEN  =     -1226.84043274 eV

  energy without entropy =    -1226.84043274  energy(sigma->0) =    -1226.84043274


--------------------------------------------------------------------------------------------------------




--------------------------------------- Iteration      1(   7)  ---------------------------------------


    EDDIAG:  cpu time    3.3038: real time    3.3117
  RMM-DIIS:  cpu time    8.6985: real time    8.7106
    ORTHCH:  cpu time    0.5833: real time    0.5872
       DOS:  cpu time    0.0006: real time    0.0006
    --------------------------------------------
      LOOP:  cpu time   12.5863: real time   12.6100

 eigenvalue-minimisations  :  7168
 total energy-change (2. order) :-0.6669451E+01  (-0.7629336E+02)
 number of electron     672.0000000 magnetization      48.0000000
 augmentation part      672.0000000 magnetization      48.0000000

 Free energy of the ion-electron system (eV)
  ---------------------------------------------------
  alpha Z        PSCENC =      2652.81237852
  Ewald energy   TEWEN  =    -41788.98013664
  -Hartree energ DENC   =    -25820.48076549
  -exchange      EXHF   =         0.00000000
  -V(xc)+E(xc)   XCENC  =      3606.22372959
  PAW double counting   =     55594.23204139   -59034.67079123
  entropy T*S    EENTRO =        -0.00000000
  eigenvalues    EBANDS =    -10304.84448744
  atomic energy  EATOM  =     73862.19814772
  Solvation  Ediel_sol  =         0.00000000
  ---------------------------------------------------
  free energy    TOTEN  =     -1233.50988358 eV

  energy without entropy =    -1233.50988358  energy(sigma->0) =    -1233.50988358


--------------------------------------------------------------------------------------------------------




--------------------------------------- Iteration      1(   8)  ---------------------------------------


    EDDIAG:  cpu time    3.2355: real time    3.2420
  RMM-DIIS:  cpu time    8.6758: real time    8.7477
    ORTHCH:  cpu time    0.5817: real time    0.5857
       DOS:  cpu time    0.0006: real time    0.0006
    --------------------------------------------
      LOOP:  cpu time   12.4936: real time   12.5761

 eigenvalue-minimisations  :  7168
 total energy-change (2. order) : 0.4609663E+01  (-0.5285957E+02)
 number of electron     672.0000000 magnetization      48.0000000
 augmentation part      672.0000000 magnetization      48.0000000

 Free energy of the ion-electron system (eV)
  ---------------------------------------------------
  alpha Z        PSCENC =      2652.81237852
  Ewald energy   TEWEN  =    -41788.98013664
  -Hartree energ DENC   =    -25820.48076549
  -exchange      EXHF   =         0.00000000
  -V(xc)+E(xc)   XCENC  =      3606.22372959
  PAW double counting   =     55594.23204139   -59034.67079123
  entropy T*S    EENTRO =        -0.00000000
  eigenvalues    EBANDS =    -10300.23482443
  atomic energy  EATOM  =     73862.19814772
  Solvation  Ediel_sol  =         0.00000000
  ---------------------------------------------------
  free energy    TOTEN  =     -1228.90022058 eV

  energy without entropy =    -1228.90022058  energy(sigma->0) =    -1228.90022058


--------------------------------------------------------------------------------------------------------




--------------------------------------- Iteration      1(   9)  ---------------------------------------


    EDDIAG:  cpu time    3.2469: real time    3.2541
  RMM-DIIS:  cpu time   18.1627: real time   18.1876
    ORTHCH:  cpu time    0.5813: real time    0.5854
       DOS:  cpu time    0.0006: real time    0.0006
    --------------------------------------------
      LOOP:  cpu time   21.9917: real time   22.0277

 eigenvalue-minimisations  : 20222
 total energy-change (2. order) : 0.1811526E+02  (-0.2369016E+02)
 number of electron     672.0000000 magnetization      48.0000000
 augmentation part      672.0000000 magnetization      48.0000000

 Free energy of the ion-electron system (eV)
  ---------------------------------------------------
  alpha Z        PSCENC =      2652.81237852
  Ewald energy   TEWEN  =    -41788.98013664
  -Hartree energ DENC   =    -25820.48076549
  -exchange      EXHF   =         0.00000000
  -V(xc)+E(xc)   XCENC  =      3606.22372959
  PAW double counting   =     55594.23204139   -59034.67079123
  entropy T*S    EENTRO =        -0.00000000
  eigenvalues    EBANDS =    -10282.11956162
  atomic energy  EATOM  =     73862.19814772
  Solvation  Ediel_sol  =         0.00000000
  ---------------------------------------------------
  free energy    TOTEN  =     -1210.78495776 eV

  energy without entropy =    -1210.78495776  energy(sigma->0) =    -1210.78495776


--------------------------------------------------------------------------------------------------------




--------------------------------------- Iteration      1(  10)  ---------------------------------------


    EDDIAG:  cpu time    3.2511: real time    3.2753
  RMM-DIIS:  cpu time   18.6221: real time   18.6476
    ORTHCH:  cpu time    0.5838: real time    0.5877
       DOS:  cpu time    0.0007: real time    0.0007
    --------------------------------------------
      LOOP:  cpu time   22.4577: real time   22.5113

 eigenvalue-minimisations  : 20183
 total energy-change (2. order) :-0.3117729E+01  (-0.1042597E+01)
 number of electron     672.0000000 magnetization      48.0000000
 augmentation part      672.0000000 magnetization      48.0000000

 Free energy of the ion-electron system (eV)
  ---------------------------------------------------
  alpha Z        PSCENC =      2652.81237852
  Ewald energy   TEWEN  =    -41788.98013664
  -Hartree energ DENC   =    -25820.48076549
  -exchange      EXHF   =         0.00000000
  -V(xc)+E(xc)   XCENC  =      3606.22372959
  PAW double counting   =     55594.23204139   -59034.67079123
  entropy T*S    EENTRO =        -0.00000001
  eigenvalues    EBANDS =    -10285.23729103
  atomic energy  EATOM  =     73862.19814772
  Solvation  Ediel_sol  =         0.00000000
  ---------------------------------------------------
  free energy    TOTEN  =     -1213.90268718 eV

  energy without entropy =    -1213.90268717  energy(sigma->0) =    -1213.90268718


--------------------------------------------------------------------------------------------------------




--------------------------------------- Iteration      1(  11)  ---------------------------------------


    EDDIAG:  cpu time    3.2776: real time    3.2854
  RMM-DIIS:  cpu time   19.2411: real time   19.2904
    ORTHCH:  cpu time    0.5821: real time    0.5864
       DOS:  cpu time    0.0007: real time    0.0007
    --------------------------------------------
      LOOP:  cpu time   23.1014: real time   23.1629

 eigenvalue-minimisations  : 21660
 total energy-change (2. order) : 0.1055255E+00  (-0.9747792E-01)
 number of electron     672.0000000 magnetization      48.0000000
 augmentation part      672.0000000 magnetization      48.0000000

 Free energy of the ion-electron system (eV)
  ---------------------------------------------------
  alpha Z        PSCENC =      2652.81237852
  Ewald energy   TEWEN  =    -41788.98013664
  -Hartree energ DENC   =    -25820.48076549
  -exchange      EXHF   =         0.00000000
  -V(xc)+E(xc)   XCENC  =      3606.22372959
  PAW double counting   =     55594.23204139   -59034.67079123
  entropy T*S    EENTRO =        -0.00000002
  eigenvalues    EBANDS =    -10285.13176551
  atomic energy  EATOM  =     73862.19814772
  Solvation  Ediel_sol  =         0.00000000
  ---------------------------------------------------
  free energy    TOTEN  =     -1213.79716168 eV

  energy without entropy =    -1213.79716166  energy(sigma->0) =    -1213.79716167


--------------------------------------------------------------------------------------------------------




--------------------------------------- Iteration      1(  12)  ---------------------------------------


    EDDIAG:  cpu time    3.2313: real time    3.2381
  RMM-DIIS:  cpu time   20.1748: real time   20.2259
    ORTHCH:  cpu time    0.5815: real time    0.5855
       DOS:  cpu time    0.0007: real time    0.0007
    CHARGE:  cpu time    1.7892: real time    1.7914
    MIXING:  cpu time    0.0011: real time    0.0015
    --------------------------------------------
      LOOP:  cpu time   25.7786: real time   25.8432

 eigenvalue-minimisations  : 22799
 total energy-change (2. order) : 0.6625073E-02  (-0.6962814E-02)
 number of electron     672.0000189 magnetization      47.9999977
 augmentation part      239.1180546 magnetization      29.0385831

 Broyden mixing:
  rms(total) = 0.12640E+02    rms(broyden)= 0.12631E+02
  rms(prec ) = 0.14476E+02
  weight for this iteration     100.00

 Free energy of the ion-electron system (eV)
  ---------------------------------------------------
  alpha Z        PSCENC =      2652.81237852
  Ewald energy   TEWEN  =    -41788.98013664
  -Hartree energ DENC   =    -25820.48076549
  -exchange      EXHF   =         0.00000000
  -V(xc)+E(xc)   XCENC  =      3606.22372959
  PAW double counting   =     55594.23204139   -59034.67079123
  entropy T*S    EENTRO =        -0.00000001
  eigenvalues    EBANDS =    -10285.12514044
  atomic energy  EATOM  =     73862.19814772
  Solvation  Ediel_sol  =         0.00000000
  ---------------------------------------------------
  free energy    TOTEN  =     -1213.79053660 eV

  energy without entropy =    -1213.79053659  energy(sigma->0) =    -1213.79053660


--------------------------------------------------------------------------------------------------------




--------------------------------------- Iteration      1(  13)  ---------------------------------------


    POTLOK:  cpu time    0.0613: real time    0.0624
    SETDIJ:  cpu time    2.7167: real time    2.7186
    EDDIAG:  cpu time    3.2427: real time    3.2499
  RMM-DIIS:  cpu time   16.3790: real time   16.4239
    ORTHCH:  cpu time    0.5847: real time    0.5886
       DOS:  cpu time    0.0009: real time    0.0009
    CHARGE:  cpu time    1.8038: real time    1.8062
    MIXING:  cpu time    0.0009: real time    0.0011
    --------------------------------------------
      LOOP:  cpu time   24.7900: real time   24.8515

 eigenvalue-minimisations  : 17319
 total energy-change (2. order) : 0.2245995E+03  (-0.1379669E+03)
 number of electron     672.0000180 magnetization      47.9999975
 augmentation part      268.8191069 magnetization      26.6533226

 Broyden mixing:
  rms(total) = 0.13900E+02    rms(broyden)= 0.13897E+02
  rms(prec ) = 0.15601E+02
  weight for this iteration     100.00

 eigenvalues of (default mixing * dielectric matrix)
  average eigenvalue GAMMA=   0.3192
  0.3192

 Free energy of the ion-electron system (eV)
  ---------------------------------------------------
  alpha Z        PSCENC =      2652.81237852
  Ewald energy   TEWEN  =    -41788.98013664
  -Hartree energ DENC   =    -25153.72543027
  -exchange      EXHF   =         0.00000000
  -V(xc)+E(xc)   XCENC  =      3696.60202382
  PAW double counting   =     59954.06235156   -63379.45228083
  entropy T*S    EENTRO =        -0.08110949
  eigenvalues    EBANDS =    -10832.62701732
  atomic energy  EATOM  =     73862.19814772
  Solvation  Ediel_sol  =         0.00000000
  ---------------------------------------------------
  free energy    TOTEN  =      -989.19107292 eV

  energy without entropy =     -989.10996343  energy(sigma->0) =     -989.15051818


--------------------------------------------------------------------------------------------------------




--------------------------------------- Iteration      1(  14)  ---------------------------------------


    POTLOK:  cpu time    0.0607: real time    0.0608
    SETDIJ:  cpu time    2.7164: real time    2.7180
    EDDIAG:  cpu time    3.2476: real time    3.2548
  RMM-DIIS:  cpu time   17.1567: real time   17.1796
    ORTHCH:  cpu time    0.5856: real time    0.5897
       DOS:  cpu time    0.0006: real time    0.0006
    CHARGE:  cpu time    1.7981: real time    1.8006
    MIXING:  cpu time    0.0008: real time    0.0008
    --------------------------------------------
      LOOP:  cpu time   25.5665: real time   25.6050

 eigenvalue-minimisations  : 17784
 total energy-change (2. order) : 0.7417815E+02  (-0.1864170E+02)
 number of electron     672.0000179 magnetization      47.9999960
 augmentation part      246.7055540 magnetization      32.1982337

 Broyden mixing:
  rms(total) = 0.52929E+01    rms(broyden)= 0.52888E+01
  rms(prec ) = 0.57026E+01
  weight for this iteration     100.00

 eigenvalues of (default mixing * dielectric matrix)
  average eigenvalue GAMMA=   0.7328
  1.1054  0.3603

 Free energy of the ion-electron system (eV)
  ---------------------------------------------------
  alpha Z        PSCENC =      2652.81237852
  Ewald energy   TEWEN  =    -41788.98013664
  -Hartree energ DENC   =    -25764.23228856
  -exchange      EXHF   =         0.00000000
  -V(xc)+E(xc)   XCENC  =      3674.68341901
  PAW double counting   =     63393.44731945   -66876.01913704
  entropy T*S    EENTRO =        -0.00000000
  eigenvalues    EBANDS =    -10068.92262565
  atomic energy  EATOM  =     73862.19814772
  Solvation  Ediel_sol  =         0.00000000
  ---------------------------------------------------
  free energy    TOTEN  =      -915.01292320 eV

  energy without entropy =     -915.01292320  energy(sigma->0) =     -915.01292320


--------------------------------------------------------------------------------------------------------




--------------------------------------- Iteration      1(  15)  ---------------------------------------


    POTLOK:  cpu time    0.0615: real time    0.0630
    SETDIJ:  cpu time    2.6978: real time    2.7153
    EDDIAG:  cpu time    3.2425: real time    3.2485
  RMM-DIIS:  cpu time   16.9036: real time   16.9262
    ORTHCH:  cpu time    0.5862: real time    0.5901
       DOS:  cpu time    0.0006: real time    0.0006
    CHARGE:  cpu time    1.7965: real time    1.7995
    MIXING:  cpu time    0.0008: real time    0.0008
    --------------------------------------------
      LOOP:  cpu time   25.2894: real time   25.3440

 eigenvalue-minimisations  : 18430
 total energy-change (2. order) : 0.1346586E+02  (-0.2053498E+01)
 number of electron     672.0000180 magnetization      47.9999951
 augmentation part      249.6506479 magnetization      33.7754704

 Broyden mixing:
  rms(total) = 0.21905E+01    rms(broyden)= 0.21902E+01
  rms(prec ) = 0.22773E+01
  weight for this iteration     100.00

 eigenvalues of (default mixing * dielectric matrix)
  average eigenvalue GAMMA=   0.9432
  1.6989  0.3878  0.7430

 Free energy of the ion-electron system (eV)
  ---------------------------------------------------
  alpha Z        PSCENC =      2652.81237852
  Ewald energy   TEWEN  =    -41788.98013664
  -Hartree energ DENC   =    -25689.58725165
  -exchange      EXHF   =         0.00000000
  -V(xc)+E(xc)   XCENC  =      3707.00060368
  PAW double counting   =     67525.30349315   -71048.53571336
  entropy T*S    EENTRO =        -0.00000000
  eigenvalues    EBANDS =    -10121.75858832
  atomic energy  EATOM  =     73862.19814772
  Solvation  Ediel_sol  =         0.00000000
  ---------------------------------------------------
  free energy    TOTEN  =      -901.54706691 eV

  energy without entropy =     -901.54706691  energy(sigma->0) =     -901.54706691


--------------------------------------------------------------------------------------------------------




--------------------------------------- Iteration      1(  16)  ---------------------------------------


    POTLOK:  cpu time    0.0605: real time    0.0607
    SETDIJ:  cpu time    2.9974: real time    2.9990
    EDDIAG:  cpu time    3.2687: real time    3.2895
  RMM-DIIS:  cpu time   16.5403: real time   16.5622
    ORTHCH:  cpu time    0.5854: real time    0.5897
       DOS:  cpu time    0.0006: real time    0.0006
    CHARGE:  cpu time    1.8016: real time    1.8039
    MIXING:  cpu time    0.0008: real time    0.0008
    --------------------------------------------
      LOOP:  cpu time   25.2554: real time   25.3064

 eigenvalue-minimisations  : 17438
 total energy-change (2. order) :-0.1427754E+01  (-0.7232736E+00)
 number of electron     672.0000183 magnetization      47.9999949
 augmentation part      251.1439352 magnetization      33.8592828

 Broyden mixing:
  rms(total) = 0.14457E+01    rms(broyden)= 0.14452E+01
  rms(prec ) = 0.15306E+01
  weight for this iteration     100.00

 eigenvalues of (default mixing * dielectric matrix)
  average eigenvalue GAMMA=   0.9705
  2.0778  0.8938  0.3949  0.5153

 Free energy of the ion-electron system (eV)
  ---------------------------------------------------
  alpha Z        PSCENC =      2652.81237852
  Ewald energy   TEWEN  =    -41788.98013664
  -Hartree energ DENC   =    -25640.21754593
  -exchange      EXHF   =         0.00000000
  -V(xc)+E(xc)   XCENC  =      3708.30768825
  PAW double counting   =     70477.59259696   -74030.43535756
  entropy T*S    EENTRO =        -0.00000000
  eigenvalues    EBANDS =    -10144.25259245
  atomic energy  EATOM  =     73862.19814772
  Solvation  Ediel_sol  =         0.00000000
  ---------------------------------------------------
  free energy    TOTEN  =      -902.97482113 eV

  energy without entropy =     -902.97482113  energy(sigma->0) =     -902.97482113


--------------------------------------------------------------------------------------------------------




--------------------------------------- Iteration      1(  17)  ---------------------------------------


    POTLOK:  cpu time    0.0613: real time    0.0626
    SETDIJ:  cpu time    2.7552: real time    2.7567
    EDDIAG:  cpu time    3.2492: real time    3.2578
  RMM-DIIS:  cpu time   16.9753: real time   17.0231
    ORTHCH:  cpu time    0.5865: real time    0.5903
       DOS:  cpu time    0.0007: real time    0.0007
    CHARGE:  cpu time    1.7967: real time    1.7993
    MIXING:  cpu time    0.0010: real time    0.0011
    --------------------------------------------
      LOOP:  cpu time   25.4259: real time   25.4915

 eigenvalue-minimisations  : 18582
 total energy-change (2. order) : 0.1377245E+00  (-0.7428727E-01)
 number of electron     672.0000183 magnetization      47.9999948
 augmentation part      251.1036802 magnetization      33.8531337

 Broyden mixing:
  rms(total) = 0.76999E+00    rms(broyden)= 0.76985E+00
  rms(prec ) = 0.86753E+00
  weight for this iteration     100.00

 eigenvalues of (default mixing * dielectric matrix)
  average eigenvalue GAMMA=   0.9945
  2.2295  1.1171  0.3836  0.6869  0.5557

 Free energy of the ion-electron system (eV)
  ---------------------------------------------------
  alpha Z        PSCENC =      2652.81237852
  Ewald energy   TEWEN  =    -41788.98013664
  -Hartree energ DENC   =    -25631.26545301
  -exchange      EXHF   =         0.00000000
  -V(xc)+E(xc)   XCENC  =      3705.47788539
  PAW double counting   =     71341.60665957   -74902.80550403
  entropy T*S    EENTRO =        -0.00000000
  eigenvalues    EBANDS =    -10141.88107414
  atomic energy  EATOM  =     73862.19814772
  Solvation  Ediel_sol  =         0.00000000
  ---------------------------------------------------
  free energy    TOTEN  =      -902.83709662 eV

  energy without entropy =     -902.83709662  energy(sigma->0) =     -902.83709662


--------------------------------------------------------------------------------------------------------




--------------------------------------- Iteration      1(  18)  ---------------------------------------


    POTLOK:  cpu time    0.0608: real time    0.0620
    SETDIJ:  cpu time    2.7331: real time    2.7349
    EDDIAG:  cpu time    3.3173: real time    3.3242
  RMM-DIIS:  cpu time   16.6568: real time   16.7105
    ORTHCH:  cpu time    0.5928: real time    0.5966
       DOS:  cpu time    0.0006: real time    0.0006
    CHARGE:  cpu time    1.7995: real time    1.8031
    MIXING:  cpu time    0.0034: real time    0.0034
    --------------------------------------------
      LOOP:  cpu time   25.1644: real time   25.2352

 eigenvalue-minimisations  : 17556
 total energy-change (2. order) : 0.3970219E+00  (-0.7187783E-01)
 number of electron     672.0000183 magnetization      47.9999947
 augmentation part      250.6132074 magnetization      33.8207214

 Broyden mixing:
  rms(total) = 0.27804E+00    rms(broyden)= 0.27778E+00
  rms(prec ) = 0.29178E+00
  weight for this iteration     100.00

[...]
   4      -0.507    -0.779     1.285    -0.142     0.033    -0.022
   5      -1.073    -0.744     1.817     0.117     0.027     0.039
   6      -1.182    -0.653     1.835    -0.078    -0.092    -0.033
   7      -1.053    -0.700     1.753     0.157    -0.053    -0.076
   8      -0.669    -0.872     1.541    -0.149    -0.007     0.074
   9      -0.645    -0.906     1.551     0.151    -0.005    -0.012
  10      -1.105    -0.606     1.711    -0.221    -0.037     0.105
  11      -0.635    -0.853     1.488    -0.166    -0.030    -0.074
  12      -0.581    -0.743     1.324     0.187     0.005    -0.037
  13      -0.999    -0.520     1.519    -0.131     0.077     0.075
  14      -1.007    -0.757     1.764    -0.137     0.010    -0.056
  15      -1.065    -0.769     1.835     0.050     0.048     0.062
  16      -0.632    -0.982     1.614    -0.155    -0.003    -0.006
  17       1.420     1.486    -2.906     0.063    -0.062    -0.071
  18       1.409     1.481    -2.890     0.199     0.068     0.083
  19       1.416     1.508    -2.924     0.001    -0.019    -0.191
  20       1.534     1.377    -2.911    -0.019     0.029     0.282
  21       1.283     1.547    -2.830    -0.167    -0.028     0.179
  22       1.553     1.367    -2.921     0.007     0.107    -0.224
  23       1.406     1.572    -2.978    -0.249     0.016     0.125
  24       1.516     1.418    -2.935    -0.223    -0.003    -0.073
  25       0.234    -0.018    -0.216    -0.278    -0.999     0.515
  26      -1.114    -0.623     1.737    -0.241    -1.059     0.293
  27      -0.289    -0.394     0.684     1.663    -0.150     0.385
  28      -0.359     0.592    -0.233    -0.168    -0.728    -0.460
  29      -0.089    -0.231     0.320     0.760     0.039     0.697
  30       1.037    -0.870    -0.166    -0.736     0.154     0.116
  31      -0.560     0.729    -0.168     0.589     1.607     0.266
  32      -0.859    -0.272     1.131    -1.339     1.678     0.503
  33       0.366    -1.644     1.279     0.279     0.540     0.264
  34       0.922    -0.459    -0.463     0.870     0.709     0.415
  35       1.260    -1.430     0.170     0.350    -0.206     0.041
  36      -0.250    -2.167     2.418     1.811    -0.300    -0.006
  37       1.012     0.449    -1.461     0.503    -0.769    -0.172
  38       0.800    -1.740     0.940     0.181     0.117     0.453
  39      -2.299    -0.485     2.785    -0.055     0.644     0.301
  40      -0.932     0.728     0.204    -0.390     0.978    -0.291
  41      -2.356     1.315     1.041    -4.305     0.657    -4.887
  42      -2.353     2.593    -0.240     4.963     0.711     4.589
  43       5.308    -5.519     0.211     0.781    -4.888    -0.005
  44      -3.901     3.818     0.082    -5.859    -2.376     4.142
  45       4.528    -5.780     1.252    -0.385     5.268     0.523
  46      -3.866     2.828     1.038     5.132    -3.793    -4.178
  47      -4.979     3.842     1.138    -4.596     2.218    -4.896
  48       7.381    -7.465     0.084     0.583    -4.347    -1.314
  49      -5.688     3.679     2.009     5.132     3.198     5.437
  50      -2.745     1.237     1.508    -3.883    -1.569     4.250
  51      -1.958     2.472    -0.514     5.214    -2.610    -3.927
  52       6.101    -6.136     0.035     0.861     4.775    -1.789
  53      -3.091     2.572     0.519    -6.201     1.575    -4.596
  54      -2.458    -0.840     3.298     4.738     2.462     4.940
  55       5.812    -6.534     0.722    -2.013    -4.385    -0.514
  56      -3.848     4.061    -0.213    -3.060    -1.813     3.179
  57       5.016    -7.012     1.996    -3.477     4.174    -0.465
  58      -2.381     4.000    -1.619     4.537    -1.969    -4.000
  59      -4.155     3.084     1.070    -3.020     3.077    -3.005
  60       5.328    -4.796    -0.531    -1.055    -4.729     1.089
  61      -2.451     3.868    -1.417     5.818     0.884     2.415
  62      -3.684     1.605     2.079    -5.151    -1.092     5.068
  63      -3.059     1.617     1.442     6.722    -0.988    -4.273
  64       5.250    -5.897     0.646    -2.937     4.489    -0.341
  65      -3.374     3.666    -0.292    -5.464     3.639    -2.107
  66      -2.738     4.575    -1.837     4.352     2.045     3.031
  67       6.990    -5.654    -1.336    -0.457    -3.426    -1.081
  68      -2.078     1.879     0.198    -2.904    -2.758     3.122
  69       5.337    -4.953    -0.383     0.298     3.914    -0.639
  70      -1.086    -0.203     1.289     6.389    -2.205    -4.028
  71      -1.580     0.244     1.336    -4.802     2.538    -3.923
  72       5.482    -6.801     1.320     2.083    -3.972     2.042
  73      -2.592     1.414     1.178     5.969     0.546     4.075
  74      -4.860     1.201     3.659    -4.299    -2.289     3.972
  75      -1.250     0.862     0.389     5.250    -2.429    -3.432
  76       3.797    -6.505     2.709    -0.788     5.153     1.139
  77      -1.207     2.868    -1.662    -5.850     2.843    -3.016
  78      -3.792     3.366     0.426     3.724     2.222     3.770
  79       6.411    -4.721    -1.690    -1.007    -3.987    -1.149
  80      -5.512     2.978     2.535    -4.071    -1.220     5.811
  81       4.571    -5.364     0.793     0.911     4.847     1.265
  82      -1.898     1.984    -0.086     5.132    -2.854    -2.538
  83      -3.214    -0.063     3.277    -4.759     3.190    -3.536
  84       5.370    -7.227     1.857     1.354    -4.935     1.686
  85      -3.287     1.562     1.725     5.080     1.616     4.489
  86      -4.446     6.267    -1.821    -4.523    -2.271     2.754
  87      -2.979     3.597    -0.617     5.956    -2.040    -4.861
  88       4.589    -6.543     1.954     0.941     5.647     0.543
 ---------------------------------------------------------------------


 Total hyperfine coupling parameters after diagonalization (MHz)
 (convention: |A_zz| > |A_xx| > |A_yy|)
 ----------------------------------------------------------------------
  ion      A_xx      A_yy      A_zz     asymmetry (A_yy - A_xx)/ A_zz 
 ----------------------------------------------------------------------
   1       2.250     1.980     3.901      -0.069
   2       0.549    -0.032     2.966      -0.196
   3       1.962     1.572     3.850      -0.101
   4       1.909     1.517     3.642      -0.108
   5       0.961     0.558     3.487      -0.116
   6      -0.341     0.214     2.694       0.206
   7       0.958     0.488     3.358      -0.140
   8       1.759     1.398     3.893      -0.093
   9       2.072     1.673     4.199      -0.095
  10       1.546     0.885     3.791      -0.174
  11       2.891     2.491     4.927      -0.081
  12       1.900     1.491     3.683      -0.111
  13       2.431     1.882     4.443      -0.124
  14       0.613     0.242     3.076      -0.121
  15      -0.212     0.099     2.699       0.115
  16       2.295     1.827     4.482      -0.104
  17      13.259     8.969    13.402      -0.320
  18      13.136     9.000    13.542      -0.305
  19      14.926    10.577    15.026      -0.289
  20      14.492    10.169    14.635      -0.295
  21      14.219    10.178    14.651      -0.276
  22      13.674     9.360    13.850      -0.311
  23      15.562    11.352    16.087      -0.262
  24      14.540    10.364    14.996      -0.278
  25      93.223    92.342    94.678      -0.009
  26     101.411   100.570   104.190      -0.008
  27      98.490    95.734    99.155      -0.028
  28      98.841    97.390    99.352      -0.015
  29      97.478    96.285    98.423      -0.012
  30      95.604    94.605    97.048      -0.010
  31      96.951    94.574    98.227      -0.024
  32      95.349    92.151    96.921      -0.033
  33      95.545    93.724    96.987      -0.019
  34      93.891    93.733    96.300      -0.002
  35      97.005    95.389    98.206      -0.016
  36      96.103    92.043    97.768      -0.042
  37      92.429    90.567    93.748      -0.020
  38     100.987    98.428   101.342      -0.025
  39      95.317    93.439    98.713      -0.019
  40      99.144    97.321   100.034      -0.018
  41       5.760     1.019    14.536      -0.326
  42       6.273     1.890    16.026      -0.273
  43       4.078     1.168    15.080      -0.193
  44       6.305     1.601    18.078      -0.260
  45       4.599     1.190    15.505      -0.220
  46       7.916     3.275    19.538      -0.238
  47       5.629     1.075    17.343      -0.263
  48       6.800     0.900    18.066      -0.327
  49       5.515     0.015    18.595      -0.296
  50       5.700     2.278    14.715      -0.233
  51       5.577     3.173    16.994      -0.141
  52       6.121     0.800    16.548      -0.322
  53       6.856     1.429    17.881      -0.304
  54       5.466     0.723    16.068      -0.295
  55       7.159     1.494    17.056      -0.332
  56       2.694    -0.435    11.519      -0.272
  57       8.589     1.186    17.754      -0.417
  58       2.345     1.206    14.299      -0.080
  59       5.801     0.916    13.695      -0.357
  60       6.934     4.940    18.124      -0.110
  61       6.617     2.691    16.667      -0.236
  62       4.480    -1.420    14.369      -0.411
  63       8.942     1.318    18.197      -0.419
  64       6.301     1.361    16.579      -0.298
  65       7.403     1.305    16.686      -0.365
  66       2.364     0.438    13.311      -0.145
  67       3.692    -0.186    14.082      -0.275
  68       3.024     1.071    11.339      -0.172
  69       3.271     0.329    12.787      -0.230
  70       7.291     1.350    17.110      -0.347
  71       4.165     0.573    13.836      -0.260
  72       7.590    -0.468    15.445      -0.522
  73       8.280     1.298    16.459      -0.424
  74       6.833     0.773    15.994      -0.379
  75       6.008     2.471    15.642      -0.226
  76       4.672    -0.668    14.656      -0.364
  77       3.501     1.174    15.330      -0.152
  78       3.036    -0.288    12.759      -0.261
  79       5.870     2.653    16.357      -0.197
  80       5.280     0.215    17.057      -0.297
  81       6.834     3.651    17.310      -0.184
  82       6.037     2.157    15.179      -0.256
  83       6.420     1.118    15.873      -0.334
  84       8.789     1.716    18.532      -0.382
  85       6.193     1.055    15.882      -0.323
  86       5.039     1.089    16.533      -0.239
  87       2.323    -1.169    15.205      -0.230
  88       5.838     1.737    17.503      -0.234
 ---------------------------------------------------------------------



--------------------------------------------------------------------------------------------------------


 stress matrix after NEB project (eV)
    -43.68834     -1.73575      3.92491
     -1.71685    -43.37142     -0.63874
      3.89008     -0.61129    -56.70769
  FORCES: max atom, RMS     2.261784    1.054660
  FORCE total and by dimension    9.893584    1.951372
  Stress total and by dimension   83.921352   56.707694
     LOOP+:  cpu time  617.3824: real time  618.9612
    4ORBIT:  cpu time    0.0000: real time    0.0000
 


 total charge     
 
# of ion       s       p       d       tot
------------------------------------------
    1        0.050   5.993   0.000   6.044
    2        0.054   5.999   0.000   6.053
    3        0.051   5.993   0.000   6.043
    4        0.047   5.989   0.000   6.036
    5        0.051   5.994   0.000   6.045
    6        0.056   6.000   0.000   6.056
    7        0.052   5.997   0.000   6.050
    8        0.055   5.998   0.000   6.053
    9        0.050   5.992   0.000   6.042
   10        0.056   6.001   0.000   6.056
   11        0.050   5.993   0.000   6.043
   12        0.051   5.994   0.000   6.046
   13        0.047   5.990   0.000   6.037
   14        0.051   5.995   0.000   6.047
   15        0.048   5.991   0.000   6.040
   16        0.051   5.994   0.000   6.045
   17        0.148   6.126   0.081   6.354
   18        0.149   6.128   0.084   6.360
   19        0.146   6.124   0.081   6.350
   20        0.147   6.126   0.082   6.355
   21        0.138   6.111   0.070   6.319
   22        0.148   6.128   0.084   6.359
   23        0.151   6.130   0.085   6.365
   24        0.148   6.126   0.083   6.357
   25        0.392   6.487   4.865  11.744
   26        0.370   6.443   4.815  11.628
   27        0.385   6.477   4.855  11.718
   28        0.373   6.450   4.829  11.652
   29        0.391   6.485   4.871  11.747
   30        0.382   6.468   4.851  11.702
   31        0.377   6.461   4.836  11.674
   32        0.388   6.478   4.861  11.727
   33        0.387   6.476   4.853  11.715
   34        0.372   6.443   4.829  11.644
   35        0.363   6.429   4.803  11.595
   36        0.379   6.463   4.838  11.680
   37        0.384   6.474   4.847  11.705
   38        0.368   6.438   4.817  11.623
   39        0.378   6.454   4.840  11.673
   40        0.361   6.422   4.804  11.588
   41        1.598   3.521   0.000   5.120
   42        1.597   3.496   0.000   5.093
   43        1.597   3.523   0.000   5.119
   44        1.606   3.519   0.000   5.126
   45        1.599   3.505   0.000   5.104
   46        1.603   3.516   0.000   5.118
   47        1.602   3.484   0.000   5.086
   48        1.601   3.503   0.000   5.104
   49        1.603   3.503   0.000   5.105
   50        1.597   3.503   0.000   5.100
   51        1.600   3.496   0.000   5.095
   52        1.598   3.490   0.000   5.088
   53        1.602   3.497   0.000   5.099
   54        1.598   3.499   0.000   5.098
   55        1.599   3.517   0.000   5.116
   56        1.597   3.525   0.000   5.122
   57        1.598   3.498   0.000   5.097
   58        1.600   3.497   0.000   5.098
   59        1.601   3.559   0.000   5.160
   60        1.599   3.500   0.000   5.099
   61        1.600   3.492   0.000   5.091
   62        1.599   3.492   0.000   5.091
   63        1.600   3.499   0.000   5.099
   64        1.600   3.532   0.000   5.132
   65        1.601   3.509   0.000   5.110
   66        1.597   3.478   0.000   5.075
   67        1.599   3.507   0.000   5.106
   68        1.594   3.473   0.000   5.068
   69        1.598   3.513   0.000   5.111
   70        1.599   3.497   0.000   5.095
   71        1.596   3.507   0.000   5.103
   72        1.598   3.513   0.000   5.111
   73        1.598   3.527   0.000   5.125
   74        1.601   3.512   0.000   5.113
   75        1.601   3.534   0.000   5.134
   76        1.598   3.526   0.000   5.124
   77        1.603   3.489   0.000   5.092
   78        1.598   3.525   0.000   5.124
   79        1.599   3.537   0.000   5.136
   80        1.599   3.504   0.000   5.103
   81        1.598   3.507   0.000   5.105
   82        1.596   3.481   0.000   5.077
   83        1.599   3.505   0.000   5.104
   84        1.598   3.501   0.000   5.099
   85        1.598   3.513   0.000   5.111
   86        1.599   3.471   0.000   5.070
   87        1.600   3.483   0.000   5.083
   88        1.600   3.519   0.000   5.119
--------------------------------------------------
tot         84.807 416.555  78.065 579.427
 


 magnetization (x)
 
# of ion       s       p       d       tot
------------------------------------------
    1        0.002   0.000   0.000   0.002
    2        0.001   0.000   0.000   0.001
    3        0.002   0.000   0.000   0.002
    4        0.002   0.000   0.000   0.002
    5        0.001   0.001   0.000   0.002
    6        0.001   0.000   0.000   0.001
    7        0.001   0.001   0.000   0.002
    8        0.002  -0.000   0.000   0.001
    9        0.002  -0.000   0.000   0.002
   10        0.001   0.001   0.000   0.002
   11        0.003   0.000   0.000   0.003
   12        0.002   0.000   0.000   0.002
   13        0.002   0.000   0.000   0.003
   14        0.001   0.001   0.000   0.001
   15        0.001   0.000   0.000   0.001
   16        0.002   0.000   0.000   0.002
   17        0.007   0.002   0.001   0.010
   18        0.007   0.002   0.001   0.010
   19        0.008   0.002   0.001   0.011
   20        0.007   0.003   0.001   0.011
   21        0.007   0.002   0.001   0.011
   22        0.007   0.002   0.001   0.010
   23        0.008   0.003   0.001   0.013
   24        0.007   0.003   0.001   0.011
   25        0.014   0.030   2.718   2.763
   26        0.017   0.031   2.772   2.820
   27        0.016   0.032   2.733   2.781
   28        0.016   0.029   2.754   2.799
   29        0.016   0.031   2.717   2.763
   30        0.015   0.030   2.732   2.778
   31        0.016   0.030   2.753   2.799
   32        0.015   0.030   2.722   2.767
   33        0.015   0.031   2.733   2.780
   34        0.015   0.030   2.753   2.798
   35        0.016   0.029   2.784   2.829
   36        0.015   0.029   2.741   2.786
   37        0.014   0.030   2.736   2.780
   38        0.016   0.031   2.776   2.823
   39        0.015   0.030   2.731   2.776
   40        0.016   0.029   2.790   2.835
   41        0.002   0.033   0.000   0.035
   42        0.002   0.037   0.000   0.039
   43        0.002   0.027   0.000   0.028
   44        0.002   0.039   0.000   0.041
   45        0.002   0.029   0.000   0.031
   46        0.002   0.066   0.000   0.068
   47        0.002   0.036   0.000   0.038
   48        0.002   0.046   0.000   0.048
   49        0.002   0.040   0.000   0.042
   50        0.002   0.029   0.000   0.031
   51        0.002   0.033   0.000   0.036
   52        0.002   0.031   0.000   0.033
   53        0.002   0.042   0.000   0.045
   54        0.002   0.036   0.000   0.038
   55        0.002   0.050   0.000   0.052
   56        0.001   0.010   0.000   0.011
   57        0.002   0.050   0.000   0.053
   58        0.002   0.014   0.000   0.016
   59        0.002   0.041   0.000   0.042
   60        0.002   0.048   0.000   0.051
   61        0.002   0.038   0.000   0.040
   62        0.002   0.027   0.000   0.029
   63        0.002   0.056   0.000   0.058
   64        0.002   0.046   0.000   0.048
   65        0.002   0.040   0.000   0.042
   66        0.002   0.011   0.000   0.012
   67        0.002   0.022   0.000   0.023
   68        0.002  -0.001   0.000   0.001
   69        0.002   0.022   0.000   0.024
   70        0.002   0.038   0.000   0.040
   71        0.002   0.021   0.000   0.023
   72        0.002   0.044   0.000   0.046
   73        0.002   0.050   0.000   0.052
   74        0.002   0.048   0.000   0.050
   75        0.002   0.043   0.000   0.045
   76        0.002   0.033   0.000   0.035
   77        0.002   0.013   0.000   0.015
   78        0.001   0.021   0.000   0.022
   79        0.002   0.038   0.000   0.041
   80        0.002   0.036   0.000   0.038
   81        0.002   0.044   0.000   0.046
   82        0.002   0.029   0.000   0.032
   83        0.002   0.038   0.000   0.040
   84        0.002   0.051   0.000   0.053
   85        0.002   0.034   0.000   0.036
   86        0.002   0.022   0.000   0.024
   87        0.002   0.017   0.000   0.018
   88        0.002   0.043   0.000   0.045
--------------------------------------------------
tot          0.424   2.165  43.959  46.548
 

 total amount of memory used by VASP MPI-rank0   104117. kBytes
=======================================================================

   base      :      30000. kBytes
   nonlr-proj:      13675. kBytes
   fftplans  :       1316. kBytes
   grid      :      22786. kBytes
   one-center:       2737. kBytes
   wavefun   :      33603. kBytes
 
  
  
 General timing and accounting informations for this job:
 ========================================================
  
                  Total CPU time used (sec):      631.094
                            User time (sec):      626.840
                          System time (sec):        4.254
                         Elapsed time (sec):      633.928
  
                   Maximum memory used (kb):      197116.
                   Average memory used (kb):           0.
  
                          Minor page faults:       282069
                          Major page faults:            0
                 Voluntary context switches:         4102
