 vasp.5.4.4.18Apr17-6-g9f103f2a35 (build Dec 02 2020 12:53:39) complex          
  
 executed on             LinuxIFC date 2021.07.31  10:31:25
 running on   64 total cores
 distrk:  each k-point on   64 cores,    1 groups
 distr:  one band on NCORES_PER_BAND=   1 cores,   64 groups


--------------------------------------------------------------------------------------------------------


 INCAR:
 POTCAR:    PAW_PBE Na_pv 19Sep2006               
 POTCAR:    PAW_PBE Mg_pv 13Apr2007               
 POTCAR:    PAW_PBE Mn_pv 02Aug2007               
 POTCAR:    PAW_PBE O 08Apr2002                   

 ----------------------------------------------------------------------------- 
|                                                                             |
|           W    W    AA    RRRRR   N    N  II  N    N   GGGG   !!!           |
|           W    W   A  A   R    R  NN   N  II  NN   N  G    G  !!!           |
|           W    W  A    A  R    R  N N  N  II  N N  N  G       !!!           |
|           W WW W  AAAAAA  RRRRR   N  N N  II  N  N N  G  GGG   !            |
|           WW  WW  A    A  R   R   N   NN  II  N   NN  G    G                |
|           W    W  A    A  R    R  N    N  II  N    N   GGGG   !!!           |
|                                                                             |
|      For optimal performance we recommend to set                            |
|        NCORE= 4 - approx SQRT( number of cores)                             |
|      NCORE specifies how many cores store one orbital (NPAR=cpu/NCORE).     |
|      This setting can  greatly improve the performance of VASP for DFT.     |
|      The default,   NCORE=1            might be grossly inefficient         |
|      on modern multi-core architectures or massively parallel machines.     |
|      Do your own testing !!!!                                               |
|      Unfortunately you need to use the default for GW and RPA calculations. |
|      (for HF NCORE is supported but not extensively tested yet)             |
|                                                                             |
 ----------------------------------------------------------------------------- 

 POTCAR:    PAW_PBE Na_pv 19Sep2006               
   VRHFIN =Na: p6s1                                                             
   LEXCH  = PE                                                                  
   EATOM  =   766.0439 eV,   56.3026 Ry                                         
                                                                                
   TITEL  = PAW_PBE Na_pv 19Sep2006                                             
   LULTRA =        F    use ultrasoft PP ?                                      
   IUNSCR =        1    unscreen: 0-lin 1-nonlin 2-no                           
   RPACOR =    1.800    partial core radius                                     
   POMASS =   22.990; ZVAL   =    7.000    mass and valenz                      
   RCORE  =    2.200    outmost cutoff radius                                   
   RWIGS  =    2.200; RWIGS  =    1.164    wigner-seitz radius (au A)           
   ENMAX  =  259.561; ENMIN  =  194.671 eV                                      
   ICORE  =        2    local potential                                         
   LCOR   =        T    correct aug charges                                     
   LPAW   =        T    paw PP                                                  
   EAUG   =  368.056                                                            
   DEXC   =    0.000                                                            
   RMAX   =    2.245    core radius for proj-oper                               
   RAUG   =    1.300    factor for augmentation sphere                          
   RDEP   =    2.259    radius for radial grids                                 
   RDEPT  =    1.738    core radius for aug-charge                              
                                                                                
   Atomic configuration                                                         
    5 entries                                                                   
     n  l   j            E        occ.                                          
     1  0  0.50     -1033.6933   2.0000                                         
     2  0  0.50       -56.7526   2.0000                                         
     2  1  1.50       -28.6721   6.0000                                         
     3  0  0.50        -2.7440   1.0000                                         
     3  2  1.50        -1.3606   0.0000                                         
   Description                                                                  
     l       E           TYP  RCUT    TYP  RCUT                                 
     1    -28.6720912     23  2.000                                             
     1      6.8029130     23  2.000                                             
     0     -2.7439560     23  2.200                                             
     0     34.0145650     23  2.200                                             
     2     -1.3605826     23  2.200                                             
  local pseudopotential read in
  partial core-charges read in
  partial kinetic energy density read in
  atomic valenz-charges read in
  non local Contribution for L=           1  read in
    real space projection operators read in
  non local Contribution for L=           1  read in
    real space projection operators read in
  non local Contribution for L=           0  read in
    real space projection operators read in
  non local Contribution for L=           0  read in
    real space projection operators read in
    PAW grid and wavefunctions read in
 
   number of l-projection  operators is LMAX  =           4
   number of lm-projection operators is LMMAX =           8
 
 POTCAR:    PAW_PBE Mg_pv 13Apr2007               
   VRHFIN =Mg: p6s2                                                             
   LEXCH  = PE                                                                  
   EATOM  =  1056.7344 eV,   77.6678 Ry                                         
                                                                                
   TITEL  = PAW_PBE Mg_pv 13Apr2007                                             
   LULTRA =        F    use ultrasoft PP ?                                      
   IUNSCR =        1    unscreen: 0-lin 1-nonlin 2-no                           
   RPACOR =    1.500    partial core radius                                     
   POMASS =   24.305; ZVAL   =    8.000    mass and valenz                      
   RCORE  =    2.000    outmost cutoff radius                                   
   RWIGS  =    2.000; RWIGS  =    1.058    wigner-seitz radius (au A)           
   ENMAX  =  403.929; ENMIN  =  302.947 eV                                      
   RCLOC  =    1.506    cutoff for local pot                                    
   LCOR   =        T    correct aug charges                                     
   LPAW   =        T    paw PP                                                  
   EAUG   =  758.780                                                            
   DEXC   =    0.000                                                            
   RMAX   =    2.045    core radius for proj-oper                               
   RAUG   =    1.300    factor for augmentation sphere                          
   RDEP   =    2.025    radius for radial grids                                 
   RDEPT  =    1.557    core radius for aug-charge                              
                                                                                
   Atomic configuration                                                         
    5 entries                                                                   
     n  l   j            E        occ.                                          
     1  0  0.50     -1259.6230   2.0000                                         
     2  0  0.50       -79.8442   2.0000                                         
     2  1  1.50       -46.6121   6.0000                                         
     3  0  0.50        -4.7055   2.0000                                         
     3  2  1.50        -1.3606   0.0000                                         
   Description                                                                  
     l       E           TYP  RCUT    TYP  RCUT                                 
     1    -46.6121073     23  1.600                                             
     1      2.7211652     23  1.600                                             
     0     -4.7054661     23  2.000                                             
     0     61.2262170     23  2.000                                             
     2     -1.3605826     23  2.000                                             
  local pseudopotential read in
  partial core-charges read in
  partial kinetic energy density read in
  atomic valenz-charges read in
  non local Contribution for L=           1  read in
    real space projection operators read in
  non local Contribution for L=           1  read in
    real space projection operators read in
  non local Contribution for L=           0  read in
    real space projection operators read in
  non local Contribution for L=           0  read in
    real space projection operators read in
  non local Contribution for L=           2  read in
    real space projection operators read in
    PAW grid and wavefunctions read in
 
   number of l-projection  operators is LMAX  =           5
   number of lm-projection operators is LMMAX =          13
 
 POTCAR:    PAW_PBE Mn_pv 02Aug2007               
   VRHFIN =Mn: 3p4s3d                                                           
   LEXCH  = PE                                                                  
   EATOM  =  2025.2664 eV,  148.8529 Ry                                         
                                                                                
   TITEL  = PAW_PBE Mn_pv 02Aug2007                                             
   LULTRA =        F    use ultrasoft PP ?                                      
   IUNSCR =        1    unscreen: 0-lin 1-nonlin 2-no                           
   RPACOR =    2.080    partial core radius                                     
   POMASS =   54.938; ZVAL   =   13.000    mass and valenz                      
   RCORE  =    2.300    outmost cutoff radius                                   
   RWIGS  =    2.500; RWIGS  =    1.323    wigner-seitz radius (au A)           
   ENMAX  =  269.864; ENMIN  =  202.398 eV                                      
   ICORE  =        3    local potential                                         
   LCOR   =        T    correct aug charges                                     
   LPAW   =        T    paw PP                                                  
   EAUG   =  569.085                                                            
   DEXC   =    0.000                                                            
   RMAX   =    2.343    core radius for proj-oper                               
   RAUG   =    1.300    factor for augmentation sphere                          
   RDEP   =    2.338    radius for radial grids                                 
   RDEPT  =    1.798    core radius for aug-charge                              
                                                                                
   Atomic configuration                                                         
    8 entries                                                                   
     n  l   j            E        occ.                                          
     1  0  0.50     -6424.8287   2.0000                                         
     2  0  0.50      -739.1154   2.0000                                         
     2  1  1.50      -625.3949   6.0000                                         
     3  0  0.50       -81.6100   2.0000                                         
     3  1  1.50       -50.4667   6.0000                                         
     3  2  2.50        -3.3745   6.0000                                         
     4  0  0.50        -4.1331   1.0000                                         
     4  3  2.50        -1.3606   0.0000                                         
   Description                                                                  
     l       E           TYP  RCUT    TYP  RCUT                                 
     1    -50.4666628     23  2.000                                             
     1     -1.3605826     23  2.000                                             
     2     -3.3744729     23  2.300                                             
     2     -4.7350555     23  2.300                                             
     0     -4.1331431     23  2.300                                             
     0      7.6656591     23  2.300                                             
     3      9.5240782     23  2.300                                             
  local pseudopotential read in
  partial core-charges read in
  partial kinetic energy density read in
  atomic valenz-charges read in
  non local Contribution for L=           1  read in
    real space projection operators read in
  non local Contribution for L=           1  read in
    real space projection operators read in
  non local Contribution for L=           2  read in
    real space projection operators read in
  non local Contribution for L=           2  read in
    real space projection operators read in
  non local Contribution for L=           0  read in
    real space projection operators read in
  non local Contribution for L=           0  read in
    real space projection operators read in
    PAW grid and wavefunctions read in
 
   number of l-projection  operators is LMAX  =           6
   number of lm-projection operators is LMMAX =          18
 
 POTCAR:    PAW_PBE O 08Apr2002                   
   VRHFIN =O: s2p4                                                              
   LEXCH  = PE                                                                  
   EATOM  =   432.3788 eV,   31.7789 Ry                                         
                                                                                
   TITEL  = PAW_PBE O 08Apr2002                                                 
   LULTRA =        F    use ultrasoft PP ?                                      
   IUNSCR =        1    unscreen: 0-lin 1-nonlin 2-no                           
   RPACOR =    1.200    partial core radius                                     
   POMASS =   16.000; ZVAL   =    6.000    mass and valenz                      
   RCORE  =    1.520    outmost cutoff radius                                   
   RWIGS  =    1.550; RWIGS  =    0.820    wigner-seitz radius (au A)           
   ENMAX  =  400.000; ENMIN  =  300.000 eV                                      
   ICORE  =        2    local potential                                         
   LCOR   =        T    correct aug charges                                     
   LPAW   =        T    paw PP                                                  
   EAUG   =  605.392                                                            
   DEXC   =    0.000                                                            
   RMAX   =    1.553    core radius for proj-oper                               
   RAUG   =    1.300    factor for augmentation sphere                          
   RDEP   =    1.550    radius for radial grids                                 
   RDEPT  =    1.329    core radius for aug-charge                              
                                                                                
   Atomic configuration                                                         
    4 entries                                                                   
     n  l   j            E        occ.                                          
     1  0  0.50      -514.6923   2.0000                                         
     2  0  0.50       -23.9615   2.0000                                         
     2  1  0.50        -9.0305   4.0000                                         
     3  2  1.50        -9.5241   0.0000                                         
   Description                                                                  
     l       E           TYP  RCUT    TYP  RCUT                                 
     0    -23.9615318     23  1.200                                             
     0     -9.5240782     23  1.200                                             
     1     -9.0304911     23  1.520                                             
     1      8.1634956     23  1.520                                             
     2     -9.5240782      7  1.500                                             
  local pseudopotential read in
  partial core-charges read in
  partial kinetic energy density read in
  kinetic energy density of atom read in
  atomic valenz-charges read in
  non local Contribution for L=           0  read in
    real space projection operators read in
  non local Contribution for L=           0  read in
    real space projection operators read in
  non local Contribution for L=           1  read in
    real space projection operators read in
  non local Contribution for L=           1  read in
    real space projection operators read in
    PAW grid and wavefunctions read in
 
   number of l-projection  operators is LMAX  =           4
   number of lm-projection operators is LMMAX =           8
 
 Optimization of the real space projectors (new method)

 maximal supplied QI-value         = 17.01
 optimisation between [QCUT,QGAM] = [ 10.20, 20.41] = [ 29.16,116.64] Ry 
 Optimized for a Real-space Cutoff    1.30 Angstroem

   l    n(q)    QCUT    max X(q) W(low)/X(q) W(high)/X(q)  e(spline) 
   1      7    10.205     4.940    0.23E-03    0.84E-03    0.11E-06
   1      7    10.205     6.253    0.40E-03    0.13E-02    0.18E-06
   0      8    10.205    37.438    0.23E-03    0.37E-03    0.42E-07
   0      8    10.205     9.606    0.16E-03    0.26E-03    0.31E-07
 Optimization of the real space projectors (new method)

 maximal supplied QI-value         = 18.90
 optimisation between [QCUT,QGAM] = [ 10.20, 20.41] = [ 29.16,116.64] Ry 
 Optimized for a Real-space Cutoff    1.26 Angstroem

   l    n(q)    QCUT    max X(q) W(low)/X(q) W(high)/X(q)  e(spline) 
   1      7    10.205     2.974    0.63E-04    0.14E-03    0.13E-06
   1      7    10.205     4.279    0.11E-03    0.45E-03    0.24E-06
   0      8    10.205    16.381    0.44E-03    0.15E-03    0.55E-07
   0      8    10.205     5.611    0.31E-03    0.11E-03    0.40E-07
   2      7    10.205     4.652    0.50E-03    0.47E-03    0.57E-07
 Optimization of the real space projectors (new method)

 maximal supplied QI-value         = 16.25
 optimisation between [QCUT,QGAM] = [ 10.24, 20.48] = [ 29.35,117.42] Ry 
 Optimized for a Real-space Cutoff    1.34 Angstroem

   l    n(q)    QCUT    max X(q) W(low)/X(q) W(high)/X(q)  e(spline) 
   1      8    10.239     3.658    0.23E-03    0.30E-03    0.98E-07
   1      8    10.239     5.612    0.32E-03    0.65E-03    0.21E-06
   2      7    10.239    55.373    0.42E-03    0.45E-03    0.65E-07
   2      7    10.239    50.863    0.43E-03    0.48E-03    0.67E-07
   0      8    10.239    79.536    0.11E-03    0.21E-03    0.56E-07
   0      8    10.239    38.668    0.96E-04    0.19E-03    0.52E-07
 Optimization of the real space projectors (new method)

 maximal supplied QI-value         = 24.76
 optimisation between [QCUT,QGAM] = [ 10.15, 20.30] = [ 28.85,115.39] Ry 
 Optimized for a Real-space Cutoff    1.38 Angstroem

   l    n(q)    QCUT    max X(q) W(low)/X(q) W(high)/X(q)  e(spline) 
   0      8    10.150    20.381    0.22E-03    0.32E-03    0.29E-06
   0      8    10.150    15.268    0.23E-03    0.35E-03    0.30E-06
   1      8    10.150     5.964    0.46E-03    0.53E-03    0.21E-06
   1      8    10.150     5.382    0.38E-03    0.45E-03    0.19E-06
  PAW_PBE Na_pv 19Sep2006               :
 energy of atom  1       EATOM= -766.0439
 kinetic energy error for atom=    0.0103 (will be added to EATOM!!)
  PAW_PBE Mg_pv 13Apr2007               :
 energy of atom  2       EATOM=-1056.7344
 kinetic energy error for atom=    0.0820 (will be added to EATOM!!)
  PAW_PBE Mn_pv 02Aug2007               :
 energy of atom  3       EATOM=-2025.2664
 kinetic energy error for atom=    0.0284 (will be added to EATOM!!)
  PAW_PBE O 08Apr2002                   :
 energy of atom  4       EATOM= -432.3788
 kinetic energy error for atom=    0.1156 (will be added to EATOM!!)
 
 
 POSCAR: Na Mg Mn  O                             
  positions in cartesian coordinates
  No initial velocities read in

 METAGGA = SCAN     LMAXTAU =  6    LMIXTAU =  F

 exchange correlation table for  LEXCH =        8
   RHO(1)=    0.500       N(1)  =     2000
   RHO(2)=  100.500       N(2)  =     4000

 VTST: version 3.2, (02/03/18)

 CHAIN: initializing optimizer
 
 OPT: Using VASP Dynamics algorithm
 CHAIN: Read ICHAIN            0
 
 POSCAR: Na Mg Mn  O                             
  positions in cartesian coordinates
  No initial velocities read in
 


--------------------------------------------------------------------------------------------------------


 ion  position               nearest neighbor table
   1  0.765  0.605  0.252-  66 2.23  74 2.34  75 2.34  36 2.89  34 2.95
   2  0.183  0.666  0.757-  83 2.22  84 2.30  81 2.34  80 2.34
   3  0.490  0.007  0.748-  56 2.31  59 2.35  31 2.91
   4  0.756  0.443  0.750-  60 2.35  71 2.35  68 2.36  57 2.37
   5  0.257  0.310  0.247-
   6  0.949  0.435  0.250-  55 2.22  64 2.26  37 2.88  39 2.96
   7  0.261  0.154  0.748-  48 2.15  45 2.33  28 2.82  26 2.86
   8  0.964  0.290  0.752-  61 2.20  58 2.28
   9  0.489  0.184  0.253-  52 2.27  53 2.38
  10  0.659  0.011  0.241-  53 2.14  54 2.35  62 2.36
  11  0.470  0.630  0.242-  65 2.28  78 2.38
  12  0.773  0.967  0.756-  72 2.29  61 2.32
  13  0.552  0.599  0.747-  82 2.16  85 2.25  71 2.27  68 2.32  33 2.94
  14  0.962  0.805  0.754-  72 2.34  69 2.35  47 2.35  70 2.36
  15  0.970  0.004  0.248-  50 2.32  41 2.33  63 2.36  27 2.86  25 2.93
  16  0.255  0.807  0.248-  42 2.33  51 2.37
  17  0.618  0.308  0.005-  66 2.01  43 2.03  53 2.07  60 2.08  49 2.11  71 2.18
  18  0.626  0.314  0.501-  46 2.00  75 2.00  68 2.05  62 2.06  57 2.10  52 2.11  36 2.86
  19  0.121  0.311  0.984-  48 2.02  83 2.03  61 2.04  41 2.05  55 2.07  78 2.10  33 2.77
  20  0.121  0.316  0.502-  64 1.89  50 2.04  45 2.04  80 2.05  58 2.07  87 2.08  32 2.78  39 2.83

  21  0.103  0.796  0.014-  77 1.91  67 2.02  47 2.05  73 2.07  84 2.11  42 2.21  37 2.77
  22  0.127  0.819  0.512-  44 1.90  81 2.00  76 2.06  70 2.09  86 2.12  51 2.15  28 2.84
  23  0.610  0.809  0.003-  59 2.00  54 2.05  79 2.05  85 2.09  65 2.11  72 2.18  38 2.82  29 2.85

  24  0.628  0.814  0.502-  82 1.98  56 2.01  74 2.09  69 2.09  88 2.10  63 2.18  27 2.77  40 2.85

  25  0.944  0.968  0.988-  47 1.87  54 1.88  72 1.89  41 1.90  67 1.92  61 1.97  34 2.88  26 2.90
                            30 2.93  15 2.93
  26  0.278  0.131  0.001-  49 1.88  42 1.89  41 1.90  43 1.90  47 1.94  48 1.99  29 2.83   7 2.86
                            33 2.89  25 2.90
  27  0.948  0.974  0.502-  76 1.87  63 1.91  50 1.91  69 1.92  44 1.92  58 1.93  24 2.77  32 2.81
                            15 2.86  36 2.88  28 2.94
  28  0.287  0.145  0.498-  45 1.91  46 1.93  50 1.93  52 1.96  44 1.99  51 2.01   7 2.82  22 2.84
                            35 2.86  27 2.94  31 2.98
  29  0.446  0.973  0.013-  84 1.85  49 1.88  59 1.93  42 1.94  79 1.94  53 1.98  26 2.83  23 2.85
                            38 2.87  30 2.91
  30  0.781  0.143  0.999-  59 1.86  60 1.90  53 1.91  55 1.94  61 1.94  54 1.95  37 2.90  29 2.91
                            25 2.93
  31  0.467  0.982  0.489-  51 1.87  62 1.88  88 1.92  56 1.94  81 1.99  46 2.02  40 2.87  32 2.90
                             3 2.91  28 2.98
  32  0.801  0.150  0.506-  57 1.87  58 1.88  64 1.90  63 1.90  56 1.92  62 1.97  20 2.78  27 2.81
                            31 2.90  39 2.90
  33  0.439  0.463  0.984-  48 1.83  71 1.91  85 1.92  43 1.93  78 2.02  65 2.03  19 2.77  34 2.86
                            26 2.89  38 2.91  13 2.94
  34  0.768  0.637  0.990-  65 1.85  67 1.87  71 1.87  72 1.94  66 2.01  73 2.02  33 2.86  25 2.88
                            37 2.95   1 2.95
  35  0.456  0.475  0.497-  45 1.86  82 1.88  52 1.91  74 1.93  68 1.93  87 1.94  28 2.86  40 2.90
                            36 2.95
  36  0.797  0.643  0.507-  75 1.79  70 1.87  76 1.93  68 1.99  74 1.99  69 2.01  39 2.82  18 2.86
                            27 2.88   1 2.89  35 2.95
  37  0.948  0.477  0.996-  73 1.84  77 1.89  66 1.95  60 1.97  83 1.98  55 2.06  21 2.77   6 2.88
                            30 2.90  38 2.93  34 2.95
  38  0.285  0.642  0.008-  78 1.84  77 1.89  84 1.90  85 1.92  79 1.95  83 1.98  23 2.82  29 2.87
                            33 2.91  37 2.93
  39  0.963  0.484  0.510-  86 1.90  70 1.90  75 1.92  64 1.93  80 1.94  57 1.99  36 2.82  20 2.83
                            32 2.90  40 2.92   6 2.96
  40  0.300  0.652  0.502-  80 1.91  82 1.92  81 1.92  88 1.92  86 1.93  87 1.97  24 2.85  31 2.87
                            35 2.90  39 2.92
  41  0.107  0.128  0.077-  26 1.90  25 1.90  19 2.05  15 2.33
  42  0.295  0.994  0.107-  26 1.89  29 1.94  21 2.21  16 2.33
  43  0.434  0.304  0.085-  26 1.90  33 1.93  17 2.03
  44  0.115  0.980  0.592-  22 1.90  27 1.92  28 1.99
  45  0.302  0.316  0.585-  35 1.86  28 1.91  20 2.04   7 2.33
  46  0.449  0.142  0.587-  28 1.93  18 2.00  31 2.02
  47  0.110  0.968  0.911-  25 1.87  26 1.94  21 2.05  14 2.35
  48  0.293  0.300  0.898-  33 1.83  26 1.99  19 2.02   7 2.15
  49  0.434  0.120  0.916-  26 1.88  29 1.88  17 2.11
  50  0.115  0.135  0.414-  27 1.91  28 1.93  20 2.04  15 2.32
  51  0.311  0.988  0.403-  31 1.87  28 2.01  22 2.15  16 2.37
  52  0.447  0.312  0.402-  35 1.91  28 1.96  18 2.11   9 2.27
  53  0.625  0.136  0.101-  30 1.91  29 1.98  17 2.07  10 2.14   9 2.38
  54  0.800  0.983  0.085-  25 1.88  30 1.95  23 2.05  10 2.35
  55  0.949  0.302  0.092-  30 1.94  37 2.06  19 2.07   6 2.22
  56  0.628  0.989  0.590-  32 1.92  31 1.94  24 2.01   3 2.31
  57  0.799  0.304  0.599-  32 1.87  39 1.99  18 2.10   4 2.37
  58  0.949  0.135  0.598-  32 1.88  27 1.93  20 2.07   8 2.28
  59  0.613  0.987  0.919-  30 1.86  29 1.93  23 2.00   3 2.35
  60  0.789  0.303  0.903-  30 1.90  37 1.97  17 2.08   4 2.35
  61  0.936  0.135  0.900-  30 1.94  25 1.97  19 2.04   8 2.20  12 2.32
  62  0.634  0.142  0.407-  31 1.88  32 1.97  18 2.06  10 2.36
  63  0.811  0.004  0.403-  32 1.90  27 1.91  24 2.18  15 2.36
  64  0.957  0.318  0.419-  20 1.89  32 1.90  39 1.93   6 2.26
  65  0.613  0.622  0.087-  34 1.85  33 2.03  23 2.11  11 2.28
  66  0.791  0.485  0.093-  37 1.95  34 2.01  17 2.01   1 2.23
  67  0.917  0.797  0.083-  34 1.87  25 1.92  21 2.02
  68  0.617  0.482  0.597-  35 1.93  36 1.99  18 2.05  13 2.32   4 2.36
  69  0.803  0.814  0.605-  27 1.92  36 2.01  24 2.09  14 2.35
  70  0.946  0.635  0.602-  36 1.87  39 1.90  22 2.09  14 2.36
  71  0.612  0.485  0.896-  34 1.87  33 1.91  17 2.18  13 2.27   4 2.35
  72  0.790  0.808  0.894-  25 1.89  34 1.94  23 2.18  12 2.29  14 2.34
  73  0.940  0.627  0.905-  37 1.84  34 2.02  21 2.07
  74  0.627  0.633  0.408-  35 1.93  36 1.99  24 2.09   1 2.34
  75  0.803  0.494  0.423-  36 1.79  39 1.92  18 2.00   1 2.34
  76  0.949  0.815  0.416-  27 1.87  36 1.93  22 2.06
  77  0.112  0.629  0.087-  37 1.89  38 1.89  21 1.91
  78  0.290  0.486  0.091-  38 1.84  33 2.02  19 2.10  11 2.38
  79  0.440  0.807  0.106-  29 1.94  38 1.95  23 2.05
  80  0.137  0.498  0.597-  40 1.91  39 1.94  20 2.05   2 2.34
  81  0.306  0.819  0.591-  40 1.92  31 1.99  22 2.00   2 2.34
  82  0.458  0.635  0.585-  35 1.88  40 1.92  24 1.98  13 2.16
  83  0.122  0.492  0.901-  37 1.98  38 1.98  19 2.03   2 2.22
  84  0.296  0.812  0.924-  29 1.85  38 1.90  21 2.11   2 2.30
  85  0.433  0.630  0.907-  38 1.92  33 1.92  23 2.09  13 2.25
  86  0.125  0.636  0.416-  39 1.90  40 1.93  22 2.12
  87  0.300  0.489  0.404-  35 1.94  40 1.97  20 2.08
  88  0.450  0.810  0.401-  40 1.92  31 1.92  24 2.10
 
  LATTYP: Found a hexagonal cell.
 ALAT       =    10.0190000534
 C/A-ratio  =     1.1196726572
  
  Lattice vectors:
  
 A1 = (  10.0190000534,   0.0000000000,   0.0000000000)
 A2 = (  -5.0095000267,   8.6767085668,   0.0000000000)
 A3 = (   0.0000000000,   0.0000000000,  11.2180004120)


Analysis of symmetry for initial positions (statically):
=====================================================================
 Subroutine PRICEL returns:
 Original cell was already a primitive cell.
 

 Routine SETGRP: Setting up the symmetry group for a 
 hexagonal supercell.


 Subroutine GETGRP returns: Found  1 space group operations
 (whereof  1 operations were pure point group operations)
 out of a pool of 24 trial point group operations.


The static configuration has the point symmetry C_1 .


Analysis of symmetry for dynamics (positions and initial velocities):
=====================================================================
 Subroutine PRICEL returns:
 Original cell was already a primitive cell.
 

 Routine SETGRP: Setting up the symmetry group for a 
 hexagonal supercell.


 Subroutine GETGRP returns: Found  1 space group operations
 (whereof  1 operations were pure point group operations)
 out of a pool of 24 trial point group operations.


The dynamic configuration has the point symmetry C_1 .


Analysis of structural, dynamic, and magnetic symmetry:
=====================================================================
 Subroutine PRICEL returns:
 Original cell was already a primitive cell.
 

 Routine SETGRP: Setting up the symmetry group for a 
 hexagonal supercell.


 Subroutine GETGRP returns: Found  1 space group operations
 (whereof  1 operations were pure point group operations)
 out of a pool of 24 trial point group operations.


The magnetic configuration has the point symmetry C_1 .


 Subroutine INISYM returns: Found  1 space group operations
 (whereof  1 operations are pure point group operations),
 and found     1 'primitive' translations

 
 

Automatic generation of k-mesh.
 generate k-points for:    2    2    2
Space group operators:
 irot       det(A)        alpha          n_x          n_y          n_z        tau_x        tau_y        tau_z
    1     1.000000     0.000000     1.000000     0.000000     0.000000     0.000000     0.000000     0.000000
 
 Subroutine IBZKPT returns following result:
 ===========================================
 
 Found      8 irreducible k-points:
 
 Following reciprocal coordinates:
            Coordinates               Weight
  0.000000  0.000000  0.000000      1.000000
  0.500000 -0.000000 -0.000000      1.000000
  0.000000  0.500000  0.000000      1.000000
  0.500000  0.500000 -0.000000      1.000000
  0.000000  0.000000  0.500000      1.000000
  0.500000 -0.000000  0.500000      1.000000
  0.000000  0.500000  0.500000      1.000000
  0.500000  0.500000  0.500000      1.000000
 
 Following cartesian coordinates:
            Coordinates               Weight
  0.000000  0.000000  0.000000      1.000000
  0.049905  0.028813 -0.000000      1.000000
  0.000000  0.057626  0.000000      1.000000
  0.049905  0.086438 -0.000000      1.000000
  0.000000  0.000000  0.044571      1.000000
  0.049905  0.028813  0.044571      1.000000
  0.000000  0.057626  0.044571      1.000000
  0.049905  0.086438  0.044571      1.000000
 


--------------------------------------------------------------------------------------------------------




 Dimension of arrays:
   k-points           NKPTS =      8   k-points in BZ     NKDIM =      8   number of bands    NBANDS=    448
   number of dos      NEDOS =    301   number of ions     NIONS =     88
   non local maximal  LDIM  =      6   non local SUM 2l+1 LMDIM =     18
   total plane-waves  NPLWV = 140000
   max r-space proj   IRMAX =   1632   max aug-charges    IRDMAX=   4555
   dimension x,y,z NGX =    50 NGY =   50 NGZ =   56
   dimension x,y,z NGXF=   100 NGYF=  100 NGZF=  112
   support grid    NGXF=   100 NGYF=  100 NGZF=  112
   ions per type =              16   8  16  48
   NGX,Y,Z   is equivalent  to a cutoff of   8.30,  8.30,  8.30 a.u.
   NGXF,Y,Z  is equivalent  to a cutoff of  16.59, 16.59, 16.60 a.u.

 SYSTEM =  unknown system                          
 POSCAR =  Na Mg Mn  O                             

 Startparameter for this run:
   NWRITE =      2    write-flag & timer
   PREC   = normal    normal or accurate (medium, high low for compatibility)
   ISTART =      0    job   : 0-new  1-cont  2-samecut
   ICHARG =      1    charge: 1-file 2-atom 10-const
   ISPIN  =      2    spin polarized calculation?
   LNONCOLLINEAR =      F non collinear calculations
   LSORBIT =      F    spin-orbit coupling
   INIWAV =      1    electr: 0-lowe 1-rand  2-diag
   LASPH  =      T    aspherical Exc in radial PAW
   METAGGA=      F    non-selfconsistent MetaGGA calc.

 Electronic Relaxation 1
   ENCUT  =  400.0 eV  29.40 Ry    5.42 a.u.  16.34 16.34 18.29*2*pi/ulx,y,z
   ENINI  =  400.0     initial cutoff
   ENAUG  =  758.8 eV  augmentation charge cutoff
   NELM   =    200;   NELMIN=  6; NELMDL=-12     # of ELM steps 
   EDIFF  = 0.1E-04   stopping-criterion for ELM
   LREAL  =      T    real-space projection
   NLSPLINE    = F    spline interpolate recip. space projectors
   LCOMPAT=      F    compatible to vasp.4.4
   GGA_COMPAT  = T    GGA compatible to vasp.4.4-vasp.4.6
   LMAXPAW     = -100 max onsite density
   LMAXMIX     =    4 max onsite mixed and CHGCAR
   VOSKOWN=      0    Vosko Wilk Nusair interpolation
   ROPT   =   -0.00050  -0.00050  -0.00050  -0.00050
 Ionic relaxation
   EDIFFG = 0.1E-03   stopping-criterion for IOM
   NSW    =      1    number of steps for IOM
   NBLOCK =      1;   KBLOCK =      1    inner block; outer block 
   IBRION =     -1    ionic relax: 0-MD 1-quasi-New 2-CG
   NFREE  =      0    steps in history (QN), initial steepest desc. (CG)
   ISIF   =      2    stress and relaxation
   IWAVPR =     10    prediction:  0-non 1-charg 2-wave 3-comb
   ISYM   =      2    0-nonsym 1-usesym 2-fastsym
   LCORR  =      T    Harris-Foulkes like correction to forces

   POTIM  = 0.5000    time-step for ionic-motion
   TEIN   =    0.0    initial temperature
   TEBEG  =    0.0;   TEEND  =   0.0 temperature during run
   SMASS  =  -3.00    Nose mass-parameter (am)
   estimated Nose-frequenzy (Omega)   =  0.10E-29 period in steps =****** mass=  -0.229E-26a.u.
   SCALEE = 1.0000    scale energy and forces
   NPACO  =    256;   APACO  = 16.0  distance and # of slots for P.C.
   PSTRESS=    0.0 pullay stress

  Mass of Ions in am
   POMASS =  22.99 24.30 54.94 16.00
  Ionic Valenz
   ZVAL   =   7.00  8.00 13.00  6.00
  Atomic Wigner-Seitz radii
   RWIGS  =  -1.00 -1.00 -1.00 -1.00
  virtual crystal weights 
   VCA    =   1.00  1.00  1.00  1.00
   NELECT =     672.0000    total number of electrons
   NUPDOWN=      48.0000    fix difference up-down

 DOS related values:
   EMIN   =  10.00;   EMAX   =-10.00  energy-range for DOS
   EFERMI =   0.00
   ISMEAR =     0;   SIGMA  =   0.05  broadening in eV -4-tet -1-fermi 0-gaus

 Electronic relaxation 2 (details)
   IALGO  =     48    algorithm
   LDIAG  =      T    sub-space diagonalisation (order eigenvalues)
   LSUBROT=      F    optimize rotation matrix (better conditioning)
   TURBO    =      0    0=normal 1=particle mesh
   IRESTART =      0    0=no restart 2=restart with 2 vectors
   NREBOOT  =      0    no. of reboots
   NMIN     =      0    reboot dimension
   EREF     =   0.00    reference energy to select bands
   IMIX   =      4    mixing-type and parameters
     AMIX     =   0.40;   BMIX     =  1.00
     AMIX_MAG =   1.60;   BMIX_MAG =  1.00
     AMIN     =   0.10
     WC   =   100.;   INIMIX=   1;  MIXPRE=   1;  MAXMIX= -45

 Intra band minimization:
   WEIMIN = 0.0000     energy-eigenvalue tresh-hold
   EBREAK =  0.56E-08  absolut break condition
   DEPER  =   0.30     relativ break condition  

   TIME   =   0.40     timestep for ELM

  volume/ion in A,a.u.               =      11.08        74.78
  Fermi-wavevector in a.u.,A,eV,Ry     =   1.445993  2.732531 28.448379  2.090897
  Thomas-Fermi vector in A             =   2.564112
 
 Write flags
   LWAVE        =      F    write WAVECAR
   LDOWNSAMPLE  =      F    k-point downsampling of WAVECAR
   LCHARG       =      F    write CHGCAR
   LVTOT        =      F    write LOCPOT, total local potential
   LVHAR        =      F    write LOCPOT, Hartree potential only
   LELF         =      F    write electronic localiz. function (ELF)
   LORBIT       =     11    0 simple, 1 ext, 2 COOP (PROOUT), +10 PAW based schemes


 Dipole corrections
   LMONO  =      F    monopole corrections only (constant potential shift)
   LDIPOL =      F    correct potential (dipole corrections)
   IDIPOL =      0    1-x, 2-y, 3-z, 4-all directions 
   EPSILON=  1.0000000 bulk dielectric constant

 Exchange correlation treatment:
   GGA     =    --    GGA type
   LEXCH   =     8    internal setting for exchange type
   VOSKOWN=      0    Vosko Wilk Nusair interpolation
   LHFCALC =     F    Hartree Fock is set to
   LHFONE  =     F    Hartree Fock one center treatment
   AEXX    =    0.0000 exact exchange contribution

 Linear response parameters
   LEPSILON=     F    determine dielectric tensor
   LRPA    =     F    only Hartree local field effects (RPA)
   LNABLA  =     F    use nabla operator in PAW spheres
   LVEL    =     F    velocity operator in full k-point grid
   LINTERFAST=   F  fast interpolation
   KINTER  =     0    interpolate to denser k-point grid
   CSHIFT  =0.1000    complex shift for real part using Kramers Kronig
   OMEGAMAX=  -1.0    maximum frequency
   DEG_THRESHOLD= 0.2000000E-02 threshold for treating states as degnerate
   RTIME   =   -0.100 relaxation time in fs
  (WPLASMAI=    0.000 imaginary part of plasma frequency in eV, 0.658/RTIME)
   DFIELD  = 0.0000000 0.0000000 0.0000000 field for delta impulse in time
 
 Orbital magnetization related:
   ORBITALMAG=     F  switch on orbital magnetization
   LCHIMAG   =     F  perturbation theory with respect to B field
   DQ        =  0.001000  dq finite difference perturbation B field
   LLRAUG    =     F  two centre corrections for induced B field



--------------------------------------------------------------------------------------------------------


 Static calculation
 charge density and potential will be updated during run
 spin polarized calculation
 RMM-DIIS sequential band-by-band
 perform sub-space diagonalisation
    before iterative eigenvector-optimisation
 modified Broyden-mixing scheme, WC =      100.0
 initial mixing is a Kerker type mixing with AMIX =  0.4000 and BMIX =      1.0000
 Hartree-type preconditioning will be used
 using additional bands          112
 real space projection scheme for non local part
 use partial core corrections
 calculate Harris-corrections to forces 
   (improved forces if not selfconsistent)
 use gradient corrections 
 use of overlap-Matrix (Vanderbilt PP)
 Gauss-broadening in eV      SIGMA  =   0.05


--------------------------------------------------------------------------------------------------------


  energy-cutoff  :      400.00
  volume of cell :      975.20
      direct lattice vectors                 reciprocal lattice vectors
    10.019000053  0.000000000  0.000000000     0.099810360  0.057625538 -0.000000000
    -5.009500027  8.676708567  0.000000000     0.000000000  0.115251076  0.000000000
     0.000000000  0.000000000 11.218000412     0.000000000  0.000000000  0.089142446

  length of vectors
    10.019000053 10.019000053 11.218000412     0.115251076  0.115251076  0.089142446


 
 k-points in units of 2pi/SCALE and weight: read from INCAR                         
   0.00000000  0.00000000  0.00000000       0.125
   0.04990518  0.02881277 -0.00000000       0.125
   0.00000000  0.05762554  0.00000000       0.125
   0.04990518  0.08643831 -0.00000000       0.125
   0.00000000  0.00000000  0.04457122       0.125
   0.04990518  0.02881277  0.04457122       0.125
   0.00000000  0.05762554  0.04457122       0.125
   0.04990518  0.08643831  0.04457122       0.125
 
 k-points in reciprocal lattice and weights: read from INCAR                         
   0.00000000  0.00000000  0.00000000       0.125
   0.50000000 -0.00000000 -0.00000000       0.125
   0.00000000  0.50000000  0.00000000       0.125
   0.50000000  0.50000000 -0.00000000       0.125
   0.00000000  0.00000000  0.50000000       0.125
   0.50000000 -0.00000000  0.50000000       0.125
   0.00000000  0.50000000  0.50000000       0.125
   0.50000000  0.50000000  0.50000000       0.125
 
 position of ions in fractional coordinates (direct lattice) 
   0.76455575  0.60499192  0.25150739
   0.18326227  0.66579592  0.75704936
   0.48963581  0.00651986  0.74774467
   0.75558517  0.44335920  0.75002315
   0.25680943  0.31009356  0.24673916
   0.94888845  0.43498621  0.24978427
   0.26086188  0.15448155  0.74774913
   0.96438509  0.29014557  0.75167139
   0.48944606  0.18358920  0.25271616
   0.65897480  0.01120043  0.24124977
   0.46983694  0.63019190  0.24234265
   0.77279483  0.96671351  0.75586911
   0.55160648  0.59887719  0.74712513
   0.96247349  0.80515456  0.75391511
   0.96979074  0.00402704  0.24798894
   0.25501655  0.80680923  0.24849348
   0.61751081  0.30819060  0.00525367
   0.62628151  0.31373878  0.50133801
   0.12079788  0.31109031  0.98376636
   0.12115008  0.31589513  0.50198251
   0.10316889  0.79624894  0.01429841
   0.12663622  0.81875402  0.51219378
   0.61027755  0.80937834  0.00280031
   0.62836515  0.81373599  0.50243803
   0.94404442  0.96830842  0.98793698
   0.27776442  0.13121105  0.00115524
   0.94811800  0.97415396  0.50159117
   0.28724281  0.14546876  0.49795684
   0.44607406  0.97337140  0.01265819
   0.78136731  0.14275459  0.99930465
   0.46742998  0.98202215  0.48901942
   0.80064834  0.14983447  0.50598501
   0.43945039  0.46299700  0.98418693
   0.76843578  0.63691548  0.98960055
   0.45640916  0.47481254  0.49682205
   0.79666502  0.64281403  0.50734532
   0.94826362  0.47747945  0.99561729
   0.28537632  0.64229771  0.00761695
   0.96285458  0.48409025  0.51036903
   0.29973613  0.65221045  0.50234354
   0.10681559  0.12812923  0.07686842
   0.29530050  0.99389475  0.10668211
   0.43352090  0.30428704  0.08518024
   0.11454141  0.98028354  0.59178728
   0.30195742  0.31551480  0.58512834
   0.44935304  0.14165049  0.58738008
   0.11005029  0.96826308  0.91093775
   0.29298306  0.30019909  0.89827060
   0.43370232  0.12048578  0.91584949
   0.11457338  0.13504775  0.41386877
   0.31059821  0.98834086  0.40338294
   0.44691627  0.31167464  0.40158583
   0.62522334  0.13562286  0.10075860
   0.79983464  0.98344810  0.08506186
   0.94881783  0.30220100  0.09181137
   0.62816599  0.98861265  0.58997591
   0.79942033  0.30424440  0.59944729
   0.94942105  0.13467204  0.59807807
   0.61335169  0.98687106  0.91879119
   0.78858148  0.30274037  0.90330715
   0.93633174  0.13491521  0.90016934
   0.63447360  0.14170696  0.40725707
   0.81076980  0.00446205  0.40275538
   0.95708627  0.31774376  0.41942412
   0.61298840  0.62248144  0.08693261
   0.79080353  0.48515632  0.09299697
   0.91735004  0.79693584  0.08255714
   0.61695712  0.48248595  0.59730253
   0.80277790  0.81401374  0.60484309
   0.94614126  0.63466002  0.60201192
   0.61193019  0.48514595  0.89575679
   0.79030678  0.80776598  0.89417897
   0.94035490  0.62652675  0.90451949
   0.62709467  0.63306148  0.40838205
   0.80335997  0.49447322  0.42259225
   0.94946517  0.81467643  0.41620430
   0.11231955  0.62868540  0.08686530
   0.28952148  0.48584783  0.09050989
   0.44039208  0.80749860  0.10602246
   0.13696175  0.49820735  0.59667586
   0.30635484  0.81910553  0.59093865
   0.45791765  0.63536420  0.58509001
   0.12174856  0.49235029  0.90127470
   0.29564094  0.81207637  0.92390797
   0.43309134  0.63012719  0.90652519
   0.12515210  0.63609720  0.41613120
   0.29995538  0.48929153  0.40447494
   0.45042637  0.80957196  0.40056426
 
 position of ions in cartesian coordinates  (Angst):
   4.62937703  5.24933857  2.82141000
  -1.49920000  5.77691713  8.49258000
   4.87299995  0.05657090  8.38820000
   5.34919997  3.84689857  8.41376000
   1.01955997  2.69059143  2.76792000
   7.32785003  3.77424857  2.80208000
   1.83969987  1.34039143  8.38825000
   8.20869003  2.51750857  8.43225000
   3.98407000  1.59295000  2.83497000
   6.54616000  0.09718287  2.70634000
   1.55034997  5.46799143  2.71860000
   2.89988003  8.38789143  8.47934000
   2.52647005  5.19628287  8.38125000
   5.60960013  6.98609143  8.45742000
   9.69616003  0.03494143  2.78194000
  -1.48670008  7.00044857  2.78760000
   4.64296000  2.67408000  0.05893570
   4.70304000  2.72222000  5.62401000
  -0.34813300  2.69924000 11.03589141
  -0.36867400  2.74093000  5.63124000
  -2.95516000  6.90882000  0.16039959
  -2.83278000  7.10409000  5.74579000
   2.05979000  7.02274000  0.03141390
   2.21918000  7.06055000  5.63635000
   4.60764000  8.40173000 11.08267741
   2.12562000  1.13848000  0.01295950
   4.61917000  8.45245000  5.62685000
   2.14916000  1.26219000  5.58608000
  -0.40688800  8.44566000  0.14199959
   7.11339000  1.23864000 11.21020000
  -0.23625900  8.52072000  5.48582000
   7.27110000  1.30007000  5.67614000
   2.08347000  4.01729000 11.04060941
   4.50833000  5.52633000 11.10133941
   2.19419000  4.11981000  5.57335000
   4.76161000  5.57751000  5.69140000
   7.10872000  4.14295000 11.16883521
  -0.35840500  5.57303000  0.08544700
   7.22179000  4.20031000  5.72532000
  -0.26419200  5.65904000  5.63529000
   0.42832200  1.11174000  0.86231000
  -2.02030003  8.62373507  1.19676000
   2.81912000  2.64021000  0.95555200
  -3.76314003  8.50563457  6.63867000
   1.44474000  2.73763000  6.56397000
   3.79247000  1.22906000  6.58923000
  -3.74792003  8.40133657 10.21890000
   1.43155000  2.60474000 10.07680000
   3.74169000  1.04542000 10.27400000
   0.47138900  1.17177000  4.64278000
  -1.83921003  8.57554557  4.52515000
   2.91632000  2.70431000  4.50499000
   5.58471000  1.17676000  1.13031000
   3.08695997  8.53309257  0.95422400
   7.99233000  2.62211000  1.02994000
   1.34113997  8.57790387  6.61835000
   6.48528000  2.63984000  6.72460000
   8.83761000  1.16851000  6.70924000
   1.20143997  8.56279257 10.30700000
   6.38422000  2.62679000 10.13330000
   8.70525000  1.17062000 10.09810000
   5.64691000  1.22955000  4.56861000
   8.10075000  0.03871590  4.51811000
   7.99731000  2.75697000  4.70510000
   3.02321000  5.40109000  0.97521000
   5.49267000  4.20956000  1.04324000
   5.19868000  6.91478000  0.92612600
   3.76428000  4.18639000  6.70054000
   3.96523000  7.06296000  6.78513000
   6.30006000  5.50676000  6.75337000
   3.70059000  4.20947000 10.04860000
   3.87158000  7.00875000 10.03090000
   6.28283000  5.43619000 10.14690000
   3.11154000  5.49289000  4.58123000
   5.57180000  4.29040000  4.74064000
   5.43157000  7.06871000  4.66898000
  -2.02407000  5.45492000  0.97445500
   0.46686100  4.21556000  1.01534000
   0.36712400  7.00643000  1.18936000
  -1.12355000  4.32280000  6.69351000
  -1.03394000  7.10714000  6.62915000
   1.40502000  5.51287000  6.56354000
  -1.24663000  4.27198000 10.11050000
  -1.10607000  7.04615000 10.36440000
   1.18252000  5.46743000 10.16940000
  -1.93263000  5.51923000  4.66816000
   0.55414700  4.24544000  4.53740000
   0.45727100  7.02442000  4.49353000
 


--------------------------------------------------------------------------------------------------------


 k-point  1 :   0.0000 0.0000 0.0000  plane waves:   17725
 k-point  2 :   0.5000-0.0000-0.0000  plane waves:   17736
 k-point  3 :   0.0000 0.5000 0.0000  plane waves:   17736
 k-point  4 :   0.5000 0.5000-0.0000  plane waves:   17736
 k-point  5 :   0.0000 0.0000 0.5000  plane waves:   17676
 k-point  6 :   0.5000-0.0000 0.5000  plane waves:   17700
 k-point  7 :   0.0000 0.5000 0.5000  plane waves:   17700
 k-point  8 :   0.5000 0.5000 0.5000  plane waves:   17700

 maximum and minimum number of plane-waves per node :     17736    17676

 maximum number of plane-waves:     17736
 maximum index in each direction: 
   IXMAX=   16   IYMAX=   16   IZMAX=   18
   IXMIN=  -16   IYMIN=  -16   IZMIN=  -18


 serial   3D FFT for wavefunctions
 parallel 3D FFT for charge:
    minimum data exchange during FFTs selected (reduces bandwidth)


 total amount of memory used by VASP MPI-rank0   104109. kBytes
=======================================================================

   base      :      30000. kBytes
   nonlr-proj:      13667. kBytes
   fftplans  :       1316. kBytes
   grid      :      22786. kBytes
   one-center:       2737. kBytes
   wavefun   :      33603. kBytes
 
     INWAV:  cpu time    0.0000: real time    0.0001
 Broyden mixing: mesh for mixing (old mesh)
   NGX = 33   NGY = 33   NGZ = 37
  (NGX  =100   NGY  =100   NGZ  =112)
  gives a total of  40293 points

 initial charge density was supplied:
 charge density of overlapping atoms calculated
 number of electron     672.0000000 magnetization      48.0000000
 keeping initial charge density in first step


--------------------------------------------------------------------------------------------------------


 Maximum index for non-local projection operator         1548
 Maximum index for augmentation-charges          259 (set IRDMAX)


--------------------------------------------------------------------------------------------------------


 First call to EWALD:  gamma=   0.179
 Maximum number of real-space cells 3x 3x 2
 Maximum number of reciprocal cells 3x 3x 3

    FEWALD:  cpu time    0.0020: real time    0.0030


--------------------------------------- Iteration      1(   1)  ---------------------------------------


    POTLOK:  cpu time    0.0689: real time    0.0722
    SETDIJ:  cpu time    2.5369: real time    2.5395
    EDDIAG:  cpu time    3.6728: real time    3.6975
  RMM-DIIS:  cpu time   10.4354: real time   10.4592
    ORTHCH:  cpu time    0.6014: real time    0.6050
       DOS:  cpu time    0.0012: real time    0.0015
    --------------------------------------------
      LOOP:  cpu time   17.3167: real time   17.3749

 eigenvalue-minimisations  :  7168
 total energy-change (2. order) : 0.1788302E+04  (-0.3592634E+05)
 number of electron     672.0000000 magnetization      48.0000000
 augmentation part      672.0000000 magnetization      48.0000000

 Free energy of the ion-electron system (eV)
  ---------------------------------------------------
  alpha Z        PSCENC =      2652.81237852
  Ewald energy   TEWEN  =    -41725.67480341
  -Hartree energ DENC   =    -25883.86885282
  -exchange      EXHF   =         0.00000000
  -V(xc)+E(xc)   XCENC  =      3606.40052615
  PAW double counting   =     55594.23204139   -59034.67079123
  entropy T*S    EENTRO =        -0.06526231
  eigenvalues    EBANDS =     -7283.06113755
  atomic energy  EATOM  =     73862.19814772
  Solvation  Ediel_sol  =         0.00000000
  ---------------------------------------------------
  free energy    TOTEN  =      1788.30224646 eV

  energy without entropy =     1788.36750877  energy(sigma->0) =     1788.33487762


--------------------------------------------------------------------------------------------------------




--------------------------------------- Iteration      1(   2)  ---------------------------------------


    EDDIAG:  cpu time    3.6485: real time    3.6570
  RMM-DIIS:  cpu time   10.4293: real time   10.4461
    ORTHCH:  cpu time    0.5991: real time    0.6038
       DOS:  cpu time    0.0011: real time    0.0010
    --------------------------------------------
      LOOP:  cpu time   14.6778: real time   14.7079

 eigenvalue-minimisations  :  7168
 total energy-change (2. order) :-0.2620056E+04  (-0.8658815E+04)
 number of electron     672.0000000 magnetization      48.0000000
 augmentation part      672.0000000 magnetization      48.0000000

 Free energy of the ion-electron system (eV)
  ---------------------------------------------------
  alpha Z        PSCENC =      2652.81237852
  Ewald energy   TEWEN  =    -41725.67480341
  -Hartree energ DENC   =    -25883.86885282
  -exchange      EXHF   =         0.00000000
  -V(xc)+E(xc)   XCENC  =      3606.40052615
  PAW double counting   =     55594.23204139   -59034.67079123
  entropy T*S    EENTRO =        -0.03947399
  eigenvalues    EBANDS =     -9903.14244957
  atomic energy  EATOM  =     73862.19814772
  Solvation  Ediel_sol  =         0.00000000
  ---------------------------------------------------
  free energy    TOTEN  =      -831.75327723 eV

  energy without entropy =     -831.71380325  energy(sigma->0) =     -831.73354024


--------------------------------------------------------------------------------------------------------




--------------------------------------- Iteration      1(   3)  ---------------------------------------


    EDDIAG:  cpu time    3.6654: real time    3.6751
  RMM-DIIS:  cpu time   10.3398: real time   10.4485
    ORTHCH:  cpu time    0.5990: real time    0.6042
       DOS:  cpu time    0.0011: real time    0.0011
    --------------------------------------------
      LOOP:  cpu time   14.6053: real time   14.7289

 eigenvalue-minimisations  :  7168
 total energy-change (2. order) : 0.2969383E+03  (-0.1558979E+04)
 number of electron     672.0000000 magnetization      48.0000000
 augmentation part      672.0000000 magnetization      48.0000000

 Free energy of the ion-electron system (eV)
  ---------------------------------------------------
  alpha Z        PSCENC =      2652.81237852
  Ewald energy   TEWEN  =    -41725.67480341
  -Hartree energ DENC   =    -25883.86885282
  -exchange      EXHF   =         0.00000000
  -V(xc)+E(xc)   XCENC  =      3606.40052615
  PAW double counting   =     55594.23204139   -59034.67079123
  entropy T*S    EENTRO =        -0.04203189
  eigenvalues    EBANDS =     -9606.20161926
  atomic energy  EATOM  =     73862.19814772
  Solvation  Ediel_sol  =         0.00000000
  ---------------------------------------------------
  free energy    TOTEN  =      -534.81500482 eV

  energy without entropy =     -534.77297293  energy(sigma->0) =     -534.79398888


--------------------------------------------------------------------------------------------------------




--------------------------------------- Iteration      1(   4)  ---------------------------------------


    EDDIAG:  cpu time    3.7009: real time    3.7104
  RMM-DIIS:  cpu time   10.4280: real time   10.4489
    ORTHCH:  cpu time    0.6000: real time    0.6039
       DOS:  cpu time    0.0008: real time    0.0008
    --------------------------------------------
      LOOP:  cpu time   14.7297: real time   14.7640

 eigenvalue-minimisations  :  7168
 total energy-change (2. order) :-0.5228270E+03  (-0.5076256E+03)
 number of electron     672.0000000 magnetization      48.0000000
 augmentation part      672.0000000 magnetization      48.0000000

 Free energy of the ion-electron system (eV)
  ---------------------------------------------------
  alpha Z        PSCENC =      2652.81237852
  Ewald energy   TEWEN  =    -41725.67480341
  -Hartree energ DENC   =    -25883.86885282
  -exchange      EXHF   =         0.00000000
  -V(xc)+E(xc)   XCENC  =      3606.40052615
  PAW double counting   =     55594.23204139   -59034.67079123
  entropy T*S    EENTRO =        -0.00000176
  eigenvalues    EBANDS =    -10129.07068559
  atomic energy  EATOM  =     73862.19814772
  Solvation  Ediel_sol  =         0.00000000
  ---------------------------------------------------
  free energy    TOTEN  =     -1057.64204102 eV

  energy without entropy =    -1057.64203926  energy(sigma->0) =    -1057.64204014


--------------------------------------------------------------------------------------------------------




--------------------------------------- Iteration      1(   5)  ---------------------------------------


    EDDIAG:  cpu time    3.6574: real time    3.6676
  RMM-DIIS:  cpu time   10.4203: real time   10.4666
    ORTHCH:  cpu time    0.6029: real time    0.6067
       DOS:  cpu time    0.0008: real time    0.0008
    --------------------------------------------
      LOOP:  cpu time   14.6814: real time   14.7417

 eigenvalue-minimisations  :  7168
 total energy-change (2. order) :-0.1482611E+03  (-0.2131288E+03)
 number of electron     672.0000000 magnetization      48.0000000
 augmentation part      672.0000000 magnetization      48.0000000

 Free energy of the ion-electron system (eV)
  ---------------------------------------------------
  alpha Z        PSCENC =      2652.81237852
  Ewald energy   TEWEN  =    -41725.67480341
  -Hartree energ DENC   =    -25883.86885282
  -exchange      EXHF   =         0.00000000
  -V(xc)+E(xc)   XCENC  =      3606.40052615
  PAW double counting   =     55594.23204139   -59034.67079123
  entropy T*S    EENTRO =        -0.00000000
  eigenvalues    EBANDS =    -10277.33178391
  atomic energy  EATOM  =     73862.19814772
  Solvation  Ediel_sol  =         0.00000000
  ---------------------------------------------------
  free energy    TOTEN  =     -1205.90313759 eV

  energy without entropy =    -1205.90313759  energy(sigma->0) =    -1205.90313759


--------------------------------------------------------------------------------------------------------




--------------------------------------- Iteration      1(   6)  ---------------------------------------


    EDDIAG:  cpu time    3.6945: real time    3.7061
  RMM-DIIS:  cpu time   10.4268: real time   10.4487
    ORTHCH:  cpu time    0.5962: real time    0.6001
       DOS:  cpu time    0.0006: real time    0.0006
    --------------------------------------------
      LOOP:  cpu time   14.7182: real time   14.7554

 eigenvalue-minimisations  :  7168
 total energy-change (2. order) :-0.2176620E+02  (-0.1156514E+03)
 number of electron     672.0000000 magnetization      48.0000000
 augmentation part      672.0000000 magnetization      48.0000000

 Free energy of the ion-electron system (eV)
  ---------------------------------------------------
  alpha Z        PSCENC =      2652.81237852
  Ewald energy   TEWEN  =    -41725.67480341
  -Hartree energ DENC   =    -25883.86885282
  -exchange      EXHF   =         0.00000000
  -V(xc)+E(xc)   XCENC  =      3606.40052615
  PAW double counting   =     55594.23204139   -59034.67079123
  entropy T*S    EENTRO =        -0.00000000
  eigenvalues    EBANDS =    -10299.09798353
  atomic energy  EATOM  =     73862.19814772
  Solvation  Ediel_sol  =         0.00000000
  ---------------------------------------------------
  free energy    TOTEN  =     -1227.66933720 eV

  energy without entropy =    -1227.66933720  energy(sigma->0) =    -1227.66933720


--------------------------------------------------------------------------------------------------------




--------------------------------------- Iteration      1(   7)  ---------------------------------------


    EDDIAG:  cpu time    3.6594: real time    3.6691
  RMM-DIIS:  cpu time   10.4094: real time   10.4475
    ORTHCH:  cpu time    0.6002: real time    0.6051
       DOS:  cpu time    0.0006: real time    0.0006
    --------------------------------------------
      LOOP:  cpu time   14.6696: real time   14.7223

 eigenvalue-minimisations  :  7168
 total energy-change (2. order) :-0.6555158E+01  (-0.7623619E+02)
 number of electron     672.0000000 magnetization      48.0000000
 augmentation part      672.0000000 magnetization      48.0000000

 Free energy of the ion-electron system (eV)
  ---------------------------------------------------
  alpha Z        PSCENC =      2652.81237852
  Ewald energy   TEWEN  =    -41725.67480341
  -Hartree energ DENC   =    -25883.86885282
  -exchange      EXHF   =         0.00000000
  -V(xc)+E(xc)   XCENC  =      3606.40052615
  PAW double counting   =     55594.23204139   -59034.67079123
  entropy T*S    EENTRO =        -0.00000000
  eigenvalues    EBANDS =    -10305.65314133
  atomic energy  EATOM  =     73862.19814772
  Solvation  Ediel_sol  =         0.00000000
  ---------------------------------------------------
  free energy    TOTEN  =     -1234.22449500 eV

  energy without entropy =    -1234.22449500  energy(sigma->0) =    -1234.22449500


--------------------------------------------------------------------------------------------------------




--------------------------------------- Iteration      1(   8)  ---------------------------------------


    EDDIAG:  cpu time    3.6877: real time    3.6970
  RMM-DIIS:  cpu time   10.4347: real time   10.4565
    ORTHCH:  cpu time    0.5962: real time    0.5999
       DOS:  cpu time    0.0007: real time    0.0007
    --------------------------------------------
      LOOP:  cpu time   14.7193: real time   14.7540

 eigenvalue-minimisations  :  7168
 total energy-change (2. order) : 0.4687941E+01  (-0.5265608E+02)
 number of electron     672.0000000 magnetization      48.0000000
 augmentation part      672.0000000 magnetization      48.0000000

 Free energy of the ion-electron system (eV)
  ---------------------------------------------------
  alpha Z        PSCENC =      2652.81237852
  Ewald energy   TEWEN  =    -41725.67480341
  -Hartree energ DENC   =    -25883.86885282
  -exchange      EXHF   =         0.00000000
  -V(xc)+E(xc)   XCENC  =      3606.40052615
  PAW double counting   =     55594.23204139   -59034.67079123
  entropy T*S    EENTRO =        -0.00000000
  eigenvalues    EBANDS =    -10300.96520072
  atomic energy  EATOM  =     73862.19814772
  Solvation  Ediel_sol  =         0.00000000
  ---------------------------------------------------
  free energy    TOTEN  =     -1229.53655439 eV

  energy without entropy =    -1229.53655439  energy(sigma->0) =    -1229.53655439


--------------------------------------------------------------------------------------------------------




--------------------------------------- Iteration      1(   9)  ---------------------------------------


    EDDIAG:  cpu time    3.6587: real time    3.6692
  RMM-DIIS:  cpu time   20.9265: real time   20.9888
    ORTHCH:  cpu time    0.5954: real time    0.5992
       DOS:  cpu time    0.0006: real time    0.0006
    --------------------------------------------
      LOOP:  cpu time   25.1812: real time   25.2578

 eigenvalue-minimisations  : 20216
 total energy-change (2. order) : 0.1801129E+02  (-0.2353536E+02)
 number of electron     672.0000000 magnetization      48.0000000
 augmentation part      672.0000000 magnetization      48.0000000

 Free energy of the ion-electron system (eV)
  ---------------------------------------------------
  alpha Z        PSCENC =      2652.81237852
  Ewald energy   TEWEN  =    -41725.67480341
  -Hartree energ DENC   =    -25883.86885282
  -exchange      EXHF   =         0.00000000
  -V(xc)+E(xc)   XCENC  =      3606.40052615
  PAW double counting   =     55594.23204139   -59034.67079123
  entropy T*S    EENTRO =        -0.00000000
  eigenvalues    EBANDS =    -10282.95391107
  atomic energy  EATOM  =     73862.19814772
  Solvation  Ediel_sol  =         0.00000000
  ---------------------------------------------------
  free energy    TOTEN  =     -1211.52526475 eV

  energy without entropy =    -1211.52526475  energy(sigma->0) =    -1211.52526475


--------------------------------------------------------------------------------------------------------




--------------------------------------- Iteration      1(  10)  ---------------------------------------


    EDDIAG:  cpu time    3.6558: real time    3.6660
  RMM-DIIS:  cpu time   21.4456: real time   21.5611
    ORTHCH:  cpu time    0.5966: real time    0.6003
       DOS:  cpu time    0.0007: real time    0.0007
    --------------------------------------------
      LOOP:  cpu time   25.6987: real time   25.8282

 eigenvalue-minimisations  : 20228
 total energy-change (2. order) :-0.3055869E+01  (-0.1032365E+01)
 number of electron     672.0000000 magnetization      48.0000000
 augmentation part      672.0000000 magnetization      48.0000000

 Free energy of the ion-electron system (eV)
  ---------------------------------------------------
  alpha Z        PSCENC =      2652.81237852
  Ewald energy   TEWEN  =    -41725.67480341
  -Hartree energ DENC   =    -25883.86885282
  -exchange      EXHF   =         0.00000000
  -V(xc)+E(xc)   XCENC  =      3606.40052615
  PAW double counting   =     55594.23204139   -59034.67079123
  entropy T*S    EENTRO =        -0.00000000
  eigenvalues    EBANDS =    -10286.00977971
  atomic energy  EATOM  =     73862.19814772
  Solvation  Ediel_sol  =         0.00000000
  ---------------------------------------------------
  free energy    TOTEN  =     -1214.58113339 eV

  energy without entropy =    -1214.58113338  energy(sigma->0) =    -1214.58113339


--------------------------------------------------------------------------------------------------------




--------------------------------------- Iteration      1(  11)  ---------------------------------------


    EDDIAG:  cpu time    3.6564: real time    3.6647
  RMM-DIIS:  cpu time   22.4908: real time   22.5533
    ORTHCH:  cpu time    0.6653: real time    0.6702
       DOS:  cpu time    0.0007: real time    0.0007
    --------------------------------------------
      LOOP:  cpu time   26.8133: real time   26.8890

 eigenvalue-minimisations  : 21683
 total energy-change (2. order) : 0.1046660E+00  (-0.9555144E-01)
 number of electron     672.0000000 magnetization      48.0000000
 augmentation part      672.0000000 magnetization      48.0000000

 Free energy of the ion-electron system (eV)
  ---------------------------------------------------
  alpha Z        PSCENC =      2652.81237852
  Ewald energy   TEWEN  =    -41725.67480341
  -Hartree energ DENC   =    -25883.86885282
  -exchange      EXHF   =         0.00000000
  -V(xc)+E(xc)   XCENC  =      3606.40052615
  PAW double counting   =     55594.23204139   -59034.67079123
  entropy T*S    EENTRO =        -0.00000000
  eigenvalues    EBANDS =    -10285.90511369
  atomic energy  EATOM  =     73862.19814772
  Solvation  Ediel_sol  =         0.00000000
  ---------------------------------------------------
  free energy    TOTEN  =     -1214.47646737 eV

  energy without entropy =    -1214.47646737  energy(sigma->0) =    -1214.47646737


--------------------------------------------------------------------------------------------------------




--------------------------------------- Iteration      1(  12)  ---------------------------------------


    EDDIAG:  cpu time    3.6542: real time    3.6631
  RMM-DIIS:  cpu time   24.0181: real time   24.0865
    ORTHCH:  cpu time    0.5980: real time    0.6018
       DOS:  cpu time    0.0007: real time    0.0007
    CHARGE:  cpu time    2.1694: real time    2.1746
    MIXING:  cpu time    0.0010: real time    0.0014
    --------------------------------------------
      LOOP:  cpu time   30.4415: real time   30.5282

 eigenvalue-minimisations  : 22838
 total energy-change (2. order) : 0.6582891E-02  (-0.6982667E-02)
 number of electron     671.9999963 magnetization      47.9999991
 augmentation part      239.1059925 magnetization      29.0393516

 Broyden mixing:
  rms(total) = 0.12606E+02    rms(broyden)= 0.12597E+02
  rms(prec ) = 0.14447E+02
  weight for this iteration     100.00

 Free energy of the ion-electron system (eV)
  ---------------------------------------------------
  alpha Z        PSCENC =      2652.81237852
  Ewald energy   TEWEN  =    -41725.67480341
  -Hartree energ DENC   =    -25883.86885282
  -exchange      EXHF   =         0.00000000
  -V(xc)+E(xc)   XCENC  =      3606.40052615
  PAW double counting   =     55594.23204139   -59034.67079123
  entropy T*S    EENTRO =        -0.00000000
  eigenvalues    EBANDS =    -10285.89853080
  atomic energy  EATOM  =     73862.19814772
  Solvation  Ediel_sol  =         0.00000000
  ---------------------------------------------------
  free energy    TOTEN  =     -1214.46988448 eV

  energy without entropy =    -1214.46988448  energy(sigma->0) =    -1214.46988448


--------------------------------------------------------------------------------------------------------




--------------------------------------- Iteration      1(  13)  ---------------------------------------


    POTLOK:  cpu time    0.0611: real time    0.0627
    SETDIJ:  cpu time    2.6952: real time    2.6974
    EDDIAG:  cpu time    3.6580: real time    3.6658
  RMM-DIIS:  cpu time   19.1875: real time   19.2479
    ORTHCH:  cpu time    0.5993: real time    0.6033
       DOS:  cpu time    0.0009: real time    0.0008
    CHARGE:  cpu time    2.1761: real time    2.1807
    MIXING:  cpu time    0.0010: real time    0.0011
    --------------------------------------------
      LOOP:  cpu time   28.3790: real time   28.4598

 eigenvalue-minimisations  : 17302
 total energy-change (2. order) : 0.2255047E+03  (-0.1375310E+03)
 number of electron     671.9999999 magnetization      47.9999989
 augmentation part      268.7586854 magnetization      26.7415474

 Broyden mixing:
  rms(total) = 0.13840E+02    rms(broyden)= 0.13837E+02
  rms(prec ) = 0.15524E+02
  weight for this iteration     100.00

 eigenvalues of (default mixing * dielectric matrix)
  average eigenvalue GAMMA=   0.3196
  0.3196

 Free energy of the ion-electron system (eV)
  ---------------------------------------------------
  alpha Z        PSCENC =      2652.81237852
  Ewald energy   TEWEN  =    -41725.67480341
  -Hartree energ DENC   =    -25218.56042705
  -exchange      EXHF   =         0.00000000
  -V(xc)+E(xc)   XCENC  =      3696.74624541
  PAW double counting   =     59937.57209691   -63362.87837252
  entropy T*S    EENTRO =        -0.08135522
  eigenvalues    EBANDS =    -10831.09909253
  atomic energy  EATOM  =     73862.19814772
  Solvation  Ediel_sol  =         0.00000000
  ---------------------------------------------------
  free energy    TOTEN  =      -988.96518216 eV

  energy without entropy =     -988.88382694  energy(sigma->0) =     -988.92450455


--------------------------------------------------------------------------------------------------------




--------------------------------------- Iteration      1(  14)  ---------------------------------------


    POTLOK:  cpu time    0.0609: real time    0.0610
    SETDIJ:  cpu time    2.6910: real time    2.6938
    EDDIAG:  cpu time    3.6548: real time    3.6625
  RMM-DIIS:  cpu time   18.8412: real time   18.8982
    ORTHCH:  cpu time    0.6079: real time    0.6202
       DOS:  cpu time    0.0006: real time    0.0006
    CHARGE:  cpu time    2.1640: real time    2.1686
    MIXING:  cpu time    0.0008: real time    0.0008
    --------------------------------------------
      LOOP:  cpu time   28.0213: real time   28.1058

 eigenvalue-minimisations  : 17764
 total energy-change (2. order) : 0.7377185E+02  (-0.1844750E+02)
 number of electron     671.9999982 magnetization      47.9999983
 augmentation part      246.7113378 magnetization      32.2352350

 Broyden mixing:
  rms(total) = 0.52715E+01    rms(broyden)= 0.52672E+01
  rms(prec ) = 0.56742E+01
  weight for this iteration     100.00

 eigenvalues of (default mixing * dielectric matrix)
  average eigenvalue GAMMA=   0.7327
  1.1046  0.3608

 Free energy of the ion-electron system (eV)
  ---------------------------------------------------
  alpha Z        PSCENC =      2652.81237852
  Ewald energy   TEWEN  =    -41725.67480341
  -Hartree energ DENC   =    -25828.73959304
  -exchange      EXHF   =         0.00000000
  -V(xc)+E(xc)   XCENC  =      3674.93194509
  PAW double counting   =     63373.13355374   -66855.72079776
  entropy T*S    EENTRO =        -0.00000000
  eigenvalues    EBANDS =    -10068.13415813
  atomic energy  EATOM  =     73862.19814772
  Solvation  Ediel_sol  =         0.00000000
  ---------------------------------------------------
  free energy    TOTEN  =      -915.19332728 eV

  energy without entropy =     -915.19332728  energy(sigma->0) =     -915.19332728


--------------------------------------------------------------------------------------------------------




--------------------------------------- Iteration      1(  15)  ---------------------------------------


    POTLOK:  cpu time    0.0608: real time    0.0623
    SETDIJ:  cpu time    2.6985: real time    2.7011
    EDDIAG:  cpu time    3.6576: real time    3.6654
  RMM-DIIS:  cpu time   19.7618: real time   19.8232
    ORTHCH:  cpu time    0.5979: real time    0.6017
       DOS:  cpu time    0.0007: real time    0.0007
    CHARGE:  cpu time    2.1640: real time    2.1685
    MIXING:  cpu time    0.0008: real time    0.0008
    --------------------------------------------
      LOOP:  cpu time   28.9421: real time   29.0236

 eigenvalue-minimisations  : 18422
 total energy-change (2. order) : 0.1337611E+02  (-0.1939769E+01)
 number of electron     671.9999987 magnetization      47.9999978
 augmentation part      249.6897846 magnetization      33.8111634

 Broyden mixing:
  rms(total) = 0.21259E+01    rms(broyden)= 0.21256E+01
  rms(prec ) = 0.22071E+01
  weight for this iteration     100.00

 eigenvalues of (default mixing * dielectric matrix)
  average eigenvalue GAMMA=   0.9648
  0.3872  0.7604  1.7469

 Free energy of the ion-electron system (eV)
  ---------------------------------------------------
  alpha Z        PSCENC =      2652.81237852
  Ewald energy   TEWEN  =    -41725.67480341
  -Hartree energ DENC   =    -25753.68679374
  -exchange      EXHF   =         0.00000000
  -V(xc)+E(xc)   XCENC  =      3707.20583231
  PAW double counting   =     67501.85442276   -71025.04986282
  entropy T*S    EENTRO =        -0.00000000
  eigenvalues    EBANDS =    -10121.47653531
  atomic energy  EATOM  =     73862.19814772
  Solvation  Ediel_sol  =         0.00000000
  ---------------------------------------------------
  free energy    TOTEN  =      -901.81721396 eV

  energy without entropy =     -901.81721396  energy(sigma->0) =     -901.81721396


--------------------------------------------------------------------------------------------------------




--------------------------------------- Iteration      1(  16)  ---------------------------------------


    POTLOK:  cpu time    0.0603: real time    0.0615
    SETDIJ:  cpu time    2.7279: real time    2.7295
    EDDIAG:  cpu time    3.6979: real time    3.7094
  RMM-DIIS:  cpu time   19.0702: real time   19.1271
    ORTHCH:  cpu time    0.6075: real time    0.6114
       DOS:  cpu time    0.0006: real time    0.0006
    CHARGE:  cpu time    2.1668: real time    2.1714
    MIXING:  cpu time    0.0010: real time    0.0010
    --------------------------------------------
      LOOP:  cpu time   28.3322: real time   28.4119

 eigenvalue-minimisations  : 17366
 total energy-change (2. order) :-0.1574852E+01  (-0.7055293E+00)
 number of electron     671.9999989 magnetization      47.9999977
 augmentation part      251.2317031 magnetization      33.8938742

 Broyden mixing:
  rms(total) = 0.13922E+01    rms(broyden)= 0.13917E+01
  rms(prec ) = 0.14853E+01
  weight for this iteration     100.00

 eigenvalues of (default mixing * dielectric matrix)
  average eigenvalue GAMMA=   0.9763
  2.0791  0.9022  0.3948  0.5291

 Free energy of the ion-electron system (eV)
  ---------------------------------------------------
  alpha Z        PSCENC =      2652.81237852
  Ewald energy   TEWEN  =    -41725.67480341
  -Hartree energ DENC   =    -25702.85153480
  -exchange      EXHF   =         0.00000000
  -V(xc)+E(xc)   XCENC  =      3708.58882860
  PAW double counting   =     70529.23505125   -74082.93020848
  entropy T*S    EENTRO =        -0.00000000
  eigenvalues    EBANDS =    -10144.76992576
  atomic energy  EATOM  =     73862.19814772
  Solvation  Ediel_sol  =         0.00000000
  ---------------------------------------------------
  free energy    TOTEN  =      -903.39206636 eV

  energy without entropy =     -903.39206636  energy(sigma->0) =     -903.39206636


--------------------------------------------------------------------------------------------------------




--------------------------------------- Iteration      1(  17)  ---------------------------------------


    POTLOK:  cpu time    0.0607: real time    0.0622
    SETDIJ:  cpu time    2.7308: real time    2.7322
    EDDIAG:  cpu time    3.6825: real time    3.6915
  RMM-DIIS:  cpu time   20.4062: real time   20.4843
    ORTHCH:  cpu time    0.5991: real time    0.6028
       DOS:  cpu time    0.0007: real time    0.0007
    CHARGE:  cpu time    2.1674: real time    2.1705
    MIXING:  cpu time    0.0011: real time    0.0011
    --------------------------------------------
      LOOP:  cpu time   29.6485: real time   29.7453

 eigenvalue-minimisations  : 18551
 total energy-change (2. order) : 0.2032150E+00  (-0.6182263E-01)
 number of electron     671.9999989 magnetization      47.9999976
 augmentation part      251.0938835 magnetization      33.8852419

 Broyden mixing:
  rms(total) = 0.74882E+00    rms(broyden)= 0.74873E+00
  rms(prec ) = 0.84208E+00
  weight for this iteration     100.00

 eigenvalues of (default mixing * dielectric matrix)
  average eigenvalue GAMMA=   1.0061
  2.2439  1.1345  0.3849  0.6993  0.5682

 Free energy of the ion-electron system (eV)
  ---------------------------------------------------
  alpha Z        PSCENC =      2652.81237852
  Ewald energy   TEWEN  =    -41725.67480341
  -Hartree energ DENC   =    -25696.35023082
  -exchange      EXHF   =         0.00000000
  -V(xc)+E(xc)   XCENC  =      3705.46823541
  PAW double counting   =     71315.35806351   -74876.69857812
  entropy T*S    EENTRO =        -0.00000000
  eigenvalues    EBANDS =    -10140.30206416
  atomic energy  EATOM  =     73862.19814772
  Solvation  Ediel_sol  =         0.00000000
  ---------------------------------------------------
  free energy    TOTEN  =      -903.18885135 eV

  energy without entropy =     -903.18885135  energy(sigma->0) =     -903.18885135


--------------------------------------------------------------------------------------------------------




--------------------------------------- Iteration      1(  18)  ---------------------------------------


    POTLOK:  cpu time    0.0604: real time    0.0606
    SETDIJ:  cpu time    2.7236: real time    2.7252
    EDDIAG:  cpu time    3.6809: real time    3.6905
  RMM-DIIS:  cpu time   19.2571: real time   19.3658
    ORTHCH:  cpu time    0.6029: real time    0.6069
       DOS:  cpu time    0.0006: real time    0.0006
    CHARGE:  cpu time    2.1840: real time    2.1882
    MIXING:  cpu time    0.0011: real time    0.0011
    --------------------------------------------
      LOOP:  cpu time   28.5107: real time   28.6389

 eigenvalue-minimisations  : 17668
 total energy-change (2. order) : 0.3750724E+00  (-0.7146877E-01)
 number of electron     671.9999988 magnetization      47.9999976
 augmentation part      250.6028757 magnetization      33.8479411

 Broyden mixing:
  rms(total) = 0.26190E+00    rms(broyden)= 0.26158E+00
  rms(prec ) = 0.27564E+00
  weight for this iteration     100.00

 eigenvalues of (default mixing * dielectric matrix)
  average eigenvalue GAMMA=   1.0250
  2.4813  1.3636  0.8491  0.3864  0.5851  0.4843

 Free energy of the ion-electron system (eV)
  ---------------------------------------------------
  alpha Z        PSCENC =      2652.81237852
[...]
   4      -0.565    -0.753     1.319    -0.126    -0.120    -0.022
   5      -0.831    -0.500     1.331    -0.018     0.025    -0.019
   6      -1.138    -0.710     1.849     0.100     0.003    -0.042
   7      -1.107    -0.800     1.907     0.210     0.053     0.012
   8      -0.862    -0.556     1.417    -0.070     0.031    -0.021
   9      -0.628    -0.719     1.346    -0.106     0.048     0.005
  10      -0.710    -1.092     1.802     0.192     0.133    -0.103
  11      -0.660    -0.868     1.528    -0.178     0.111     0.015
  12      -0.680    -0.840     1.520    -0.181     0.003    -0.034
  13      -0.590    -1.066     1.656     0.174     0.184    -0.112
  14      -0.983    -0.526     1.509    -0.028    -0.064     0.074
  15      -0.778    -1.076     1.854     0.054    -0.038    -0.015
  16      -0.834    -0.577     1.411     0.026    -0.019     0.023
  17       1.511     1.392    -2.903     0.075     0.042    -0.164
  18       1.379     1.553    -2.932     0.118     0.091     0.088
  19       1.405     1.427    -2.832     0.011    -0.119     0.070
  20       1.772     1.312    -3.084    -0.002    -0.017    -0.029
  21       1.522     1.457    -2.979    -0.198     0.216    -0.006
  22       1.609     1.421    -3.030    -0.112    -0.122    -0.141
  23       1.353     1.529    -2.882    -0.027    -0.166     0.074
  24       1.311     1.584    -2.895     0.066     0.146    -0.021
  25      -0.306    -1.776     2.082     0.407     0.813    -1.298
  26      -1.765     0.597     1.168    -0.418    -0.860     0.254
  27       0.967    -0.577    -0.390     2.031    -0.774     1.339
  28      -2.014    -0.869     2.883     0.303     0.249     0.341
  29      -0.116     0.205    -0.089     0.155    -0.264    -0.191
  30      -0.735     0.017     0.718    -0.748     0.149     0.287
  31      -1.557    -0.686     2.243    -0.814    -0.233     0.417
  32      -0.083     0.273    -0.190     0.095     0.113    -0.184
  33       1.895    -2.743     0.849    -0.173     0.805    -1.104
  34       0.993     0.701    -1.693    -1.515     0.295     0.471
  35       0.581    -1.712     1.131    -0.377    -0.055    -0.354
  36       0.391    -0.849     0.458     0.760    -0.014    -1.083
  37      -0.617    -0.373     0.991    -0.138    -1.152    -0.150
  38      -0.630    -0.404     1.034     1.497    -0.722    -0.331
  39      -1.622    -0.349     1.970     0.024     0.959    -0.861
  40      -1.414     0.138     1.276     0.252     0.882     0.424
  41      -4.836     1.418     3.418    -4.006     2.358    -5.505
  42      -3.068     3.875    -0.806     5.498     1.187     3.389
  43       5.482    -4.628    -0.854    -1.335    -4.961     0.680
  44      -2.642     0.532     2.109    -4.401    -2.218     3.989
  45       5.858    -7.622     1.764     0.378     5.054    -1.162
  46      -3.580     4.006    -0.426     4.061    -2.589    -4.278
  47      -5.324     2.743     2.581    -3.468     1.326    -5.435
  48       5.757    -8.236     2.480    -1.702    -5.072    -1.438
  49      -2.566     2.793    -0.226     5.178     2.203     4.887
  50      -3.978     1.033     2.945    -4.436    -3.437     4.082
  51      -6.345     4.570     1.775     3.775    -2.484    -4.535
  52       4.562    -4.622     0.060    -0.935     5.401     1.192
  53      -2.929     2.748     0.181    -4.378     2.880    -3.328
  54      -1.101     1.370    -0.270     5.047     3.142     2.845
  55       4.039    -5.256     1.218    -0.142    -6.002    -0.934
  56      -1.363     1.498    -0.134    -4.572    -2.551     3.110
  57       3.731    -6.322     2.591     0.726     5.219    -0.115
  58      -2.989     2.482     0.508     4.463    -3.432    -3.067
  59      -2.160     0.505     1.655    -5.120     2.873    -3.380
  60       5.758    -5.986     0.228    -0.278    -4.150     0.762
  61      -3.346     1.721     1.625     3.955     2.171     2.921
  62      -1.512    -0.862     2.375    -5.831    -2.211     3.992
  63      -0.945     2.446    -1.501     6.336    -2.727    -2.600
  64       5.462    -6.619     1.157     0.609     5.683    -0.200
  65      -2.087     4.386    -2.299    -5.148     4.416    -2.267
  66      -3.684     4.122    -0.438     3.752     2.349     3.176
  67       5.581    -5.755     0.174    -1.152    -3.811     0.954
  68      -3.016     3.037    -0.021    -4.679    -1.488     3.084
  69       5.295    -4.081    -1.214     0.744     4.292     1.781
  70      -3.695     3.351     0.345     4.305    -2.713    -4.041
  71      -3.328     2.244     1.084    -6.411     1.977    -4.557
  72       5.937    -5.483    -0.453    -1.282    -4.146     0.583
  73      -2.739     1.050     1.689     4.609    -0.248     5.331
  74      -3.122     2.163     0.960    -3.804    -2.172     3.278
  75      -2.539     0.763     1.776     5.478    -1.832    -5.268
  76       4.943    -6.742     1.800     2.776     4.924     1.004
  77      -4.443     2.445     1.998    -3.686     0.059    -4.278
  78      -0.072     1.285    -1.213     6.930     2.380     3.209
  79       4.051    -5.748     1.696     0.065    -4.681    -0.355
  80      -4.083     2.586     1.496    -4.735    -3.452     4.045
  81       3.485    -4.261     0.776     2.031     4.465     0.155
  82      -3.114     0.296     2.817     5.216    -2.964    -4.288
  83      -3.878     3.860     0.018    -3.743     2.172    -3.987
  84       5.810    -6.905     1.094     0.424    -5.419    -1.528
  85      -0.005    -1.042     1.047     6.431     5.150     3.150
  86      -2.639     2.913    -0.274    -5.721    -1.382     5.291
  87      -2.801     1.948     0.853     4.188    -2.600    -4.117
  88       5.389    -6.633     1.244     0.715     4.300     0.209
 ---------------------------------------------------------------------


 Total hyperfine coupling parameters after diagonalization (MHz)
 (convention: |A_zz| > |A_xx| > |A_yy|)
 ----------------------------------------------------------------------
  ion      A_xx      A_yy      A_zz     asymmetry (A_yy - A_xx)/ A_zz 
 ----------------------------------------------------------------------
   1       0.904     0.625     3.423      -0.082
   2       2.254     1.651     4.384      -0.138
   3       1.111     0.720     3.539      -0.110
   4       1.755     1.443     3.588      -0.087
   5       1.800     1.467     3.631      -0.092
   6       0.400    -0.072     2.938      -0.161
   7      -0.423     0.097     2.700       0.193
   8       2.130     1.794     4.089      -0.082
   9       1.899     1.669     3.805      -0.061
  10       2.072     1.527     4.517      -0.121
  11       2.007     1.597     4.102      -0.100
  12       2.127     1.730     4.209      -0.094
  13       1.648     1.058     3.865      -0.153
  14       2.260     1.801     4.302      -0.107
  15       0.911     0.595     3.535      -0.090
  16       1.889     1.628     3.876      -0.067
  17      13.949     9.677    14.134      -0.302
  18      14.631    10.376    14.927      -0.285
  19      13.427     9.186    13.454      -0.315
  20      15.696    11.299    16.155      -0.272
  21      16.055    11.772    16.458      -0.260
  22      14.845    10.431    15.131      -0.292
  23      13.961     9.716    14.141      -0.300
  24      12.708     8.507    13.006      -0.323
  25      95.828    93.717    98.718      -0.021
  26     100.792    98.247   101.830      -0.025
  27      95.459    91.996    97.289      -0.036
  28     100.702    99.443   104.466      -0.012
  29      99.018    98.713    99.510      -0.003
  30      93.561    91.923    93.993      -0.017
  31      96.159    94.402    98.780      -0.018
  32      94.498    94.179    94.855      -0.003
  33     100.342    96.658   102.142      -0.036
  34      94.987    93.491    97.795      -0.015
  35      95.749    93.291    96.282      -0.026
  36      98.676    96.602    99.550      -0.021
  37      94.938    94.012    96.866      -0.010
  38      95.201    92.857    96.663      -0.024
  39     103.344   102.000   106.357      -0.013
  40      97.796    96.112    99.485      -0.017
  41       4.369     0.141    16.325      -0.259
  42       7.154     3.082    17.549      -0.232
  43       4.077     2.846    16.020      -0.077
  44       3.132    -0.939    12.309      -0.331
  45       7.855     1.425    18.546      -0.347
  46       2.667     0.192    14.215      -0.174
  47       6.752     2.322    17.919      -0.247
  48       9.311     1.047    19.376      -0.427
  49       6.187     3.499    18.366      -0.146
  50       3.686    -1.108    14.156      -0.339
  51       6.476     0.379    17.266      -0.353
  52       3.916     0.707    14.557      -0.220
  53       5.111     1.681    14.843      -0.231
  54       4.229     1.364    14.150      -0.202
  55       4.175     1.788    16.195      -0.147
  56       4.456     2.070    13.900      -0.172
  57       5.512     1.114    15.952      -0.276
  58       6.498     2.261    15.906      -0.266
  59       5.276     0.734    14.569      -0.312
  60       6.017     1.857    15.947      -0.261
  61       3.551    -1.016    11.077      -0.412
  62       6.207    -0.064    15.236      -0.412
  63       6.820     3.677    18.260      -0.172
  64       4.522     0.528    16.619      -0.240
  65       6.355     1.049    16.955      -0.313
  66       2.884    -0.544    12.411      -0.276
  67       4.817     0.651    14.298      -0.291
  68       5.118     1.185    13.956      -0.282
  69       5.979     3.309    16.061      -0.166
  70       7.284     3.874    18.047      -0.189
  71       9.421     3.511    20.505      -0.288
  72       5.938     2.800    16.551      -0.190
  73       8.200     1.438    16.311      -0.415
  74       3.000    -0.512    11.421      -0.308
  75       6.799     1.619    17.569      -0.295
  76       7.364     1.676    18.095      -0.314
  77       6.381     0.690    14.303      -0.398
  78       6.335     2.650    18.148      -0.203
  79       6.057     2.226    15.701      -0.244
  80       5.146     0.364    15.921      -0.300
  81       4.238     1.314    13.369      -0.219
  82       5.246     0.146    15.743      -0.324
  83      -2.004     0.981    11.409       0.262
  84       6.206     1.215    17.885      -0.279
  85       6.730     2.202    19.343      -0.234
  86       5.392     1.127    17.315      -0.246
  87       2.465    -0.234    12.813      -0.211
  88       7.210     1.983    16.784      -0.311
 ---------------------------------------------------------------------



--------------------------------------------------------------------------------------------------------


 stress matrix after NEB project (eV)
    -45.32710     -3.09493      0.68262
     -3.09344    -42.13509      2.57318
      0.68135      2.58233    -56.80948
  FORCES: max atom, RMS     2.884086    1.048910
  FORCE total and by dimension    9.839647    2.639571
  Stress total and by dimension   84.205680   56.809476
     LOOP+:  cpu time  716.7200: real time  718.9684
    4ORBIT:  cpu time    0.0000: real time    0.0000
 


 total charge     
 
# of ion       s       p       d       tot
------------------------------------------
    1        0.050   5.993   0.000   6.043
    2        0.052   5.994   0.000   6.046
    3        0.047   5.989   0.000   6.036
    4        0.049   5.992   0.000   6.041
    5        0.042   5.983   0.000   6.026
    6        0.047   5.990   0.000   6.037
    7        0.050   5.994   0.000   6.044
    8        0.053   5.996   0.000   6.049
    9        0.049   5.991   0.000   6.040
   10        0.054   5.998   0.000   6.052
   11        0.050   5.991   0.000   6.040
   12        0.053   5.995   0.000   6.048
   13        0.056   6.001   0.000   6.057
   14        0.054   5.996   0.000   6.050
   15        0.048   5.990   0.000   6.038
   16        0.046   5.988   0.000   6.034
   17        0.145   6.122   0.079   6.346
   18        0.150   6.130   0.086   6.366
   19        0.149   6.129   0.085   6.363
   20        0.156   6.140   0.094   6.390
   21        0.151   6.131   0.086   6.368
   22        0.153   6.133   0.088   6.374
   23        0.147   6.124   0.080   6.350
   24        0.148   6.126   0.082   6.357
   25        0.386   6.479   4.850  11.716
   26        0.380   6.465   4.840  11.685
   27        0.384   6.473   4.848  11.705
   28        0.360   6.420   4.796  11.576
   29        0.380   6.463   4.844  11.687
   30        0.380   6.466   4.830  11.677
   31        0.372   6.444   4.824  11.639
   32        0.386   6.479   4.851  11.716
   33        0.372   6.442   4.835  11.649
   34        0.380   6.463   4.850  11.694
   35        0.383   6.474   4.839  11.696
   36        0.380   6.459   4.849  11.688
   37        0.369   6.436   4.816  11.621
   38        0.382   6.473   4.843  11.698
   39        0.372   6.447   4.828  11.647
   40        0.371   6.447   4.811  11.629
   41        1.600   3.521   0.000   5.121
   42        1.599   3.486   0.000   5.085
   43        1.599   3.507   0.000   5.107
   44        1.597   3.522   0.000   5.120
   45        1.604   3.507   0.000   5.112
   46        1.598   3.484   0.000   5.082
   47        1.598   3.519   0.000   5.117
   48        1.603   3.512   0.000   5.116
   49        1.602   3.505   0.000   5.107
   50        1.598   3.517   0.000   5.115
   51        1.598   3.485   0.000   5.083
   52        1.598   3.495   0.000   5.093
   53        1.597   3.522   0.000   5.119
   54        1.599   3.520   0.000   5.119
   55        1.601   3.462   0.000   5.062
   56        1.597   3.524   0.000   5.120
   57        1.598   3.503   0.000   5.101
   58        1.600   3.516   0.000   5.116
   59        1.599   3.538   0.000   5.137
   60        1.598   3.495   0.000   5.093
   61        1.596   3.518   0.000   5.114
   62        1.597   3.513   0.000   5.110
   63        1.599   3.502   0.000   5.101
   64        1.604   3.528   0.000   5.132
   65        1.600   3.498   0.000   5.098
   66        1.597   3.492   0.000   5.089
   67        1.601   3.514   0.000   5.115
   68        1.598   3.499   0.000   5.096
   69        1.595   3.497   0.000   5.092
   70        1.598   3.525   0.000   5.123
   71        1.600   3.515   0.000   5.115
   72        1.597   3.510   0.000   5.107
   73        1.598   3.509   0.000   5.106
   74        1.596   3.498   0.000   5.093
   75        1.602   3.545   0.000   5.147
   76        1.601   3.496   0.000   5.097
   77        1.599   3.548   0.000   5.147
   78        1.600   3.501   0.000   5.101
   79        1.595   3.507   0.000   5.102
   80        1.599   3.499   0.000   5.098
   81        1.597   3.505   0.000   5.102
   82        1.602   3.530   0.000   5.132
   83        1.599   3.489   0.000   5.088
   84        1.602   3.516   0.000   5.119
   85        1.601   3.493   0.000   5.094
   86        1.600   3.488   0.000   5.088
   87        1.597   3.490   0.000   5.087
   88        1.598   3.490   0.000   5.088
--------------------------------------------------
tot         84.786 416.602  78.034 579.422
 


 magnetization (x)
 
# of ion       s       p       d       tot
------------------------------------------
    1        0.001   0.001   0.000   0.002
    2        0.002   0.000   0.000   0.002
    3        0.001   0.001   0.000   0.002
    4        0.002   0.000   0.000   0.002
    5        0.002   0.000   0.000   0.002
    6        0.001   0.000   0.000   0.001
    7        0.001   0.000   0.000   0.001
    8        0.002   0.000   0.000   0.002
    9        0.002   0.000   0.000   0.002
   10        0.002   0.000   0.000   0.002
   11        0.002   0.000   0.000   0.002
   12        0.002   0.000   0.000   0.002
   13        0.001   0.000   0.000   0.002
   14        0.002   0.000   0.000   0.002
   15        0.001   0.001   0.000   0.002
   16        0.002   0.000   0.000   0.002
   17        0.007   0.002   0.001   0.010
   18        0.007   0.003   0.001   0.011
   19        0.007   0.002   0.001   0.010
   20        0.008   0.003   0.001   0.012
   21        0.008   0.003   0.001   0.012
   22        0.008   0.003   0.001   0.012
   23        0.007   0.002   0.001   0.010
   24        0.006   0.001   0.001   0.009
   25        0.015   0.031   2.732   2.779
   26        0.017   0.031   2.748   2.796
   27        0.015   0.030   2.728   2.773
   28        0.016   0.030   2.802   2.848
   29        0.016   0.030   2.743   2.789
   30        0.015   0.030   2.750   2.794
   31        0.016   0.029   2.759   2.804
   32        0.015   0.030   2.731   2.775
   33        0.016   0.030   2.740   2.786
   34        0.015   0.030   2.727   2.773
   35        0.015   0.030   2.741   2.786
   36        0.016   0.030   2.745   2.790
   37        0.015   0.029   2.779   2.823
   38        0.015   0.031   2.733   2.779
   39        0.017   0.031   2.775   2.824
   40        0.016   0.030   2.765   2.811
   41        0.002   0.041   0.000   0.042
   42        0.002   0.041   0.000   0.043
   43        0.002   0.027   0.000   0.030
   44        0.001   0.013   0.000   0.015
   45        0.002   0.045   0.000   0.048
   46        0.002   0.008   0.000   0.009
   47        0.002   0.049   0.000   0.052
   48        0.002   0.057   0.000   0.060
   49        0.002   0.047   0.000   0.049
   50        0.002   0.027   0.000   0.028
   51        0.002   0.038   0.000   0.040
   52        0.002   0.020   0.000   0.022
   53        0.002   0.032   0.000   0.034
   54        0.002   0.028   0.000   0.030
   55        0.002   0.021   0.000   0.023
   56        0.002   0.034   0.000   0.035
   57        0.002   0.039   0.000   0.041
   58        0.002   0.042   0.000   0.044
   59        0.002   0.037   0.000   0.039
   60        0.002   0.034   0.000   0.036
   61        0.001   0.015   0.000   0.017
   62        0.002   0.037   0.000   0.039
   63        0.002   0.054   0.000   0.057
   64        0.002   0.029   0.000   0.031
   65        0.002   0.035   0.000   0.037
   66        0.002   0.009   0.000   0.010
   67        0.002   0.030   0.000   0.032
   68        0.002   0.019   0.000   0.021
   69        0.002   0.038   0.000   0.041
   70        0.002   0.050   0.000   0.053
   71        0.003   0.062   0.000   0.065
   72        0.002   0.038   0.000   0.040
   73        0.002   0.043   0.000   0.045
   74        0.001   0.017   0.000   0.019
   75        0.002   0.055   0.000   0.057
   76        0.002   0.046   0.000   0.048
   77        0.002   0.038   0.000   0.040
   78        0.002   0.044   0.000   0.046
   79        0.002   0.036   0.000   0.038
   80        0.002   0.027   0.000   0.029
   81        0.002   0.024   0.000   0.026
   82        0.002   0.040   0.000   0.041
   83        0.001  -0.006   0.000  -0.004
   84        0.002   0.049   0.000   0.051
   85        0.002   0.048   0.000   0.050
   86        0.002   0.030   0.000   0.033
   87        0.001   0.013   0.000   0.014
   88        0.002   0.039   0.000   0.041
--------------------------------------------------
tot          0.428   2.147  44.005  46.580
 

 total amount of memory used by VASP MPI-rank0   104109. kBytes
=======================================================================

   base      :      30000. kBytes
   nonlr-proj:      13667. kBytes
   fftplans  :       1316. kBytes
   grid      :      22786. kBytes
   one-center:       2737. kBytes
   wavefun   :      33603. kBytes
 
  
  
 General timing and accounting informations for this job:
 ========================================================
  
                  Total CPU time used (sec):      730.065
                            User time (sec):      725.635
                          System time (sec):        4.430
                         Elapsed time (sec):      733.699
  
                   Maximum memory used (kb):      198180.
                   Average memory used (kb):           0.
  
                          Minor page faults:       271455
                          Major page faults:            0
                 Voluntary context switches:         4261
