 vasp.5.4.4.18Apr17-6-g9f103f2a35 (build Dec 02 2020 12:53:39) complex          
  
 executed on             LinuxIFC date 2021.08.04  10:36:41
 running on   96 total cores
 distrk:  each k-point on   96 cores,    1 groups
 distr:  one band on NCORES_PER_BAND=   1 cores,   96 groups


--------------------------------------------------------------------------------------------------------


 INCAR:
 POTCAR:    PAW_PBE Na_pv 19Sep2006               
 POTCAR:    PAW_PBE Mg_pv 13Apr2007               
 POTCAR:    PAW_PBE Mn_pv 02Aug2007               
 POTCAR:    PAW_PBE O 08Apr2002                   

 ----------------------------------------------------------------------------- 
|                                                                             |
|           W    W    AA    RRRRR   N    N  II  N    N   GGGG   !!!           |
|           W    W   A  A   R    R  NN   N  II  NN   N  G    G  !!!           |
|           W    W  A    A  R    R  N N  N  II  N N  N  G       !!!           |
|           W WW W  AAAAAA  RRRRR   N  N N  II  N  N N  G  GGG   !            |
|           WW  WW  A    A  R   R   N   NN  II  N   NN  G    G                |
|           W    W  A    A  R    R  N    N  II  N    N   GGGG   !!!           |
|                                                                             |
|      For optimal performance we recommend to set                            |
|        NCORE= 4 - approx SQRT( number of cores)                             |
|      NCORE specifies how many cores store one orbital (NPAR=cpu/NCORE).     |
|      This setting can  greatly improve the performance of VASP for DFT.     |
|      The default,   NCORE=1            might be grossly inefficient         |
|      on modern multi-core architectures or massively parallel machines.     |
|      Do your own testing !!!!                                               |
|      Unfortunately you need to use the default for GW and RPA calculations. |
|      (for HF NCORE is supported but not extensively tested yet)             |
|                                                                             |
 ----------------------------------------------------------------------------- 

 POTCAR:    PAW_PBE Na_pv 19Sep2006               
   VRHFIN =Na: p6s1                                                             
   LEXCH  = PE                                                                  
   EATOM  =   766.0439 eV,   56.3026 Ry                                         
                                                                                
   TITEL  = PAW_PBE Na_pv 19Sep2006                                             
   LULTRA =        F    use ultrasoft PP ?                                      
   IUNSCR =        1    unscreen: 0-lin 1-nonlin 2-no                           
   RPACOR =    1.800    partial core radius                                     
   POMASS =   22.990; ZVAL   =    7.000    mass and valenz                      
   RCORE  =    2.200    outmost cutoff radius                                   
   RWIGS  =    2.200; RWIGS  =    1.164    wigner-seitz radius (au A)           
   ENMAX  =  259.561; ENMIN  =  194.671 eV                                      
   ICORE  =        2    local potential                                         
   LCOR   =        T    correct aug charges                                     
   LPAW   =        T    paw PP                                                  
   EAUG   =  368.056                                                            
   DEXC   =    0.000                                                            
   RMAX   =    2.245    core radius for proj-oper                               
   RAUG   =    1.300    factor for augmentation sphere                          
   RDEP   =    2.259    radius for radial grids                                 
   RDEPT  =    1.738    core radius for aug-charge                              
                                                                                
   Atomic configuration                                                         
    5 entries                                                                   
     n  l   j            E        occ.                                          
     1  0  0.50     -1033.6933   2.0000                                         
     2  0  0.50       -56.7526   2.0000                                         
     2  1  1.50       -28.6721   6.0000                                         
     3  0  0.50        -2.7440   1.0000                                         
     3  2  1.50        -1.3606   0.0000                                         
   Description                                                                  
     l       E           TYP  RCUT    TYP  RCUT                                 
     1    -28.6720912     23  2.000                                             
     1      6.8029130     23  2.000                                             
     0     -2.7439560     23  2.200                                             
     0     34.0145650     23  2.200                                             
     2     -1.3605826     23  2.200                                             
  local pseudopotential read in
  partial core-charges read in
  partial kinetic energy density read in
  atomic valenz-charges read in
  non local Contribution for L=           1  read in
    real space projection operators read in
  non local Contribution for L=           1  read in
    real space projection operators read in
  non local Contribution for L=           0  read in
    real space projection operators read in
  non local Contribution for L=           0  read in
    real space projection operators read in
    PAW grid and wavefunctions read in
 
   number of l-projection  operators is LMAX  =           4
   number of lm-projection operators is LMMAX =           8
 
 POTCAR:    PAW_PBE Mg_pv 13Apr2007               
   VRHFIN =Mg: p6s2                                                             
   LEXCH  = PE                                                                  
   EATOM  =  1056.7344 eV,   77.6678 Ry                                         
                                                                                
   TITEL  = PAW_PBE Mg_pv 13Apr2007                                             
   LULTRA =        F    use ultrasoft PP ?                                      
   IUNSCR =        1    unscreen: 0-lin 1-nonlin 2-no                           
   RPACOR =    1.500    partial core radius                                     
   POMASS =   24.305; ZVAL   =    8.000    mass and valenz                      
   RCORE  =    2.000    outmost cutoff radius                                   
   RWIGS  =    2.000; RWIGS  =    1.058    wigner-seitz radius (au A)           
   ENMAX  =  403.929; ENMIN  =  302.947 eV                                      
   RCLOC  =    1.506    cutoff for local pot                                    
   LCOR   =        T    correct aug charges                                     
   LPAW   =        T    paw PP                                                  
   EAUG   =  758.780                                                            
   DEXC   =    0.000                                                            
   RMAX   =    2.045    core radius for proj-oper                               
   RAUG   =    1.300    factor for augmentation sphere                          
   RDEP   =    2.025    radius for radial grids                                 
   RDEPT  =    1.557    core radius for aug-charge                              
                                                                                
   Atomic configuration                                                         
    5 entries                                                                   
     n  l   j            E        occ.                                          
     1  0  0.50     -1259.6230   2.0000                                         
     2  0  0.50       -79.8442   2.0000                                         
     2  1  1.50       -46.6121   6.0000                                         
     3  0  0.50        -4.7055   2.0000                                         
     3  2  1.50        -1.3606   0.0000                                         
   Description                                                                  
     l       E           TYP  RCUT    TYP  RCUT                                 
     1    -46.6121073     23  1.600                                             
     1      2.7211652     23  1.600                                             
     0     -4.7054661     23  2.000                                             
     0     61.2262170     23  2.000                                             
     2     -1.3605826     23  2.000                                             
  local pseudopotential read in
  partial core-charges read in
  partial kinetic energy density read in
  atomic valenz-charges read in
  non local Contribution for L=           1  read in
    real space projection operators read in
  non local Contribution for L=           1  read in
    real space projection operators read in
  non local Contribution for L=           0  read in
    real space projection operators read in
  non local Contribution for L=           0  read in
    real space projection operators read in
  non local Contribution for L=           2  read in
    real space projection operators read in
    PAW grid and wavefunctions read in
 
   number of l-projection  operators is LMAX  =           5
   number of lm-projection operators is LMMAX =          13
 
 POTCAR:    PAW_PBE Mn_pv 02Aug2007               
   VRHFIN =Mn: 3p4s3d                                                           
   LEXCH  = PE                                                                  
   EATOM  =  2025.2664 eV,  148.8529 Ry                                         
                                                                                
   TITEL  = PAW_PBE Mn_pv 02Aug2007                                             
   LULTRA =        F    use ultrasoft PP ?                                      
   IUNSCR =        1    unscreen: 0-lin 1-nonlin 2-no                           
   RPACOR =    2.080    partial core radius                                     
   POMASS =   54.938; ZVAL   =   13.000    mass and valenz                      
   RCORE  =    2.300    outmost cutoff radius                                   
   RWIGS  =    2.500; RWIGS  =    1.323    wigner-seitz radius (au A)           
   ENMAX  =  269.864; ENMIN  =  202.398 eV                                      
   ICORE  =        3    local potential                                         
   LCOR   =        T    correct aug charges                                     
   LPAW   =        T    paw PP                                                  
   EAUG   =  569.085                                                            
   DEXC   =    0.000                                                            
   RMAX   =    2.343    core radius for proj-oper                               
   RAUG   =    1.300    factor for augmentation sphere                          
   RDEP   =    2.338    radius for radial grids                                 
   RDEPT  =    1.798    core radius for aug-charge                              
                                                                                
   Atomic configuration                                                         
    8 entries                                                                   
     n  l   j            E        occ.                                          
     1  0  0.50     -6424.8287   2.0000                                         
     2  0  0.50      -739.1154   2.0000                                         
     2  1  1.50      -625.3949   6.0000                                         
     3  0  0.50       -81.6100   2.0000                                         
     3  1  1.50       -50.4667   6.0000                                         
     3  2  2.50        -3.3745   6.0000                                         
     4  0  0.50        -4.1331   1.0000                                         
     4  3  2.50        -1.3606   0.0000                                         
   Description                                                                  
     l       E           TYP  RCUT    TYP  RCUT                                 
     1    -50.4666628     23  2.000                                             
     1     -1.3605826     23  2.000                                             
     2     -3.3744729     23  2.300                                             
     2     -4.7350555     23  2.300                                             
     0     -4.1331431     23  2.300                                             
     0      7.6656591     23  2.300                                             
     3      9.5240782     23  2.300                                             
  local pseudopotential read in
  partial core-charges read in
  partial kinetic energy density read in
  atomic valenz-charges read in
  non local Contribution for L=           1  read in
    real space projection operators read in
  non local Contribution for L=           1  read in
    real space projection operators read in
  non local Contribution for L=           2  read in
    real space projection operators read in
  non local Contribution for L=           2  read in
    real space projection operators read in
  non local Contribution for L=           0  read in
    real space projection operators read in
  non local Contribution for L=           0  read in
    real space projection operators read in
    PAW grid and wavefunctions read in
 
   number of l-projection  operators is LMAX  =           6
   number of lm-projection operators is LMMAX =          18
 
 POTCAR:    PAW_PBE O 08Apr2002                   
   VRHFIN =O: s2p4                                                              
   LEXCH  = PE                                                                  
   EATOM  =   432.3788 eV,   31.7789 Ry                                         
                                                                                
   TITEL  = PAW_PBE O 08Apr2002                                                 
   LULTRA =        F    use ultrasoft PP ?                                      
   IUNSCR =        1    unscreen: 0-lin 1-nonlin 2-no                           
   RPACOR =    1.200    partial core radius                                     
   POMASS =   16.000; ZVAL   =    6.000    mass and valenz                      
   RCORE  =    1.520    outmost cutoff radius                                   
   RWIGS  =    1.550; RWIGS  =    0.820    wigner-seitz radius (au A)           
   ENMAX  =  400.000; ENMIN  =  300.000 eV                                      
   ICORE  =        2    local potential                                         
   LCOR   =        T    correct aug charges                                     
   LPAW   =        T    paw PP                                                  
   EAUG   =  605.392                                                            
   DEXC   =    0.000                                                            
   RMAX   =    1.553    core radius for proj-oper                               
   RAUG   =    1.300    factor for augmentation sphere                          
   RDEP   =    1.550    radius for radial grids                                 
   RDEPT  =    1.329    core radius for aug-charge                              
                                                                                
   Atomic configuration                                                         
    4 entries                                                                   
     n  l   j            E        occ.                                          
     1  0  0.50      -514.6923   2.0000                                         
     2  0  0.50       -23.9615   2.0000                                         
     2  1  0.50        -9.0305   4.0000                                         
     3  2  1.50        -9.5241   0.0000                                         
   Description                                                                  
     l       E           TYP  RCUT    TYP  RCUT                                 
     0    -23.9615318     23  1.200                                             
     0     -9.5240782     23  1.200                                             
     1     -9.0304911     23  1.520                                             
     1      8.1634956     23  1.520                                             
     2     -9.5240782      7  1.500                                             
  local pseudopotential read in
  partial core-charges read in
  partial kinetic energy density read in
  kinetic energy density of atom read in
  atomic valenz-charges read in
  non local Contribution for L=           0  read in
    real space projection operators read in
  non local Contribution for L=           0  read in
    real space projection operators read in
  non local Contribution for L=           1  read in
    real space projection operators read in
  non local Contribution for L=           1  read in
    real space projection operators read in
    PAW grid and wavefunctions read in
 
   number of l-projection  operators is LMAX  =           4
   number of lm-projection operators is LMMAX =           8
 
 Optimization of the real space projectors (new method)

 maximal supplied QI-value         = 17.01
 optimisation between [QCUT,QGAM] = [ 10.20, 20.41] = [ 29.16,116.64] Ry 
 Optimized for a Real-space Cutoff    1.30 Angstroem

   l    n(q)    QCUT    max X(q) W(low)/X(q) W(high)/X(q)  e(spline) 
   1      7    10.205     4.940    0.23E-03    0.84E-03    0.11E-06
   1      7    10.205     6.253    0.40E-03    0.13E-02    0.18E-06
   0      8    10.205    37.438    0.23E-03    0.37E-03    0.42E-07
   0      8    10.205     9.606    0.16E-03    0.26E-03    0.31E-07
 Optimization of the real space projectors (new method)

 maximal supplied QI-value         = 18.90
 optimisation between [QCUT,QGAM] = [ 10.20, 20.41] = [ 29.16,116.64] Ry 
 Optimized for a Real-space Cutoff    1.26 Angstroem

   l    n(q)    QCUT    max X(q) W(low)/X(q) W(high)/X(q)  e(spline) 
   1      7    10.205     2.974    0.63E-04    0.14E-03    0.13E-06
   1      7    10.205     4.279    0.11E-03    0.45E-03    0.24E-06
   0      8    10.205    16.381    0.44E-03    0.15E-03    0.55E-07
   0      8    10.205     5.611    0.31E-03    0.11E-03    0.40E-07
   2      7    10.205     4.652    0.50E-03    0.47E-03    0.57E-07
 Optimization of the real space projectors (new method)

 maximal supplied QI-value         = 16.25
 optimisation between [QCUT,QGAM] = [ 10.24, 20.48] = [ 29.35,117.42] Ry 
 Optimized for a Real-space Cutoff    1.34 Angstroem

   l    n(q)    QCUT    max X(q) W(low)/X(q) W(high)/X(q)  e(spline) 
   1      8    10.239     3.658    0.23E-03    0.30E-03    0.98E-07
   1      8    10.239     5.612    0.32E-03    0.65E-03    0.21E-06
   2      7    10.239    55.373    0.42E-03    0.45E-03    0.65E-07
   2      7    10.239    50.863    0.43E-03    0.48E-03    0.67E-07
   0      8    10.239    79.536    0.11E-03    0.21E-03    0.56E-07
   0      8    10.239    38.668    0.96E-04    0.19E-03    0.52E-07
 Optimization of the real space projectors (new method)

 maximal supplied QI-value         = 24.76
 optimisation between [QCUT,QGAM] = [ 10.15, 20.30] = [ 28.85,115.39] Ry 
 Optimized for a Real-space Cutoff    1.38 Angstroem

   l    n(q)    QCUT    max X(q) W(low)/X(q) W(high)/X(q)  e(spline) 
   0      8    10.150    20.381    0.22E-03    0.32E-03    0.29E-06
   0      8    10.150    15.268    0.23E-03    0.35E-03    0.30E-06
   1      8    10.150     5.964    0.46E-03    0.53E-03    0.21E-06
   1      8    10.150     5.382    0.38E-03    0.45E-03    0.19E-06
  PAW_PBE Na_pv 19Sep2006               :
 energy of atom  1       EATOM= -766.0439
 kinetic energy error for atom=    0.0103 (will be added to EATOM!!)
  PAW_PBE Mg_pv 13Apr2007               :
 energy of atom  2       EATOM=-1056.7344
 kinetic energy error for atom=    0.0820 (will be added to EATOM!!)
  PAW_PBE Mn_pv 02Aug2007               :
 energy of atom  3       EATOM=-2025.2664
 kinetic energy error for atom=    0.0284 (will be added to EATOM!!)
  PAW_PBE O 08Apr2002                   :
 energy of atom  4       EATOM= -432.3788
 kinetic energy error for atom=    0.1156 (will be added to EATOM!!)
 
 
 POSCAR: Na Mg Mn  O                             
  positions in cartesian coordinates
  No initial velocities read in

 METAGGA = SCAN     LMAXTAU =  6    LMIXTAU =  F

 exchange correlation table for  LEXCH =        8
   RHO(1)=    0.500       N(1)  =     2000
   RHO(2)=  100.500       N(2)  =     4000

 VTST: version 3.2, (02/03/18)

 CHAIN: initializing optimizer
 
 OPT: Using VASP Dynamics algorithm
 CHAIN: Read ICHAIN            0
 
 POSCAR: Na Mg Mn  O                             
  positions in cartesian coordinates
  No initial velocities read in
 


--------------------------------------------------------------------------------------------------------


 ion  position               nearest neighbor table
   1  0.012  0.438  0.259-  75 2.20  64 2.23  66 2.25  37 2.92  39 2.95
   2  0.596  0.995  0.759-  59 2.24  49 2.29  84 2.33  81 2.38  29 2.74  31 2.94
   3  0.969  0.188  0.750-  61 2.16  58 2.28  60 2.36  57 2.37  30 2.86  32 2.86
   4  0.912  0.483  0.761-  71 2.33
   5  0.254  0.973  0.249-  67 2.28  51 2.36
   6  0.630  0.206  0.255-  62 2.27  52 2.28  43 2.33  53 2.34
   7  0.453  0.191  0.734-  46 2.12  45 2.26  28 2.78
   8  0.247  0.669  0.745-  80 2.31  70 2.32
   9  0.142  0.214  0.252-  50 2.23  55 2.31  41 2.35
  10  0.907  0.781  0.247-  67 2.28  74 2.35  65 2.37  76 2.38
  11  0.553  0.480  0.257-  87 2.18  52 2.28  35 2.77
  12  0.398  0.483  0.755-  85 2.29  83 2.32
  13  0.746  0.685  0.754-  82 2.26  85 2.33
  14  0.097  0.909  0.737-  44 2.24  69 2.25  72 2.29  47 2.38  27 2.92
  15  0.412  0.674  0.242-  77 2.25  79 2.31  38 2.80
  16  0.757  0.995  0.252-  53 2.24  63 2.31
  17  0.741  0.308  0.000-  49 1.94  60 2.05  43 2.06  53 2.08  66 2.11  71 2.22  29 2.69  26 2.77
                            30 2.85
  18  0.755  0.332  0.510-  68 1.99  46 2.02  57 2.03  62 2.05  75 2.12  52 2.17  31 2.82  32 2.83

  19  0.253  0.324  0.991-  78 2.00  48 2.00  61 2.05  41 2.08  83 2.11  55 2.12  33 2.81
  20  0.244  0.329  0.516-  58 1.89  80 2.00  45 2.02  64 2.04  32 2.83  39 2.85
  21  0.258  0.839  0.006-  42 2.01  47 2.01  67 2.02  77 2.08  84 2.11  73 2.11  26 2.74  25 2.80

  22  0.256  0.833  0.503-  44 1.92  51 2.04  76 2.05  86 2.05  70 2.09  81 2.15  39 2.84
  23  0.750  0.823  0.987-  54 2.04  59 2.05  85 2.09  79 2.13  65 2.13  72 2.15
  24  0.757  0.835  0.497-  69 1.96  88 2.02  56 2.05  82 2.07  74 2.14  63 2.15
  25  0.088  0.993  0.997-  72 1.87  47 1.90  67 1.92  61 1.94  41 1.94  54 1.99  21 2.80  26 2.89
                            30 2.91  34 3.02
  26  0.422  0.155  0.009-  43 1.90  42 1.90  41 1.91  47 1.93  48 1.94  49 2.01  21 2.74  17 2.77
                            29 2.83  33 2.83  25 2.89
  27  0.087  0.999  0.491-  76 1.89  50 1.90  58 1.90  44 1.91  69 1.91  63 1.98  36 2.86  28 2.87
                            14 2.92  32 2.95
  28  0.418  0.166  0.488-  52 1.89  50 1.90  46 1.92  44 1.93  51 1.93  45 1.95   7 2.78  31 2.84
                            27 2.87  35 2.93
  29  0.591  0.999  0.004-  53 1.85  42 1.86  59 1.88  49 1.90  79 1.91  84 2.03  17 2.69   2 2.74
                            26 2.83  30 2.84  38 2.94
  30  0.919  0.158  0.003-  60 1.87  61 1.88  55 1.92  59 1.92  54 1.95  53 2.00  29 2.84  17 2.85
                             3 2.86  25 2.91  37 2.91
  31  0.586  0.007  0.498-  51 1.89  46 1.89  88 1.90  62 1.97  81 1.97  56 2.00  18 2.82  28 2.84
                            32 2.89   2 2.94  40 2.97
  32  0.919  0.170  0.498-  56 1.81  62 1.90  58 1.90  57 1.95  63 1.97  64 2.03  18 2.83  20 2.83
                             3 2.86  31 2.89  39 2.93  27 2.95
  33  0.577  0.481  0.992-  48 1.87  71 1.92  85 1.93  65 1.94  43 1.98  78 1.99  19 2.81  26 2.83
                            34 2.92  38 2.99
  34  0.913  0.645  0.005-  66 1.84  65 1.89  73 1.89  71 1.99  72 2.04  67 2.12  37 2.81  33 2.92
                            25 3.02
  35  0.593  0.502  0.502-  74 1.82  82 1.88  87 1.90  68 1.91  45 1.91  52 1.99  11 2.77  36 2.85
                            40 2.87  28 2.93
  36  0.921  0.669  0.497-  75 1.88  76 1.89  68 1.92  74 1.92  69 1.94  70 1.99  35 2.85  27 2.86
                            39 2.92
  37  0.085  0.493  0.005-  77 1.91  83 1.93  66 1.95  55 1.97  73 2.04  60 2.04  34 2.81  38 2.85
                            30 2.91   1 2.92
  38  0.413  0.661  0.992-  84 1.88  77 1.92  85 1.93  79 1.94  78 1.95  83 1.97  15 2.80  37 2.85
                            29 2.94  33 2.99
  39  0.094  0.507  0.513-  80 1.83  86 1.89  70 1.90  75 1.90  57 1.96  64 1.98  22 2.84  20 2.85
                            40 2.88  36 2.92  32 2.93   1 2.95
  40  0.426  0.665  0.512-  81 1.92  80 1.93  88 1.93  86 1.94  87 1.94  82 1.96  35 2.87  39 2.88
                            31 2.97
  41  0.253  0.150  0.093-  26 1.91  25 1.94  19 2.08   9 2.35
  42  0.439  0.002  0.096-  29 1.86  26 1.90  21 2.01
  43  0.575  0.323  0.098-  26 1.90  33 1.98  17 2.06   6 2.33
  44  0.253  0.004  0.579-  27 1.91  22 1.92  28 1.93  14 2.24
  45  0.432  0.332  0.586-  35 1.91  28 1.95  20 2.02   7 2.26
  46  0.568  0.156  0.589-  31 1.89  28 1.92  18 2.02   7 2.12
  47  0.257  0.008  0.909-  25 1.90  26 1.93  21 2.01  14 2.38
  48  0.424  0.313  0.907-  33 1.87  26 1.94  19 2.00
  49  0.580  0.147  0.905-  29 1.90  17 1.94  26 2.01   2 2.29
  50  0.251  0.145  0.395-  28 1.90  27 1.90   9 2.23
  51  0.427  0.002  0.403-  31 1.89  28 1.93  22 2.04   5 2.36
  52  0.576  0.332  0.401-  28 1.89  35 1.99  18 2.17  11 2.28   6 2.28
  53  0.745  0.138  0.104-  29 1.85  30 2.00  17 2.08  16 2.24   6 2.34
  54  0.918  0.990  0.090-  30 1.95  25 1.99  23 2.04
  55  0.076  0.321  0.096-  30 1.92  37 1.97  19 2.12   9 2.31
  56  0.766  0.019  0.585-  32 1.81  31 2.00  24 2.05
  57  0.931  0.333  0.601-  32 1.95  39 1.96  18 2.03   3 2.37
  58  0.074  0.152  0.582-  20 1.89  27 1.90  32 1.90   3 2.28
  59  0.750  0.007  0.909-  29 1.88  30 1.92  23 2.05   2 2.24
  60  0.920  0.313  0.909-  30 1.87  37 2.04  17 2.05   3 2.36
  61  0.067  0.146  0.907-  30 1.88  25 1.94  19 2.05   3 2.16
  62  0.758  0.166  0.405-  32 1.90  31 1.97  18 2.05   6 2.27
  63  0.934  0.020  0.394-  32 1.97  27 1.98  24 2.15  16 2.31
  64  0.091  0.347  0.407-  39 1.98  32 2.03  20 2.04   1 2.23
  65  0.744  0.638  0.086-  34 1.89  33 1.94  23 2.13  10 2.37
  66  0.919  0.494  0.095-  34 1.84  37 1.95  17 2.11   1 2.25
  67  0.085  0.838  0.100-  25 1.92  21 2.02  34 2.12   5 2.28  10 2.28
  68  0.760  0.510  0.591-  35 1.91  36 1.92  18 1.99
  69  0.928  0.840  0.585-  27 1.91  36 1.94  24 1.96  14 2.25
  70  0.076  0.658  0.601-  39 1.90  36 1.99  22 2.09   8 2.32
  71  0.746  0.499  0.898-  33 1.92  34 1.99  17 2.22   4 2.33
  72  0.945  0.828  0.905-  25 1.87  34 2.04  23 2.15  14 2.29
  73  0.076  0.661  0.908-  34 1.89  37 2.04  21 2.11
  74  0.746  0.641  0.407-  35 1.82  36 1.92  24 2.14  10 2.35
  75  0.941  0.515  0.418-  36 1.88  39 1.90  18 2.12   1 2.20
  76  0.080  0.831  0.408-  27 1.89  36 1.89  22 2.05  10 2.38
  77  0.253  0.653  0.091-  37 1.91  38 1.92  21 2.08  15 2.25
  78  0.417  0.498  0.085-  38 1.95  33 1.99  19 2.00
  79  0.571  0.824  0.089-  29 1.91  38 1.94  23 2.13  15 2.31
  80  0.251  0.509  0.598-  39 1.83  40 1.93  20 2.00   8 2.31
  81  0.441  0.836  0.601-  40 1.92  31 1.97  22 2.15   2 2.38
  82  0.590  0.655  0.598-  35 1.88  40 1.96  24 2.07  13 2.26
  83  0.241  0.501  0.899-  37 1.93  38 1.97  19 2.11  12 2.32
  84  0.427  0.826  0.903-  38 1.88  29 2.03  21 2.11   2 2.33
  85  0.564  0.638  0.901-  38 1.93  33 1.93  23 2.09  12 2.29  13 2.33
  86  0.257  0.653  0.417-  39 1.89  40 1.94  22 2.05
  87  0.442  0.516  0.411-  35 1.90  40 1.94  11 2.18
  88  0.577  0.835  0.417-  31 1.90  40 1.93  24 2.02
 
  LATTYP: Found a hexagonal cell.
 ALAT       =    10.0190000534
 C/A-ratio  =     1.1196726572
  
  Lattice vectors:
  
 A1 = (  10.0190000534,   0.0000000000,   0.0000000000)
 A2 = (  -5.0095000267,   8.6767085668,   0.0000000000)
 A3 = (   0.0000000000,   0.0000000000,  11.2180004120)


Analysis of symmetry for initial positions (statically):
=====================================================================
 Subroutine PRICEL returns:
 Original cell was already a primitive cell.
 

 Routine SETGRP: Setting up the symmetry group for a 
 hexagonal supercell.


 Subroutine GETGRP returns: Found  1 space group operations
 (whereof  1 operations were pure point group operations)
 out of a pool of 24 trial point group operations.


The static configuration has the point symmetry C_1 .


Analysis of symmetry for dynamics (positions and initial velocities):
=====================================================================
 Subroutine PRICEL returns:
 Original cell was already a primitive cell.
 

 Routine SETGRP: Setting up the symmetry group for a 
 hexagonal supercell.


 Subroutine GETGRP returns: Found  1 space group operations
 (whereof  1 operations were pure point group operations)
 out of a pool of 24 trial point group operations.


The dynamic configuration has the point symmetry C_1 .


Analysis of structural, dynamic, and magnetic symmetry:
=====================================================================
 Subroutine PRICEL returns:
 Original cell was already a primitive cell.
 

 Routine SETGRP: Setting up the symmetry group for a 
 hexagonal supercell.


 Subroutine GETGRP returns: Found  1 space group operations
 (whereof  1 operations were pure point group operations)
 out of a pool of 24 trial point group operations.


The magnetic configuration has the point symmetry C_1 .


 Subroutine INISYM returns: Found  1 space group operations
 (whereof  1 operations are pure point group operations),
 and found     1 'primitive' translations

 
 

Automatic generation of k-mesh.
 generate k-points for:    2    2    2
Space group operators:
 irot       det(A)        alpha          n_x          n_y          n_z        tau_x        tau_y        tau_z
    1     1.000000     0.000000     1.000000     0.000000     0.000000     0.000000     0.000000     0.000000
 
 Subroutine IBZKPT returns following result:
 ===========================================
 
 Found      8 irreducible k-points:
 
 Following reciprocal coordinates:
            Coordinates               Weight
  0.000000  0.000000  0.000000      1.000000
  0.500000 -0.000000 -0.000000      1.000000
  0.000000  0.500000  0.000000      1.000000
  0.500000  0.500000 -0.000000      1.000000
  0.000000  0.000000  0.500000      1.000000
  0.500000 -0.000000  0.500000      1.000000
  0.000000  0.500000  0.500000      1.000000
  0.500000  0.500000  0.500000      1.000000
 
 Following cartesian coordinates:
            Coordinates               Weight
  0.000000  0.000000  0.000000      1.000000
  0.049905  0.028813 -0.000000      1.000000
  0.000000  0.057626  0.000000      1.000000
  0.049905  0.086438 -0.000000      1.000000
  0.000000  0.000000  0.044571      1.000000
  0.049905  0.028813  0.044571      1.000000
  0.000000  0.057626  0.044571      1.000000
  0.049905  0.086438  0.044571      1.000000
 


--------------------------------------------------------------------------------------------------------




 Dimension of arrays:
   k-points           NKPTS =      8   k-points in BZ     NKDIM =      8   number of bands    NBANDS=    480
   number of dos      NEDOS =    301   number of ions     NIONS =     88
   non local maximal  LDIM  =      6   non local SUM 2l+1 LMDIM =     18
   total plane-waves  NPLWV = 140000
   max r-space proj   IRMAX =   1632   max aug-charges    IRDMAX=   4555
   dimension x,y,z NGX =    50 NGY =   50 NGZ =   56
   dimension x,y,z NGXF=   100 NGYF=  100 NGZF=  112
   support grid    NGXF=   100 NGYF=  100 NGZF=  112
   ions per type =              16   8  16  48
   NGX,Y,Z   is equivalent  to a cutoff of   8.30,  8.30,  8.30 a.u.
   NGXF,Y,Z  is equivalent  to a cutoff of  16.59, 16.59, 16.60 a.u.

 SYSTEM =  unknown system                          
 POSCAR =  Na Mg Mn  O                             

 Startparameter for this run:
   NWRITE =      2    write-flag & timer
   PREC   = normal    normal or accurate (medium, high low for compatibility)
   ISTART =      0    job   : 0-new  1-cont  2-samecut
   ICHARG =      1    charge: 1-file 2-atom 10-const
   ISPIN  =      2    spin polarized calculation?
   LNONCOLLINEAR =      F non collinear calculations
   LSORBIT =      F    spin-orbit coupling
   INIWAV =      1    electr: 0-lowe 1-rand  2-diag
   LASPH  =      T    aspherical Exc in radial PAW
   METAGGA=      F    non-selfconsistent MetaGGA calc.

 Electronic Relaxation 1
   ENCUT  =  400.0 eV  29.40 Ry    5.42 a.u.  16.34 16.34 18.29*2*pi/ulx,y,z
   ENINI  =  400.0     initial cutoff
   ENAUG  =  758.8 eV  augmentation charge cutoff
   NELM   =    200;   NELMIN=  6; NELMDL=-12     # of ELM steps 
   EDIFF  = 0.1E-04   stopping-criterion for ELM
   LREAL  =      T    real-space projection
   NLSPLINE    = F    spline interpolate recip. space projectors
   LCOMPAT=      F    compatible to vasp.4.4
   GGA_COMPAT  = T    GGA compatible to vasp.4.4-vasp.4.6
   LMAXPAW     = -100 max onsite density
   LMAXMIX     =    4 max onsite mixed and CHGCAR
   VOSKOWN=      0    Vosko Wilk Nusair interpolation
   ROPT   =   -0.00050  -0.00050  -0.00050  -0.00050
 Ionic relaxation
   EDIFFG = 0.1E-03   stopping-criterion for IOM
   NSW    =      1    number of steps for IOM
   NBLOCK =      1;   KBLOCK =      1    inner block; outer block 
   IBRION =     -1    ionic relax: 0-MD 1-quasi-New 2-CG
   NFREE  =      0    steps in history (QN), initial steepest desc. (CG)
   ISIF   =      2    stress and relaxation
   IWAVPR =     10    prediction:  0-non 1-charg 2-wave 3-comb
   ISYM   =      2    0-nonsym 1-usesym 2-fastsym
   LCORR  =      T    Harris-Foulkes like correction to forces

   POTIM  = 0.5000    time-step for ionic-motion
   TEIN   =    0.0    initial temperature
   TEBEG  =    0.0;   TEEND  =   0.0 temperature during run
   SMASS  =  -3.00    Nose mass-parameter (am)
   estimated Nose-frequenzy (Omega)   =  0.10E-29 period in steps =****** mass=  -0.229E-26a.u.
   SCALEE = 1.0000    scale energy and forces
   NPACO  =    256;   APACO  = 16.0  distance and # of slots for P.C.
   PSTRESS=    0.0 pullay stress

  Mass of Ions in am
   POMASS =  22.99 24.30 54.94 16.00
  Ionic Valenz
   ZVAL   =   7.00  8.00 13.00  6.00
  Atomic Wigner-Seitz radii
   RWIGS  =  -1.00 -1.00 -1.00 -1.00
  virtual crystal weights 
   VCA    =   1.00  1.00  1.00  1.00
   NELECT =     672.0000    total number of electrons
   NUPDOWN=      48.0000    fix difference up-down

 DOS related values:
   EMIN   =  10.00;   EMAX   =-10.00  energy-range for DOS
   EFERMI =   0.00
   ISMEAR =     0;   SIGMA  =   0.05  broadening in eV -4-tet -1-fermi 0-gaus

 Electronic relaxation 2 (details)
   IALGO  =     48    algorithm
   LDIAG  =      T    sub-space diagonalisation (order eigenvalues)
   LSUBROT=      F    optimize rotation matrix (better conditioning)
   TURBO    =      0    0=normal 1=particle mesh
   IRESTART =      0    0=no restart 2=restart with 2 vectors
   NREBOOT  =      0    no. of reboots
   NMIN     =      0    reboot dimension
   EREF     =   0.00    reference energy to select bands
   IMIX   =      4    mixing-type and parameters
     AMIX     =   0.40;   BMIX     =  1.00
     AMIX_MAG =   1.60;   BMIX_MAG =  1.00
     AMIN     =   0.10
     WC   =   100.;   INIMIX=   1;  MIXPRE=   1;  MAXMIX= -45

 Intra band minimization:
   WEIMIN = 0.0000     energy-eigenvalue tresh-hold
   EBREAK =  0.52E-08  absolut break condition
   DEPER  =   0.30     relativ break condition  

   TIME   =   0.40     timestep for ELM

  volume/ion in A,a.u.               =      11.08        74.78
  Fermi-wavevector in a.u.,A,eV,Ry     =   1.445993  2.732531 28.448379  2.090897
  Thomas-Fermi vector in A             =   2.564112
 
 Write flags
   LWAVE        =      F    write WAVECAR
   LDOWNSAMPLE  =      F    k-point downsampling of WAVECAR
   LCHARG       =      F    write CHGCAR
   LVTOT        =      F    write LOCPOT, total local potential
   LVHAR        =      F    write LOCPOT, Hartree potential only
   LELF         =      F    write electronic localiz. function (ELF)
   LORBIT       =     11    0 simple, 1 ext, 2 COOP (PROOUT), +10 PAW based schemes


 Dipole corrections
   LMONO  =      F    monopole corrections only (constant potential shift)
   LDIPOL =      F    correct potential (dipole corrections)
   IDIPOL =      0    1-x, 2-y, 3-z, 4-all directions 
   EPSILON=  1.0000000 bulk dielectric constant

 Exchange correlation treatment:
   GGA     =    --    GGA type
   LEXCH   =     8    internal setting for exchange type
   VOSKOWN=      0    Vosko Wilk Nusair interpolation
   LHFCALC =     F    Hartree Fock is set to
   LHFONE  =     F    Hartree Fock one center treatment
   AEXX    =    0.0000 exact exchange contribution

 Linear response parameters
   LEPSILON=     F    determine dielectric tensor
   LRPA    =     F    only Hartree local field effects (RPA)
   LNABLA  =     F    use nabla operator in PAW spheres
   LVEL    =     F    velocity operator in full k-point grid
   LINTERFAST=   F  fast interpolation
   KINTER  =     0    interpolate to denser k-point grid
   CSHIFT  =0.1000    complex shift for real part using Kramers Kronig
   OMEGAMAX=  -1.0    maximum frequency
   DEG_THRESHOLD= 0.2000000E-02 threshold for treating states as degnerate
   RTIME   =   -0.100 relaxation time in fs
  (WPLASMAI=    0.000 imaginary part of plasma frequency in eV, 0.658/RTIME)
   DFIELD  = 0.0000000 0.0000000 0.0000000 field for delta impulse in time
 
 Orbital magnetization related:
   ORBITALMAG=     F  switch on orbital magnetization
   LCHIMAG   =     F  perturbation theory with respect to B field
   DQ        =  0.001000  dq finite difference perturbation B field
   LLRAUG    =     F  two centre corrections for induced B field



--------------------------------------------------------------------------------------------------------


 Static calculation
 charge density and potential will be updated during run
 spin polarized calculation
 RMM-DIIS sequential band-by-band
 perform sub-space diagonalisation
    before iterative eigenvector-optimisation
 modified Broyden-mixing scheme, WC =      100.0
 initial mixing is a Kerker type mixing with AMIX =  0.4000 and BMIX =      1.0000
 Hartree-type preconditioning will be used
 using additional bands          144
 real space projection scheme for non local part
 use partial core corrections
 calculate Harris-corrections to forces 
   (improved forces if not selfconsistent)
 use gradient corrections 
 use of overlap-Matrix (Vanderbilt PP)
 Gauss-broadening in eV      SIGMA  =   0.05


--------------------------------------------------------------------------------------------------------


  energy-cutoff  :      400.00
  volume of cell :      975.20
      direct lattice vectors                 reciprocal lattice vectors
    10.019000053  0.000000000  0.000000000     0.099810360  0.057625538 -0.000000000
    -5.009500027  8.676708567  0.000000000     0.000000000  0.115251076  0.000000000
     0.000000000  0.000000000 11.218000412     0.000000000  0.000000000  0.089142446

  length of vectors
    10.019000053 10.019000053 11.218000412     0.115251076  0.115251076  0.089142446


 
 k-points in units of 2pi/SCALE and weight: read from INCAR                         
   0.00000000  0.00000000  0.00000000       0.125
   0.04990518  0.02881277 -0.00000000       0.125
   0.00000000  0.05762554  0.00000000       0.125
   0.04990518  0.08643831 -0.00000000       0.125
   0.00000000  0.00000000  0.04457122       0.125
   0.04990518  0.02881277  0.04457122       0.125
   0.00000000  0.05762554  0.04457122       0.125
   0.04990518  0.08643831  0.04457122       0.125
 
 k-points in reciprocal lattice and weights: read from INCAR                         
   0.00000000  0.00000000  0.00000000       0.125
   0.50000000 -0.00000000 -0.00000000       0.125
   0.00000000  0.50000000  0.00000000       0.125
   0.50000000  0.50000000 -0.00000000       0.125
   0.00000000  0.00000000  0.50000000       0.125
   0.50000000 -0.00000000  0.50000000       0.125
   0.00000000  0.50000000  0.50000000       0.125
   0.50000000  0.50000000  0.50000000       0.125
 
 position of ions in fractional coordinates (direct lattice) 
   0.01211323  0.43812005  0.25865572
   0.59554274  0.99497209  0.75933943
   0.96882987  0.18820369  0.75036813
   0.91157865  0.48285788  0.76051165
   0.25381368  0.97314288  0.24912639
   0.63009153  0.20642521  0.25538063
   0.45275860  0.19069542  0.73369314
   0.24651773  0.66856194  0.74510160
   0.14157334  0.21407789  0.25214208
   0.90684495  0.78089223  0.24669191
   0.55293580  0.48012051  0.25735068
   0.39835723  0.48293066  0.75535119
   0.74617139  0.68507660  0.75403813
   0.09690858  0.90925776  0.73711711
   0.41186812  0.67410453  0.24169637
   0.75672060  0.99476669  0.25180245
   0.74105082  0.30841764  0.00047778
   0.75489426  0.33150128  0.50995719
   0.25328799  0.32376332  0.99054439
   0.24443505  0.32885973  0.51605632
   0.25766211  0.83929867  0.00566051
   0.25558826  0.83299905  0.50286948
   0.74969263  0.82277282  0.98729542
   0.75662737  0.83490761  0.49672578
   0.08830082  0.99256532  0.99741303
   0.42157787  0.15528469  0.00908299
   0.08732725  0.99860102  0.49077909
   0.41835651  0.16561810  0.48760918
   0.59106842  0.99890758  0.00361023
   0.91883454  0.15810027  0.00271881
   0.58598595  0.00659253  0.49769030
   0.91882325  0.16991120  0.49800854
   0.57711602  0.48096925  0.99184799
   0.91326729  0.64469608  0.00506994
   0.59323964  0.50220541  0.50228649
   0.92108566  0.66926185  0.49704224
   0.08497524  0.49320430  0.00470358
   0.41301825  0.66086811  0.99231301
   0.09433392  0.50650197  0.51254946
   0.42600289  0.66549775  0.51159207
   0.25305347  0.15035886  0.09323498
   0.43930857  0.00232011  0.09641736
   0.57508224  0.32275257  0.09831610
   0.25308789  0.00390609  0.57895434
   0.43161532  0.33227346  0.58644230
   0.56799071  0.15598542  0.58872613
   0.25655408  0.00795396  0.90864678
   0.42429891  0.31286172  0.90668565
   0.58018510  0.14733698  0.90459080
   0.25097509  0.14512416  0.39456675
   0.42742151  0.00214116  0.40309590
   0.57621573  0.33185856  0.40075859
   0.74490825  0.13843614  0.10364771
   0.91763971  0.98960222  0.09009092
   0.07634813  0.32105838  0.09647085
   0.76621962  0.01856361  0.58509001
   0.93101117  0.33282782  0.60108484
   0.07445180  0.15199773  0.58160454
   0.75024826  0.00749921  0.90859330
   0.92014877  0.31257821  0.90868244
   0.06711565  0.14575343  0.90747010
   0.75845613  0.16647211  0.40481279
   0.93381493  0.01978677  0.39413174
   0.09128684  0.34651619  0.40665090
   0.74432056  0.63815904  0.08598110
   0.91942364  0.49414821  0.09522909
   0.08509313  0.83771397  0.10001337
   0.76005482  0.51043203  0.59075412
   0.92818135  0.83989798  0.58501246
   0.07625720  0.65812975  0.60069707
   0.74561080  0.49941403  0.89756638
   0.94523128  0.82781160  0.90457297
   0.07568160  0.66113665  0.90831696
   0.74590549  0.64142871  0.40689337
   0.94131962  0.51472629  0.41765643
   0.08028234  0.83124839  0.40787572
   0.25309101  0.65255851  0.09137814
   0.41657165  0.49801604  0.08485728
   0.57125522  0.82449467  0.08874639
   0.25112601  0.50907438  0.59845425
   0.44077015  0.83550576  0.60077997
   0.59049843  0.65515396  0.59774289
   0.24086179  0.50137215  0.89850237
   0.42704588  0.82636405  0.90296841
   0.56362939  0.63809219  0.90123905
   0.25742126  0.65279362  0.41730877
   0.44151211  0.51639282  0.41052147
   0.57675045  0.83544122  0.41673202
 
 position of ions in cartesian coordinates  (Angst):
  -2.07339995  3.80144000  2.90160000
   0.98243005  8.63308287  8.51827000
   8.76390013  1.63298857  8.41763000
   6.71423000  4.18961713  8.53142000
  -2.33199995  8.44367713  2.79470000
   5.27879992  1.79109143  2.86486000
   3.58089976  1.65460857  8.23057000
  -0.87929995  5.80091713  8.35855000
   0.34600013  1.85749143  2.82853000
   5.17379992  6.77557430  2.76739000
   3.13470011  4.16586573  2.88696000
   1.57189992  4.19024857  8.47353000
   4.04399995  5.94421000  8.45880000
  -3.58399965  7.88936457  8.26898000
   0.74958003  5.84900857  2.71135000
   2.59829992  8.63130067  2.82472000
   5.87957000  2.67605000  0.00535971
   5.90263000  2.87634000  5.72070000
   0.91580000  2.80920000 11.11192741
   0.80157200  2.85342000  5.78912000
  -1.62295000  7.28235000  0.06349959
  -1.61217000  7.22769000  5.64119000
   3.38949000  7.13896000 11.07548041
   3.39818000  7.24425000  5.57227000
  -4.08757005  8.61220000 11.18897981
   3.44589000  1.34736000  0.10189300
  -4.12756005  8.66457000  5.50556000
   3.36185000  1.43702000  5.47000000
   0.91788700  8.66723000  0.04049959
   8.41380000  1.37179000  0.03049959
   5.83796803  0.05720143  5.58309000
   8.35452000  1.47427000  5.58666000
   3.37271000  4.17323000 11.12655121
   5.92042000  5.59384000  0.05687460
   3.42787000  4.35749000  5.63465000
   5.87569000  5.80699000  5.57582000
  -1.61934005  4.27939000  0.05276480
   0.82741100  5.73416000 11.13176781
  -1.59219005  4.39477000  5.74978000
   0.93431200  5.77433000  5.73904000
   1.78212000  1.30462000  1.04591000
   4.38981000  0.02013090  1.08161000
   4.14492000  2.80043000  1.10291000
   2.51612000  0.03389200  6.49471000
   2.65983000  2.88304000  6.57871000
   4.90929000  1.35344000  6.60433000
   2.53057000  0.06901420 10.19320000
   2.68377000  2.71461000 10.17120000
   5.07479000  1.27840000 10.14770000
   1.78752000  1.25920000  4.42625000
   4.27161000  0.01857820  4.52193000
   4.11066000  2.87944000  4.49571000
   6.76974000  1.20117000  1.16272000
   4.23641997  8.58649007  1.01064000
  -0.84341005  2.78573000  1.08221000
   7.58376000  0.16107100  6.56354000
   7.66050000  2.88785000  6.74297000
  -0.01550005  1.31884000  6.52444000
   7.47917000  0.06506850 10.19260000
   7.65311000  2.71215000 10.19360000
  -0.05772005  1.26466000 10.18000000
   6.76503000  1.44443000  4.54119000
   9.25677000  0.17168400  4.42137000
  -0.82127005  3.00662000  4.56181000
   4.26049000  5.53712000  0.96453600
   6.73627000  4.28758000  1.06828000
  -3.34398005  7.26860000  1.12195000
   5.05798000  4.42887000  6.62708000
   5.09198000  7.28755000  6.56267000
  -2.53288005  5.71040000  6.73862000
   4.96846000  4.33327000 10.06890000
   5.32335000  7.18268000 10.14750000
  -2.55371005  5.73649000 10.18950000
   4.25999000  5.56549000  4.56453000
   6.85256000  4.46613000  4.68527000
  -3.35979005  7.21250000  4.57555000
  -0.73327300  5.66206000  1.02508000
   1.67882000  4.32114000  0.95192900
   1.59310000  7.15390000  0.99555700
  -0.03417660  4.41709000  6.71346000
   0.23061000  7.24944000  6.73955000
   2.63421000  5.68458000  6.70548000
  -0.09842950  4.35026000 10.07940000
   0.13890200  7.17012000 10.12950000
   2.45048000  5.53654000 10.11010000
  -0.69106600  5.66410000  4.68137000
   1.83664000  4.48059000  4.60523000
   1.59332000  7.24888000  4.67490000
 


--------------------------------------------------------------------------------------------------------


 k-point  1 :   0.0000 0.0000 0.0000  plane waves:   17725
 k-point  2 :   0.5000-0.0000-0.0000  plane waves:   17736
 k-point  3 :   0.0000 0.5000 0.0000  plane waves:   17736
 k-point  4 :   0.5000 0.5000-0.0000  plane waves:   17736
 k-point  5 :   0.0000 0.0000 0.5000  plane waves:   17676
 k-point  6 :   0.5000-0.0000 0.5000  plane waves:   17700
 k-point  7 :   0.0000 0.5000 0.5000  plane waves:   17700
 k-point  8 :   0.5000 0.5000 0.5000  plane waves:   17700

 maximum and minimum number of plane-waves per node :     17736    17676

 maximum number of plane-waves:     17736
 maximum index in each direction: 
   IXMAX=   16   IYMAX=   16   IZMAX=   18
   IXMIN=  -16   IYMIN=  -16   IZMIN=  -18


 serial   3D FFT for wavefunctions
 parallel 3D FFT for charge:
    minimum data exchange during FFTs selected (reduces bandwidth)


 total amount of memory used by VASP MPI-rank0    94426. kBytes
=======================================================================

   base      :      30000. kBytes
   nonlr-proj:      13667. kBytes
   fftplans  :       1275. kBytes
   grid      :      22786. kBytes
   one-center:       2737. kBytes
   wavefun   :      23961. kBytes
 
     INWAV:  cpu time    0.0000: real time    0.0001
 Broyden mixing: mesh for mixing (old mesh)
   NGX = 33   NGY = 33   NGZ = 37
  (NGX  =100   NGY  =100   NGZ  =112)
  gives a total of  40293 points

 initial charge density was supplied:
 charge density of overlapping atoms calculated
 number of electron     672.0000000 magnetization      48.0000000
 keeping initial charge density in first step


--------------------------------------------------------------------------------------------------------


 Maximum index for non-local projection operator         1550
 Maximum index for augmentation-charges          512 (set IRDMAX)


--------------------------------------------------------------------------------------------------------


 First call to EWALD:  gamma=   0.179
 Maximum number of real-space cells 3x 3x 2
 Maximum number of reciprocal cells 3x 3x 3

    FEWALD:  cpu time    0.0027: real time    0.0027


--------------------------------------- Iteration      1(   1)  ---------------------------------------


    POTLOK:  cpu time    0.1914: real time    0.1928
    SETDIJ:  cpu time    4.6586: real time    4.6602
    EDDIAG:  cpu time    4.4143: real time    4.8230
  RMM-DIIS:  cpu time    9.1342: real time    9.1413
    ORTHCH:  cpu time    1.1711: real time    1.2531
       DOS:  cpu time    0.0024: real time    0.0025
    --------------------------------------------
      LOOP:  cpu time   19.5721: real time   20.0730

 eigenvalue-minimisations  :  7680
 total energy-change (2. order) : 0.1596473E+04  (-0.3495824E+05)
 number of electron     672.0000000 magnetization      48.0000000
 augmentation part      672.0000000 magnetization      48.0000000

 Free energy of the ion-electron system (eV)
  ---------------------------------------------------
  alpha Z        PSCENC =      2652.81237852
  Ewald energy   TEWEN  =    -41906.43950404
  -Hartree energ DENC   =    -25709.66947776
  -exchange      EXHF   =         0.00000000
  -V(xc)+E(xc)   XCENC  =      3605.70595632
  PAW double counting   =     55594.23204139   -59034.67079123
  entropy T*S    EENTRO =        -0.05374307
  eigenvalues    EBANDS =     -7467.64210551
  atomic energy  EATOM  =     73862.19814772
  Solvation  Ediel_sol  =         0.00000000
  ---------------------------------------------------
  free energy    TOTEN  =      1596.47290234 eV

  energy without entropy =     1596.52664541  energy(sigma->0) =     1596.49977387


--------------------------------------------------------------------------------------------------------




--------------------------------------- Iteration      1(   2)  ---------------------------------------


    EDDIAG:  cpu time    4.4557: real time    4.8817
  RMM-DIIS:  cpu time    9.1246: real time    9.1358
    ORTHCH:  cpu time    1.1724: real time    1.2554
       DOS:  cpu time    0.0023: real time    0.0023
    --------------------------------------------
      LOOP:  cpu time   14.7550: real time   15.2752

 eigenvalue-minimisations  :  7680
 total energy-change (2. order) :-0.2327225E+04  (-0.8029801E+04)
 number of electron     672.0000000 magnetization      48.0000000
 augmentation part      672.0000000 magnetization      48.0000000

 Free energy of the ion-electron system (eV)
  ---------------------------------------------------
  alpha Z        PSCENC =      2652.81237852
  Ewald energy   TEWEN  =    -41906.43950404
  -Hartree energ DENC   =    -25709.66947776
  -exchange      EXHF   =         0.00000000
  -V(xc)+E(xc)   XCENC  =      3605.70595632
  PAW double counting   =     55594.23204139   -59034.67079123
  entropy T*S    EENTRO =        -0.04236187
  eigenvalues    EBANDS =     -9794.87835906
  atomic energy  EATOM  =     73862.19814772
  Solvation  Ediel_sol  =         0.00000000
  ---------------------------------------------------
  free energy    TOTEN  =      -730.75197001 eV

  energy without entropy =     -730.70960814  energy(sigma->0) =     -730.73078907


--------------------------------------------------------------------------------------------------------




--------------------------------------- Iteration      1(   3)  ---------------------------------------


    EDDIAG:  cpu time    4.4089: real time    4.8353
  RMM-DIIS:  cpu time    9.1423: real time    9.1526
    ORTHCH:  cpu time    1.1717: real time    1.2554
       DOS:  cpu time    0.0021: real time    0.0021
    --------------------------------------------
      LOOP:  cpu time   14.7250: real time   15.2454

 eigenvalue-minimisations  :  7680
 total energy-change (2. order) : 0.8435579E+02  (-0.1421151E+04)
 number of electron     672.0000000 magnetization      48.0000000
 augmentation part      672.0000000 magnetization      48.0000000

 Free energy of the ion-electron system (eV)
  ---------------------------------------------------
  alpha Z        PSCENC =      2652.81237852
  Ewald energy   TEWEN  =    -41906.43950404
  -Hartree energ DENC   =    -25709.66947776
  -exchange      EXHF   =         0.00000000
  -V(xc)+E(xc)   XCENC  =      3605.70595632
  PAW double counting   =     55594.23204139   -59034.67079123
  entropy T*S    EENTRO =        -0.04119764
  eigenvalues    EBANDS =     -9710.52373340
  atomic energy  EATOM  =     73862.19814772
  Solvation  Ediel_sol  =         0.00000000
  ---------------------------------------------------
  free energy    TOTEN  =      -646.39618013 eV

  energy without entropy =     -646.35498249  energy(sigma->0) =     -646.37558131


--------------------------------------------------------------------------------------------------------




--------------------------------------- Iteration      1(   4)  ---------------------------------------


    EDDIAG:  cpu time    4.4193: real time    4.8481
  RMM-DIIS:  cpu time    9.1296: real time    9.1597
    ORTHCH:  cpu time    1.1671: real time    1.2522
       DOS:  cpu time    0.0013: real time    0.0013
    --------------------------------------------
      LOOP:  cpu time   14.7173: real time   15.2613

 eigenvalue-minimisations  :  7680
 total energy-change (2. order) :-0.4652284E+03  (-0.4293266E+03)
 number of electron     672.0000000 magnetization      48.0000000
 augmentation part      672.0000000 magnetization      48.0000000

 Free energy of the ion-electron system (eV)
  ---------------------------------------------------
  alpha Z        PSCENC =      2652.81237852
  Ewald energy   TEWEN  =    -41906.43950404
  -Hartree energ DENC   =    -25709.66947776
  -exchange      EXHF   =         0.00000000
  -V(xc)+E(xc)   XCENC  =      3605.70595632
  PAW double counting   =     55594.23204139   -59034.67079123
  entropy T*S    EENTRO =        -0.00000000
  eigenvalues    EBANDS =    -10175.79337543
  atomic energy  EATOM  =     73862.19814772
  Solvation  Ediel_sol  =         0.00000000
  ---------------------------------------------------
  free energy    TOTEN  =     -1111.62462451 eV

  energy without entropy =    -1111.62462451  energy(sigma->0) =    -1111.62462451


--------------------------------------------------------------------------------------------------------




--------------------------------------- Iteration      1(   5)  ---------------------------------------


    EDDIAG:  cpu time    4.4226: real time    4.8351
  RMM-DIIS:  cpu time    9.1236: real time    9.1339
    ORTHCH:  cpu time    1.1722: real time    1.2534
       DOS:  cpu time    0.0016: real time    0.0016
    --------------------------------------------
      LOOP:  cpu time   14.7199: real time   15.2240

 eigenvalue-minimisations  :  7680
 total energy-change (2. order) :-0.1043520E+03  (-0.1600650E+03)
 number of electron     672.0000000 magnetization      48.0000000
 augmentation part      672.0000000 magnetization      48.0000000

 Free energy of the ion-electron system (eV)
  ---------------------------------------------------
  alpha Z        PSCENC =      2652.81237852
  Ewald energy   TEWEN  =    -41906.43950404
  -Hartree energ DENC   =    -25709.66947776
  -exchange      EXHF   =         0.00000000
  -V(xc)+E(xc)   XCENC  =      3605.70595632
  PAW double counting   =     55594.23204139   -59034.67079123
  entropy T*S    EENTRO =        -0.00000000
  eigenvalues    EBANDS =    -10280.14538791
  atomic energy  EATOM  =     73862.19814772
  Solvation  Ediel_sol  =         0.00000000
  ---------------------------------------------------
  free energy    TOTEN  =     -1215.97663700 eV

  energy without entropy =    -1215.97663700  energy(sigma->0) =    -1215.97663700


--------------------------------------------------------------------------------------------------------




--------------------------------------- Iteration      1(   6)  ---------------------------------------


    EDDIAG:  cpu time    4.4465: real time    4.8617
  RMM-DIIS:  cpu time    9.1491: real time    9.1550
    ORTHCH:  cpu time    1.1691: real time    1.2516
       DOS:  cpu time    0.0014: real time    0.0014
    --------------------------------------------
      LOOP:  cpu time   14.7661: real time   15.2698

 eigenvalue-minimisations  :  7680
 total energy-change (2. order) :-0.8987779E+01  (-0.7940500E+02)
 number of electron     672.0000000 magnetization      48.0000000
 augmentation part      672.0000000 magnetization      48.0000000

 Free energy of the ion-electron system (eV)
  ---------------------------------------------------
  alpha Z        PSCENC =      2652.81237852
  Ewald energy   TEWEN  =    -41906.43950404
  -Hartree energ DENC   =    -25709.66947776
  -exchange      EXHF   =         0.00000000
  -V(xc)+E(xc)   XCENC  =      3605.70595632
  PAW double counting   =     55594.23204139   -59034.67079123
  entropy T*S    EENTRO =        -0.00000000
  eigenvalues    EBANDS =    -10289.13316684
  atomic energy  EATOM  =     73862.19814772
  Solvation  Ediel_sol  =         0.00000000
  ---------------------------------------------------
  free energy    TOTEN  =     -1224.96441592 eV

  energy without entropy =    -1224.96441592  energy(sigma->0) =    -1224.96441592


--------------------------------------------------------------------------------------------------------




--------------------------------------- Iteration      1(   7)  ---------------------------------------


    EDDIAG:  cpu time    4.4222: real time    4.8347
  RMM-DIIS:  cpu time    9.1162: real time    9.1396
    ORTHCH:  cpu time    1.1690: real time    1.2532
       DOS:  cpu time    0.0014: real time    0.0014
    --------------------------------------------
      LOOP:  cpu time   14.7088: real time   15.2289

 eigenvalue-minimisations  :  7680
 total energy-change (2. order) :-0.1805680E+01  (-0.4844975E+02)
 number of electron     672.0000000 magnetization      48.0000000
 augmentation part      672.0000000 magnetization      48.0000000

 Free energy of the ion-electron system (eV)
  ---------------------------------------------------
  alpha Z        PSCENC =      2652.81237852
  Ewald energy   TEWEN  =    -41906.43950404
  -Hartree energ DENC   =    -25709.66947776
  -exchange      EXHF   =         0.00000000
  -V(xc)+E(xc)   XCENC  =      3605.70595632
  PAW double counting   =     55594.23204139   -59034.67079123
  entropy T*S    EENTRO =        -0.00000000
  eigenvalues    EBANDS =    -10290.93884731
  atomic energy  EATOM  =     73862.19814772
  Solvation  Ediel_sol  =         0.00000000
  ---------------------------------------------------
  free energy    TOTEN  =     -1226.77009639 eV

  energy without entropy =    -1226.77009639  energy(sigma->0) =    -1226.77009639


--------------------------------------------------------------------------------------------------------




--------------------------------------- Iteration      1(   8)  ---------------------------------------


    EDDIAG:  cpu time    4.4477: real time    4.8690
  RMM-DIIS:  cpu time    9.1331: real time    9.1409
    ORTHCH:  cpu time    1.1672: real time    1.2531
       DOS:  cpu time    0.0016: real time    0.0016
    --------------------------------------------
      LOOP:  cpu time   14.7496: real time   15.2647

 eigenvalue-minimisations  :  7680
 total energy-change (2. order) : 0.5023046E+01  (-0.3009532E+02)
 number of electron     672.0000000 magnetization      48.0000000
 augmentation part      672.0000000 magnetization      48.0000000

 Free energy of the ion-electron system (eV)
  ---------------------------------------------------
  alpha Z        PSCENC =      2652.81237852
  Ewald energy   TEWEN  =    -41906.43950404
  -Hartree energ DENC   =    -25709.66947776
  -exchange      EXHF   =         0.00000000
  -V(xc)+E(xc)   XCENC  =      3605.70595632
  PAW double counting   =     55594.23204139   -59034.67079123
  entropy T*S    EENTRO =        -0.00000000
  eigenvalues    EBANDS =    -10285.91580092
  atomic energy  EATOM  =     73862.19814772
  Solvation  Ediel_sol  =         0.00000000
  ---------------------------------------------------
  free energy    TOTEN  =     -1221.74705000 eV

  energy without entropy =    -1221.74705000  energy(sigma->0) =    -1221.74705000


--------------------------------------------------------------------------------------------------------




--------------------------------------- Iteration      1(   9)  ---------------------------------------


    EDDIAG:  cpu time    4.4168: real time    4.8236
  RMM-DIIS:  cpu time   19.2485: real time   19.3975
    ORTHCH:  cpu time    1.1685: real time    1.2517
       DOS:  cpu time    0.0014: real time    0.0014
    --------------------------------------------
      LOOP:  cpu time   24.8354: real time   25.4743

 eigenvalue-minimisations  : 21814
 total energy-change (2. order) : 0.9300933E+01  (-0.1331174E+02)
 number of electron     672.0000000 magnetization      48.0000000
 augmentation part      672.0000000 magnetization      48.0000000

 Free energy of the ion-electron system (eV)
  ---------------------------------------------------
  alpha Z        PSCENC =      2652.81237852
  Ewald energy   TEWEN  =    -41906.43950404
  -Hartree energ DENC   =    -25709.66947776
  -exchange      EXHF   =         0.00000000
  -V(xc)+E(xc)   XCENC  =      3605.70595632
  PAW double counting   =     55594.23204139   -59034.67079123
  entropy T*S    EENTRO =        -0.00000002
  eigenvalues    EBANDS =    -10276.61486793
  atomic energy  EATOM  =     73862.19814772
  Solvation  Ediel_sol  =         0.00000000
  ---------------------------------------------------
  free energy    TOTEN  =     -1212.44611704 eV

  energy without entropy =    -1212.44611702  energy(sigma->0) =    -1212.44611703


--------------------------------------------------------------------------------------------------------




--------------------------------------- Iteration      1(  10)  ---------------------------------------


    EDDIAG:  cpu time    4.4122: real time    4.8224
  RMM-DIIS:  cpu time   17.9206: real time   17.9427
    ORTHCH:  cpu time    1.1692: real time    1.2524
       DOS:  cpu time    0.0016: real time    0.0016
    --------------------------------------------
      LOOP:  cpu time   23.5036: real time   24.0191

 eigenvalue-minimisations  : 19651
 total energy-change (2. order) :-0.1907067E+01  (-0.5294877E+00)
 number of electron     672.0000000 magnetization      48.0000000
 augmentation part      672.0000000 magnetization      48.0000000

 Free energy of the ion-electron system (eV)
  ---------------------------------------------------
  alpha Z        PSCENC =      2652.81237852
  Ewald energy   TEWEN  =    -41906.43950404
  -Hartree energ DENC   =    -25709.66947776
  -exchange      EXHF   =         0.00000000
  -V(xc)+E(xc)   XCENC  =      3605.70595632
  PAW double counting   =     55594.23204139   -59034.67079123
  entropy T*S    EENTRO =        -0.00000011
  eigenvalues    EBANDS =    -10278.52193436
  atomic energy  EATOM  =     73862.19814772
  Solvation  Ediel_sol  =         0.00000000
  ---------------------------------------------------
  free energy    TOTEN  =     -1214.35318356 eV

  energy without entropy =    -1214.35318345  energy(sigma->0) =    -1214.35318350


--------------------------------------------------------------------------------------------------------




--------------------------------------- Iteration      1(  11)  ---------------------------------------


    EDDIAG:  cpu time    4.4539: real time    4.8600
  RMM-DIIS:  cpu time   20.1149: real time   20.1234
    ORTHCH:  cpu time    1.1671: real time    1.2522
       DOS:  cpu time    0.0016: real time    0.0016
    --------------------------------------------
      LOOP:  cpu time   25.7376: real time   26.2372

 eigenvalue-minimisations  : 22577
 total energy-change (2. order) : 0.6942724E-01  (-0.4353120E-01)
 number of electron     672.0000000 magnetization      48.0000000
 augmentation part      672.0000000 magnetization      48.0000000

 Free energy of the ion-electron system (eV)
  ---------------------------------------------------
  alpha Z        PSCENC =      2652.81237852
  Ewald energy   TEWEN  =    -41906.43950404
  -Hartree energ DENC   =    -25709.66947776
  -exchange      EXHF   =         0.00000000
  -V(xc)+E(xc)   XCENC  =      3605.70595632
  PAW double counting   =     55594.23204139   -59034.67079123
  entropy T*S    EENTRO =        -0.00000010
  eigenvalues    EBANDS =    -10278.45250714
  atomic energy  EATOM  =     73862.19814772
  Solvation  Ediel_sol  =         0.00000000
  ---------------------------------------------------
  free energy    TOTEN  =     -1214.28375632 eV

  energy without entropy =    -1214.28375622  energy(sigma->0) =    -1214.28375627


--------------------------------------------------------------------------------------------------------




--------------------------------------- Iteration      1(  12)  ---------------------------------------


    EDDIAG:  cpu time    4.4889: real time    4.9202
  RMM-DIIS:  cpu time   21.8296: real time   21.8467
    ORTHCH:  cpu time    1.1724: real time    1.2538
       DOS:  cpu time    0.0016: real time    0.0016
    CHARGE:  cpu time    1.7862: real time    1.7894
    MIXING:  cpu time    0.0010: real time    0.0012
    --------------------------------------------
      LOOP:  cpu time   29.2797: real time   29.8129

 eigenvalue-minimisations  : 24349
 total energy-change (2. order) :-0.7903501E-03  (-0.4325680E-02)
 number of electron     672.0000150 magnetization      48.0000023
 augmentation part      239.0343838 magnetization      29.0270735

 Broyden mixing:
  rms(total) = 0.12505E+02    rms(broyden)= 0.12495E+02
  rms(prec ) = 0.14370E+02
  weight for this iteration     100.00

 Free energy of the ion-electron system (eV)
  ---------------------------------------------------
  alpha Z        PSCENC =      2652.81237852
  Ewald energy   TEWEN  =    -41906.43950404
  -Hartree energ DENC   =    -25709.66947776
  -exchange      EXHF   =         0.00000000
  -V(xc)+E(xc)   XCENC  =      3605.70595632
  PAW double counting   =     55594.23204139   -59034.67079123
  entropy T*S    EENTRO =        -0.00000010
  eigenvalues    EBANDS =    -10278.45329749
  atomic energy  EATOM  =     73862.19814772
  Solvation  Ediel_sol  =         0.00000000
  ---------------------------------------------------
  free energy    TOTEN  =     -1214.28454667 eV

  energy without entropy =    -1214.28454657  energy(sigma->0) =    -1214.28454662


--------------------------------------------------------------------------------------------------------




--------------------------------------- Iteration      1(  13)  ---------------------------------------


    POTLOK:  cpu time    0.1716: real time    0.1724
    SETDIJ:  cpu time    4.9806: real time    5.0173
    EDDIAG:  cpu time    4.4155: real time    4.8343
  RMM-DIIS:  cpu time   17.2513: real time   17.2589
    ORTHCH:  cpu time    1.1654: real time    1.2511
       DOS:  cpu time    0.0017: real time    0.0017
    CHARGE:  cpu time    1.7871: real time    1.7876
    MIXING:  cpu time    0.0009: real time    0.0010
    --------------------------------------------
      LOOP:  cpu time   29.7741: real time   30.3242

 eigenvalue-minimisations  : 18792
 total energy-change (2. order) : 0.2268118E+03  (-0.1226046E+03)
 number of electron     672.0000191 magnetization      48.0000029
 augmentation part      269.3645291 magnetization      26.1878014

 Broyden mixing:
  rms(total) = 0.14090E+02    rms(broyden)= 0.14087E+02
  rms(prec ) = 0.15895E+02
  weight for this iteration     100.00

 eigenvalues of (default mixing * dielectric matrix)
  average eigenvalue GAMMA=   0.3156
  0.3156

 Free energy of the ion-electron system (eV)
  ---------------------------------------------------
  alpha Z        PSCENC =      2652.81237852
  Ewald energy   TEWEN  =    -41906.43950404
  -Hartree energ DENC   =    -25035.94257366
  -exchange      EXHF   =         0.00000000
  -V(xc)+E(xc)   XCENC  =      3695.80568130
  PAW double counting   =     59850.50557852   -63275.57265928
  entropy T*S    EENTRO =        -0.06432255
  eigenvalues    EBANDS =    -10830.77544426
  atomic energy  EATOM  =     73862.19814772
  Solvation  Ediel_sol  =         0.00000000
  ---------------------------------------------------
  free energy    TOTEN  =      -987.47271773 eV

  energy without entropy =     -987.40839518  energy(sigma->0) =     -987.44055645


--------------------------------------------------------------------------------------------------------




--------------------------------------- Iteration      1(  14)  ---------------------------------------


    POTLOK:  cpu time    0.1735: real time    0.1738
    SETDIJ:  cpu time    4.9326: real time    5.0004
    EDDIAG:  cpu time    4.4021: real time    4.8173
  RMM-DIIS:  cpu time   17.6351: real time   17.6434
    ORTHCH:  cpu time    1.1720: real time    1.2564
       DOS:  cpu time    0.0013: real time    0.0013
    CHARGE:  cpu time    1.7541: real time    1.7984
    MIXING:  cpu time    0.0011: real time    0.0011
    --------------------------------------------
      LOOP:  cpu time   30.0718: real time   30.6921

 eigenvalue-minimisations  : 19389
 total energy-change (2. order) : 0.7132360E+02  (-0.1812362E+02)
 number of electron     672.0000166 magnetization      48.0000046
 augmentation part      246.5088908 magnetization      32.1297458

 Broyden mixing:
  rms(total) = 0.52640E+01    rms(broyden)= 0.52595E+01
  rms(prec ) = 0.57149E+01
  weight for this iteration     100.00

 eigenvalues of (default mixing * dielectric matrix)
  average eigenvalue GAMMA=   0.7262
  1.0971  0.3554

 Free energy of the ion-electron system (eV)
  ---------------------------------------------------
  alpha Z        PSCENC =      2652.81237852
  Ewald energy   TEWEN  =    -41906.43950404
  -Hartree energ DENC   =    -25651.25223955
  -exchange      EXHF   =         0.00000000
  -V(xc)+E(xc)   XCENC  =      3672.74568229
  PAW double counting   =     63220.27736517   -66702.45188677
  entropy T*S    EENTRO =        -0.00000000
  eigenvalues    EBANDS =    -10064.03906355
  atomic energy  EATOM  =     73862.19814772
  Solvation  Ediel_sol  =         0.00000000
  ---------------------------------------------------
  free energy    TOTEN  =      -916.14912020 eV

  energy without entropy =     -916.14912020  energy(sigma->0) =     -916.14912020


--------------------------------------------------------------------------------------------------------




--------------------------------------- Iteration      1(  15)  ---------------------------------------


    POTLOK:  cpu time    0.1694: real time    0.1699
    SETDIJ:  cpu time    5.0110: real time    5.0118
    EDDIAG:  cpu time    4.4000: real time    4.8122
  RMM-DIIS:  cpu time   18.1870: real time   18.1950
    ORTHCH:  cpu time    1.1703: real time    1.2535
       DOS:  cpu time    0.0015: real time    0.0015
    CHARGE:  cpu time    1.7560: real time    1.8009
    MIXING:  cpu time    0.0014: real time    0.0014
    --------------------------------------------
      LOOP:  cpu time   30.6965: real time   31.2462

 eigenvalue-minimisations  : 20241
 total energy-change (2. order) : 0.1484290E+02  (-0.2213574E+01)
 number of electron     672.0000171 magnetization      48.0000058
 augmentation part      249.6664392 magnetization      33.8086271

 Broyden mixing:
  rms(total) = 0.22232E+01    rms(broyden)= 0.22228E+01
  rms(prec ) = 0.23086E+01
  weight for this iteration     100.00

 eigenvalues of (default mixing * dielectric matrix)
  average eigenvalue GAMMA=   0.9200
  1.6443  0.3801  0.7356

 Free energy of the ion-electron system (eV)
  ---------------------------------------------------
  alpha Z        PSCENC =      2652.81237852
  Ewald energy   TEWEN  =    -41906.43950404
  -Hartree energ DENC   =    -25570.59182484
  -exchange      EXHF   =         0.00000000
  -V(xc)+E(xc)   XCENC  =      3706.24272609
  PAW double counting   =     67260.55309013   -70782.80719127
  entropy T*S    EENTRO =        -0.00000000
  eigenvalues    EBANDS =    -10123.27403909
  atomic energy  EATOM  =     73862.19814772
  Solvation  Ediel_sol  =         0.00000000
  ---------------------------------------------------
  free energy    TOTEN  =      -901.30621678 eV

  energy without entropy =     -901.30621678  energy(sigma->0) =     -901.30621678


--------------------------------------------------------------------------------------------------------




--------------------------------------- Iteration      1(  16)  ---------------------------------------


    POTLOK:  cpu time    0.1683: real time    0.1690
    SETDIJ:  cpu time    5.0680: real time    5.0689
    EDDIAG:  cpu time    4.3914: real time    4.8118
  RMM-DIIS:  cpu time   17.5499: real time   17.5619
    ORTHCH:  cpu time    1.1755: real time    1.2675
       DOS:  cpu time    0.0015: real time    0.0015
    CHARGE:  cpu time    1.7919: real time    1.7929
    MIXING:  cpu time    0.0011: real time    0.0011
    --------------------------------------------
      LOOP:  cpu time   30.1478: real time   30.6746

 eigenvalue-minimisations  : 19123
 total energy-change (2. order) :-0.1458520E+01  (-0.6545433E+00)
 number of electron     672.0000172 magnetization      48.0000062
 augmentation part      251.1011430 magnetization      33.9178204

 Broyden mixing:
  rms(total) = 0.15276E+01    rms(broyden)= 0.15271E+01
  rms(prec ) = 0.16116E+01
  weight for this iteration     100.00

 eigenvalues of (default mixing * dielectric matrix)
  average eigenvalue GAMMA=   0.9632
  2.0681  0.8934  0.3862  0.5050

 Free energy of the ion-electron system (eV)
  ---------------------------------------------------
  alpha Z        PSCENC =      2652.81237852
  Ewald energy   TEWEN  =    -41906.43950404
  -Hartree energ DENC   =    -25521.26526621
  -exchange      EXHF   =         0.00000000
  -V(xc)+E(xc)   XCENC  =      3707.12867350
  PAW double counting   =     70076.14798121   -73627.04131565
  entropy T*S    EENTRO =        -0.00000000
  eigenvalues    EBANDS =    -10146.30583153
  atomic energy  EATOM  =     73862.19814772
  Solvation  Ediel_sol  =         0.00000000
  ---------------------------------------------------
  free energy    TOTEN  =      -902.76473648 eV

  energy without entropy =     -902.76473648  energy(sigma->0) =     -902.76473648


--------------------------------------------------------------------------------------------------------




--------------------------------------- Iteration      1(  17)  ---------------------------------------


    POTLOK:  cpu time    0.1760: real time    0.1765
    SETDIJ:  cpu time    5.0725: real time    5.0740
    EDDIAG:  cpu time    4.4075: real time    4.8272
  RMM-DIIS:  cpu time   18.3311: real time   18.3719
    ORTHCH:  cpu time    1.1725: real time    1.2540
       DOS:  cpu time    0.0016: real time    0.0016
    CHARGE:  cpu time    1.7851: real time    1.7870
    MIXING:  cpu time    0.0017: real time    0.0017
    --------------------------------------------
      LOOP:  cpu time   30.9481: real time   31.4940

 eigenvalue-minimisations  : 20504
 total energy-change (2. order) : 0.8744076E-01  (-0.8379382E-01)
 number of electron     672.0000172 magnetization      48.0000065
 augmentation part      251.1419250 magnetization      33.9218379

 Broyden mixing:
  rms(total) = 0.81119E+00    rms(broyden)= 0.81100E+00
  rms(prec ) = 0.91896E+00
  weight for this iteration     100.00

 eigenvalues of (default mixing * dielectric matrix)
  average eigenvalue GAMMA=   0.9832
  2.2146  1.1046  0.3754  0.6752  0.5461

 Free energy of the ion-electron system (eV)
  ---------------------------------------------------
  alpha Z        PSCENC =      2652.81237852
  Ewald energy   TEWEN  =    -41906.43950404
  -Hartree energ DENC   =    -25510.17912252
  -exchange      EXHF   =         0.00000000
  -V(xc)+E(xc)   XCENC  =      3704.70189465
  PAW double counting   =     71035.98414575   -74596.27814340
  entropy T*S    EENTRO =        -0.00000000
  eigenvalues    EBANDS =    -10145.47709240
  atomic energy  EATOM  =     73862.19814772
  Solvation  Ediel_sol  =         0.00000000
  ---------------------------------------------------
  free energy    TOTEN  =      -902.67729572 eV

  energy without entropy =     -902.67729572  energy(sigma->0) =     -902.67729572


--------------------------------------------------------------------------------------------------------




--------------------------------------- Iteration      1(  18)  ---------------------------------------


    POTLOK:  cpu time    0.1747: real time    0.1748
    SETDIJ:  cpu time    5.0344: real time    5.0369
    EDDIAG:  cpu time    4.4021: real time    4.8187
  RMM-DIIS:  cpu time   17.9473: real time   17.9731
    ORTHCH:  cpu time    1.1693: real time    1.2518
       DOS:  cpu time    0.0011: real time    0.0011
    CHARGE:  cpu time    1.7930: real time    1.7949
    MIXING:  cpu time    0.0013: real time    0.0013
    --------------------------------------------
      LOOP:  cpu time   30.5231: real time   31.0525

 eigenvalue-minimisations  : 19239
 total energy-change (2. order) : 0.4384469E+00  (-0.7013222E-01)
 number of electron     672.0000172 magnetization      48.0000067
 augmentation part      250.6275952 magnetization      33.8900624

 Broyden mixing:
  rms(total) = 0.31123E+00    rms(broyden)= 0.31097E+00
  rms(prec ) = 0.32954E+00
  weight for this iteration     100.00

 eigenvalues of (default mixing * dielectric matrix)
  average eigenvalue GAMMA=   1.0117
  2.4431  1.3654  0.8413  0.5859  0.3772  0.4572

 Free energy of the ion-electron system (eV)
  ---------------------------------------------------
[...]
   4      -0.647    -0.864     1.512    -0.127     0.023     0.048
   5      -0.657    -0.820     1.477     0.177    -0.139     0.031
   6      -0.603    -0.722     1.325    -0.083    -0.077     0.001
   7      -1.094    -0.753     1.847    -0.122    -0.023     0.089
   8      -0.713    -0.912     1.625     0.170    -0.009     0.058
   9      -0.438    -0.679     1.117    -0.120     0.063    -0.128
  10      -1.070    -0.519     1.589     0.061     0.004     0.052
  11      -1.065    -0.750     1.815    -0.100     0.043     0.052
  12      -0.626    -0.864     1.490    -0.167     0.095    -0.018
  13      -0.599    -0.767     1.366     0.127     0.013    -0.036
  14      -1.130    -0.577     1.706     0.066     0.126     0.003
  15      -0.959    -0.805     1.763     0.078     0.104     0.028
  16      -0.642    -0.923     1.565     0.117     0.046    -0.033
  17       1.393     1.461    -2.854     0.198     0.019     0.106
  18       1.290     1.633    -2.922     0.038     0.019     0.095
  19       1.573     1.349    -2.922     0.009    -0.026    -0.090
  20       1.419     1.462    -2.881     0.099    -0.046     0.200
  21       1.298     1.654    -2.952    -0.061     0.043     0.099
  22       1.415     1.583    -2.999    -0.135     0.090    -0.208
  23       1.343     1.495    -2.837    -0.010     0.071     0.081
  24       1.530     1.468    -2.998    -0.082    -0.001    -0.055
  25      -0.292    -0.174     0.466    -0.707     0.205     0.162
  26      -1.093     0.993     0.100     0.623    -1.006    -0.372
  27      -1.654     0.484     1.170     1.054     1.262     0.883
  28       0.768    -1.434     0.666    -0.976    -1.315    -0.350
  29       0.419     1.604    -2.023    -0.296    -0.598     0.860
  30       0.378    -0.247    -0.131     0.266     0.130     0.066
  31      -0.295    -0.977     1.272     1.228    -0.169     0.409
  32      -0.959     0.648     0.311    -0.804     0.476     0.145
  33      -0.420    -0.203     0.623    -0.538    -0.324    -0.380
  34      -1.174     1.524    -0.351    -0.790     0.357     1.949
  35      -0.101     0.838    -0.737    -0.823     0.752     0.247
  36      -0.768    -1.098     1.866    -0.055     0.251     0.386
  37      -0.002    -0.738     0.740    -0.794     1.062     0.823
  38       0.498    -0.672     0.174     0.500     0.886     0.024
  39      -2.009     1.593     0.416     0.088     0.711     0.057
  40      -0.528    -0.416     0.944    -0.557     0.013    -0.440
  41      -5.926     3.468     2.457    -3.753     2.187    -4.468
  42      -4.037     1.338     2.700     5.691     1.843     4.185
  43       5.689    -6.392     0.704    -1.132    -4.944     0.437
  44      -3.519     2.274     1.245    -3.482    -2.843     3.745
  45       4.493    -4.756     0.264    -1.024     3.444    -2.160
  46      -1.857     2.814    -0.957     5.011    -0.958    -3.480
  47      -4.303     4.874    -0.572    -4.619     1.901    -4.666
  48       5.411    -5.985     0.574    -1.657    -4.099    -0.284
  49      -2.218     4.514    -2.296     3.859     1.214     3.726
  50      -3.621     3.139     0.483    -6.586    -2.312     4.758
  51      -3.453     1.464     1.989     5.103    -4.413    -4.533
  52       5.096    -6.111     1.016    -2.306     5.057     1.027
  53      -1.447     2.307    -0.859    -5.543     0.200    -4.299
  54      -1.998    -0.149     2.146     3.934     2.767     4.475
  55       5.746    -6.558     0.812     1.043    -4.899     0.276
  56      -3.317     1.094     2.223    -4.622    -1.298     6.405
  57       4.727    -6.171     1.444    -0.305     3.668    -1.339
  58      -4.186     2.903     1.283     3.740    -1.423    -3.783
  59      -2.893     2.754     0.139    -4.144     1.937    -2.754
  60       4.488    -4.805     0.317     0.790    -5.550    -0.079
  61      -4.011     2.676     1.335     5.400     4.339     2.923
  62      -2.662     2.103     0.559    -5.042    -2.555     3.764
  63      -2.540     3.203    -0.662     4.389    -1.620    -2.982
  64       4.044    -4.281     0.237    -1.203     3.952    -1.518
  65      -6.150     4.087     2.063    -2.525     1.302    -5.287
  66      -6.359     3.342     3.017     5.131     1.217     6.560
  67       5.456    -4.823    -0.633    -0.287    -3.841     1.835
  68      -2.795     1.623     1.172    -4.316    -1.790     4.635
  69       4.762    -5.684     0.922    -0.623     4.763    -0.288
  70      -1.749     1.501     0.248     5.236    -2.103    -3.212
  71      -2.935     5.032    -2.098    -6.199     0.900    -4.718
  72       5.772    -5.377    -0.395    -0.847    -2.568    -1.094
  73      -2.856     2.697     0.160     3.881     2.620     6.218
  74      -4.213     4.723    -0.509    -5.174    -1.697     4.166
  75      -3.641     2.243     1.398     5.757    -2.577    -4.819
  76       3.995    -6.863     2.868    -0.067     5.745    -0.228
  77      -1.962     1.337     0.625    -6.743     2.379    -4.260
  78      -2.817     2.238     0.579     4.698     3.055     3.684
  79       5.523    -6.460     0.938    -0.481    -4.941    -1.515
  80      -4.166     2.270     1.896    -3.986    -1.579     4.055
  81       6.803    -6.186    -0.617     1.708     4.709     1.097
  82      -3.319     1.962     1.357     4.856    -1.254    -4.828
  83      -0.991     1.849    -0.858    -4.523     3.549    -3.177
  84       5.198    -6.119     0.921     1.085    -5.102     2.125
  85      -2.003     0.346     1.657     5.600     1.921     3.916
  86      -3.522     4.726    -1.204    -5.431    -2.642     4.523
  87      -3.622     4.813    -1.190     5.060    -1.778    -3.989
  88       5.630    -6.537     0.907     1.687     4.830     1.031
 ---------------------------------------------------------------------


 Total hyperfine coupling parameters after diagonalization (MHz)
 (convention: |A_zz| > |A_xx| > |A_yy|)
 ----------------------------------------------------------------------
  ion      A_xx      A_yy      A_zz     asymmetry (A_yy - A_xx)/ A_zz 
 ----------------------------------------------------------------------
   1       1.047     0.504     3.430      -0.158
   2      -0.254    -0.017     2.757       0.086
   3       0.936     0.558     3.471      -0.109
   4       1.536     1.200     3.637      -0.092
   5       2.446     2.058     4.481      -0.087
   6       1.930     1.728     3.822      -0.053
   7       0.760     0.344     3.328      -0.125
   8       1.959     1.564     4.202      -0.094
   9       1.657     1.318     3.181      -0.106
  10       1.127     0.564     3.232      -0.174
  11       0.700     0.326     3.238      -0.116
  12       2.009     1.603     4.048      -0.100
  13       2.310     2.005     4.207      -0.073
  14       1.355     0.781     3.636      -0.158
  15       0.500     0.280     3.041      -0.072
  16       2.176     1.810     4.342      -0.084
  17      11.845     7.762    12.249      -0.333
  18      14.135     9.925    14.489      -0.291
  19      13.975     9.700    14.198      -0.301
  20      13.972     9.736    14.172      -0.299
  21      13.390     9.147    13.767      -0.308
  22      15.020    10.670    15.349      -0.283
  23      14.223    10.039    14.376      -0.291
  24      15.075    10.664    15.249      -0.289
  25      94.424    92.967    94.477      -0.015
  26      97.435    95.512    98.738      -0.019
  27      96.911    94.704    99.455      -0.022
  28      97.037    94.992    99.163      -0.021
  29      93.553    90.841    95.078      -0.029
  30      94.491    94.306    95.162      -0.002
  31     100.749    98.162   101.475      -0.025
  32      93.937    92.056    94.474      -0.020
  33      96.805    95.571    97.365      -0.013
  34      96.709    95.234   100.185      -0.015
  35      94.989    93.437    96.211      -0.016
  36      99.900    99.503   102.607      -0.004
  37     101.957    99.722   103.120      -0.022
  38      95.448    94.828    97.116      -0.006
  39      94.711    91.905    95.709      -0.029
  40     101.159   100.104   102.273      -0.010
  41       5.160    -0.706    15.282      -0.384
  42       9.366     2.465    18.654      -0.370
  43       6.899     2.730    18.054      -0.231
  44       3.854     0.495    13.260      -0.253
  45       5.447     1.072    13.392      -0.327
  46       6.662     3.335    16.157      -0.206
  47       4.202     1.105    16.684      -0.186
  48       7.230     2.398    16.625      -0.291
  49       5.197     4.365    16.446      -0.051
  50       6.665     1.357    19.102      -0.278
  51       6.694     2.458    19.128      -0.221
  52       5.782     0.048    15.865      -0.361
  53       7.195     1.874    16.314      -0.326
  54       2.956     0.355    13.375      -0.194
  55       5.992     1.335    16.864      -0.276
  56       6.334     1.514    18.084      -0.267
  57       5.729     0.086    13.673      -0.413
  58       4.832     0.477    13.524      -0.322
  59       5.684     2.089    13.876      -0.259
  60       4.003     2.479    15.793      -0.096
  61       5.964    -0.811    15.719      -0.431
  62       5.837     2.172    16.088      -0.228
  63       3.126     0.363    12.344      -0.224
  64       2.784     0.125    11.697      -0.227
  65       6.627     2.117    17.825      -0.253
  66       8.849     2.177    21.951      -0.304
  67       2.375    -1.515    11.538      -0.337
  68       5.768     2.400    15.881      -0.212
  69       7.010     3.578    17.310      -0.198
  70       4.791     0.970    13.996      -0.273
  71       3.318    -0.420    16.664      -0.224
  72       3.663    -1.182    11.316      -0.428
  73       3.798     2.945    17.669      -0.048
  74       6.086     2.084    17.850      -0.224
  75       5.030     0.130    16.771      -0.292
  76       6.139     1.608    17.683      -0.256
  77       6.519     1.141    17.800      -0.302
  78       2.898    -0.549    13.256      -0.260
  79       4.200    -1.046    14.610      -0.359
  80       6.995     2.344    15.957      -0.291
  81       4.150     0.572    16.386      -0.218
  82       6.250     1.428    16.209      -0.298
  83       5.117     3.158    15.725      -0.125
  84       5.904    -0.079    15.809      -0.378
  85       4.121    -1.417    13.121      -0.422
  86       3.766     1.135    17.279      -0.152
  87       4.235     1.293    16.331      -0.180
  88       4.023    -0.659    15.029      -0.312
 ---------------------------------------------------------------------



--------------------------------------------------------------------------------------------------------


 stress matrix after NEB project (eV)
    -43.84597     -1.45248      0.07439
     -1.46407    -48.58373      0.23012
      0.07649      0.21092    -61.86813
  FORCES: max atom, RMS     2.585327    1.132364
  FORCE total and by dimension   10.622512    2.229992
  Stress total and by dimension   90.082603   61.868130
     LOOP+:  cpu time  761.7958: real time  777.4422
    4ORBIT:  cpu time    0.0000: real time    0.0000
 


 total charge     
 
# of ion       s       p       d       tot
------------------------------------------
    1        0.054   5.998   0.000   6.053
    2        0.052   5.997   0.000   6.050
    3        0.053   5.998   0.000   6.052
    4        0.048   5.990   0.000   6.038
    5        0.051   5.993   0.000   6.044
    6        0.052   5.995   0.000   6.047
    7        0.054   5.999   0.000   6.053
    8        0.052   5.995   0.000   6.047
    9        0.050   5.992   0.000   6.042
   10        0.048   5.990   0.000   6.039
   11        0.052   5.997   0.000   6.050
   12        0.050   5.991   0.000   6.041
   13        0.049   5.990   0.000   6.039
   14        0.052   5.996   0.000   6.048
   15        0.047   5.990   0.000   6.037
   16        0.051   5.993   0.000   6.045
   17        0.150   6.130   0.085   6.365
   18        0.149   6.128   0.084   6.360
   19        0.148   6.128   0.084   6.360
   20        0.153   6.131   0.086   6.369
   21        0.149   6.129   0.085   6.362
   22        0.152   6.133   0.088   6.373
   23        0.141   6.114   0.073   6.328
   24        0.148   6.127   0.083   6.359
   25        0.376   6.456   4.824  11.656
   26        0.374   6.451   4.834  11.659
   27        0.382   6.470   4.841  11.692
   28        0.377   6.459   4.833  11.669
   29        0.393   6.490   4.878  11.761
   30        0.378   6.459   4.836  11.673
   31        0.369   6.440   4.817  11.625
   32        0.380   6.461   4.841  11.683
   33        0.368   6.438   4.811  11.616
   34        0.362   6.423   4.808  11.592
   35        0.393   6.491   4.868  11.752
   36        0.374   6.454   4.827  11.655
   37        0.351   6.401   4.782  11.533
   38        0.373   6.448   4.821  11.642
   39        0.387   6.480   4.855  11.722
   40        0.366   6.436   4.810  11.613
   41        1.599   3.498   0.000   5.097
   42        1.602   3.521   0.000   5.123
   43        1.599   3.497   0.000   5.096
   44        1.599   3.539   0.000   5.138
   45        1.595   3.523   0.000   5.119
   46        1.600   3.533   0.000   5.133
   47        1.601   3.503   0.000   5.104
   48        1.600   3.518   0.000   5.118
   49        1.600   3.515   0.000   5.115
   50        1.601   3.496   0.000   5.097
   51        1.601   3.497   0.000   5.099
   52        1.598   3.498   0.000   5.097
   53        1.599   3.516   0.000   5.116
   54        1.596   3.488   0.000   5.084
   55        1.598   3.486   0.000   5.084
   56        1.603   3.501   0.000   5.104
   57        1.596   3.501   0.000   5.097
   58        1.600   3.547   0.000   5.147
   59        1.600   3.519   0.000   5.119
   60        1.599   3.498   0.000   5.097
   61        1.601   3.510   0.000   5.112
   62        1.597   3.512   0.000   5.109
   63        1.595   3.479   0.000   5.075
   64        1.597   3.490   0.000   5.087
   65        1.598   3.495   0.000   5.093
   66        1.603   3.493   0.000   5.096
   67        1.597   3.490   0.000   5.086
   68        1.600   3.515   0.000   5.114
   69        1.599   3.528   0.000   5.128
   70        1.596   3.505   0.000   5.101
   71        1.600   3.462   0.000   5.062
   72        1.597   3.493   0.000   5.090
   73        1.601   3.472   0.000   5.073
   74        1.601   3.522   0.000   5.123
   75        1.603   3.506   0.000   5.109
   76        1.600   3.525   0.000   5.126
   77        1.602   3.489   0.000   5.091
   78        1.598   3.492   0.000   5.090
   79        1.599   3.492   0.000   5.091
   80        1.598   3.552   0.000   5.149
   81        1.598   3.482   0.000   5.079
   82        1.599   3.508   0.000   5.106
   83        1.597   3.489   0.000   5.086
   84        1.598   3.489   0.000   5.087
   85        1.596   3.510   0.000   5.107
   86        1.604   3.483   0.000   5.087
   87        1.601   3.488   0.000   5.089
   88        1.598   3.507   0.000   5.105
--------------------------------------------------
tot         84.770 416.355  77.952 579.077
 


 magnetization (x)
 
# of ion       s       p       d       tot
------------------------------------------
    1        0.001   0.000   0.000   0.002
    2        0.001   0.000   0.000   0.001
    3        0.001   0.001   0.000   0.002
    4        0.002  -0.000   0.000   0.002
    5        0.002   0.000   0.000   0.002
    6        0.002   0.000   0.000   0.002
    7        0.001   0.001   0.000   0.002
    8        0.002  -0.000   0.000   0.002
    9        0.002   0.000   0.000   0.002
   10        0.001  -0.000   0.000   0.001
   11        0.001   0.001   0.000   0.002
   12        0.002  -0.000   0.000   0.002
   13        0.002   0.000   0.000   0.003
   14        0.001   0.000   0.000   0.002
   15        0.001   0.000   0.000   0.001
   16        0.002   0.000   0.000   0.002
   17        0.006   0.001   0.001   0.008
   18        0.007   0.002   0.001   0.010
   19        0.007   0.002   0.001   0.011
   20        0.007   0.002   0.001   0.010
   21        0.007   0.002   0.001   0.011
   22        0.008   0.003   0.001   0.012
   23        0.007   0.002   0.001   0.011
   24        0.008   0.003   0.001   0.012
   25        0.014   0.030   2.753   2.797
   26        0.016   0.030   2.750   2.795
   27        0.015   0.031   2.749   2.795
   28        0.016   0.030   2.747   2.793
   29        0.014   0.030   2.706   2.751
   30        0.014   0.029   2.743   2.786
   31        0.016   0.031   2.771   2.819
   32        0.014   0.029   2.741   2.785
   33        0.015   0.030   2.773   2.818
   34        0.016   0.029   2.776   2.820
   35        0.015   0.031   2.718   2.764
   36        0.017   0.031   2.759   2.807
   37        0.016   0.028   2.824   2.868
   38        0.015   0.030   2.762   2.807
   39        0.015   0.031   2.730   2.775
   40        0.017   0.031   2.776   2.824
   41        0.002   0.033   0.000   0.035
   42        0.002   0.062   0.000   0.064
   43        0.002   0.042   0.000   0.045
   44        0.002   0.024   0.000   0.026
   45        0.002   0.033   0.000   0.035
   46        0.002   0.044   0.000   0.046
   47        0.002   0.031   0.000   0.033
   48        0.002   0.042   0.000   0.045
   49        0.002   0.033   0.000   0.036
   50        0.002   0.051   0.000   0.053
   51        0.002   0.042   0.000   0.044
   52        0.002   0.035   0.000   0.037
   53        0.002   0.041   0.000   0.043
   54        0.002   0.021   0.000   0.022
   55        0.002   0.030   0.000   0.032
   56        0.002   0.042   0.000   0.045
   57        0.002   0.028   0.000   0.030
   58        0.002   0.034   0.000   0.036
   59        0.002   0.036   0.000   0.038
   60        0.002   0.030   0.000   0.032
   61        0.002   0.035   0.000   0.036
   62        0.002   0.034   0.000   0.036
   63        0.002   0.010   0.000   0.012
   64        0.001   0.009   0.000   0.010
   65        0.002   0.047   0.000   0.049
   66        0.003   0.062   0.000   0.065
   67        0.002  -0.003   0.000  -0.001
   68        0.002   0.038   0.000   0.040
   69        0.002   0.043   0.000   0.046
   70        0.002   0.027   0.000   0.029
   71        0.002   0.011   0.000   0.013
   72        0.001   0.017   0.000   0.018
   73        0.002   0.024   0.000   0.027
   74        0.002   0.047   0.000   0.049
   75        0.002   0.041   0.000   0.042
   76        0.002   0.048   0.000   0.050
   77        0.002   0.035   0.000   0.038
   78        0.002   0.011   0.000   0.012
   79        0.002   0.026   0.000   0.028
   80        0.002   0.051   0.000   0.053
   81        0.002   0.023   0.000   0.025
   82        0.002   0.038   0.000   0.040
   83        0.002   0.026   0.000   0.029
   84        0.002   0.033   0.000   0.035
   85        0.002   0.020   0.000   0.021
   86        0.002   0.020   0.000   0.022
   87        0.002   0.035   0.000   0.037
   88        0.002   0.025   0.000   0.027
--------------------------------------------------
tot          0.420   2.069  44.089  46.577
 

 total amount of memory used by VASP MPI-rank0    94426. kBytes
=======================================================================

   base      :      30000. kBytes
   nonlr-proj:      13667. kBytes
   fftplans  :       1275. kBytes
   grid      :      22786. kBytes
   one-center:       2737. kBytes
   wavefun   :      23961. kBytes
 
  
  
 General timing and accounting informations for this job:
 ========================================================
  
                  Total CPU time used (sec):      782.821
                            User time (sec):      774.737
                          System time (sec):        8.084
                         Elapsed time (sec):      801.054
  
                   Maximum memory used (kb):      194700.
                   Average memory used (kb):           0.
  
                          Minor page faults:       281198
                          Major page faults:            0
                 Voluntary context switches:       268099
