 vasp.5.4.4.18Apr17-6-g9f103f2a35 (build Dec 02 2020 12:53:39) complex          
  
 executed on             LinuxIFC date 2021.08.03  11:09:39
 running on   96 total cores
 distrk:  each k-point on   96 cores,    1 groups
 distr:  one band on NCORES_PER_BAND=   1 cores,   96 groups


--------------------------------------------------------------------------------------------------------


 INCAR:
 POTCAR:    PAW_PBE Na_pv 19Sep2006               
 POTCAR:    PAW_PBE Mg_pv 13Apr2007               
 POTCAR:    PAW_PBE Mn_pv 02Aug2007               
 POTCAR:    PAW_PBE O 08Apr2002                   

 ----------------------------------------------------------------------------- 
|                                                                             |
|           W    W    AA    RRRRR   N    N  II  N    N   GGGG   !!!           |
|           W    W   A  A   R    R  NN   N  II  NN   N  G    G  !!!           |
|           W    W  A    A  R    R  N N  N  II  N N  N  G       !!!           |
|           W WW W  AAAAAA  RRRRR   N  N N  II  N  N N  G  GGG   !            |
|           WW  WW  A    A  R   R   N   NN  II  N   NN  G    G                |
|           W    W  A    A  R    R  N    N  II  N    N   GGGG   !!!           |
|                                                                             |
|      For optimal performance we recommend to set                            |
|        NCORE= 4 - approx SQRT( number of cores)                             |
|      NCORE specifies how many cores store one orbital (NPAR=cpu/NCORE).     |
|      This setting can  greatly improve the performance of VASP for DFT.     |
|      The default,   NCORE=1            might be grossly inefficient         |
|      on modern multi-core architectures or massively parallel machines.     |
|      Do your own testing !!!!                                               |
|      Unfortunately you need to use the default for GW and RPA calculations. |
|      (for HF NCORE is supported but not extensively tested yet)             |
|                                                                             |
 ----------------------------------------------------------------------------- 

 POTCAR:    PAW_PBE Na_pv 19Sep2006               
   VRHFIN =Na: p6s1                                                             
   LEXCH  = PE                                                                  
   EATOM  =   766.0439 eV,   56.3026 Ry                                         
                                                                                
   TITEL  = PAW_PBE Na_pv 19Sep2006                                             
   LULTRA =        F    use ultrasoft PP ?                                      
   IUNSCR =        1    unscreen: 0-lin 1-nonlin 2-no                           
   RPACOR =    1.800    partial core radius                                     
   POMASS =   22.990; ZVAL   =    7.000    mass and valenz                      
   RCORE  =    2.200    outmost cutoff radius                                   
   RWIGS  =    2.200; RWIGS  =    1.164    wigner-seitz radius (au A)           
   ENMAX  =  259.561; ENMIN  =  194.671 eV                                      
   ICORE  =        2    local potential                                         
   LCOR   =        T    correct aug charges                                     
   LPAW   =        T    paw PP                                                  
   EAUG   =  368.056                                                            
   DEXC   =    0.000                                                            
   RMAX   =    2.245    core radius for proj-oper                               
   RAUG   =    1.300    factor for augmentation sphere                          
   RDEP   =    2.259    radius for radial grids                                 
   RDEPT  =    1.738    core radius for aug-charge                              
                                                                                
   Atomic configuration                                                         
    5 entries                                                                   
     n  l   j            E        occ.                                          
     1  0  0.50     -1033.6933   2.0000                                         
     2  0  0.50       -56.7526   2.0000                                         
     2  1  1.50       -28.6721   6.0000                                         
     3  0  0.50        -2.7440   1.0000                                         
     3  2  1.50        -1.3606   0.0000                                         
   Description                                                                  
     l       E           TYP  RCUT    TYP  RCUT                                 
     1    -28.6720912     23  2.000                                             
     1      6.8029130     23  2.000                                             
     0     -2.7439560     23  2.200                                             
     0     34.0145650     23  2.200                                             
     2     -1.3605826     23  2.200                                             
  local pseudopotential read in
  partial core-charges read in
  partial kinetic energy density read in
  atomic valenz-charges read in
  non local Contribution for L=           1  read in
    real space projection operators read in
  non local Contribution for L=           1  read in
    real space projection operators read in
  non local Contribution for L=           0  read in
    real space projection operators read in
  non local Contribution for L=           0  read in
    real space projection operators read in
    PAW grid and wavefunctions read in
 
   number of l-projection  operators is LMAX  =           4
   number of lm-projection operators is LMMAX =           8
 
 POTCAR:    PAW_PBE Mg_pv 13Apr2007               
   VRHFIN =Mg: p6s2                                                             
   LEXCH  = PE                                                                  
   EATOM  =  1056.7344 eV,   77.6678 Ry                                         
                                                                                
   TITEL  = PAW_PBE Mg_pv 13Apr2007                                             
   LULTRA =        F    use ultrasoft PP ?                                      
   IUNSCR =        1    unscreen: 0-lin 1-nonlin 2-no                           
   RPACOR =    1.500    partial core radius                                     
   POMASS =   24.305; ZVAL   =    8.000    mass and valenz                      
   RCORE  =    2.000    outmost cutoff radius                                   
   RWIGS  =    2.000; RWIGS  =    1.058    wigner-seitz radius (au A)           
   ENMAX  =  403.929; ENMIN  =  302.947 eV                                      
   RCLOC  =    1.506    cutoff for local pot                                    
   LCOR   =        T    correct aug charges                                     
   LPAW   =        T    paw PP                                                  
   EAUG   =  758.780                                                            
   DEXC   =    0.000                                                            
   RMAX   =    2.045    core radius for proj-oper                               
   RAUG   =    1.300    factor for augmentation sphere                          
   RDEP   =    2.025    radius for radial grids                                 
   RDEPT  =    1.557    core radius for aug-charge                              
                                                                                
   Atomic configuration                                                         
    5 entries                                                                   
     n  l   j            E        occ.                                          
     1  0  0.50     -1259.6230   2.0000                                         
     2  0  0.50       -79.8442   2.0000                                         
     2  1  1.50       -46.6121   6.0000                                         
     3  0  0.50        -4.7055   2.0000                                         
     3  2  1.50        -1.3606   0.0000                                         
   Description                                                                  
     l       E           TYP  RCUT    TYP  RCUT                                 
     1    -46.6121073     23  1.600                                             
     1      2.7211652     23  1.600                                             
     0     -4.7054661     23  2.000                                             
     0     61.2262170     23  2.000                                             
     2     -1.3605826     23  2.000                                             
  local pseudopotential read in
  partial core-charges read in
  partial kinetic energy density read in
  atomic valenz-charges read in
  non local Contribution for L=           1  read in
    real space projection operators read in
  non local Contribution for L=           1  read in
    real space projection operators read in
  non local Contribution for L=           0  read in
    real space projection operators read in
  non local Contribution for L=           0  read in
    real space projection operators read in
  non local Contribution for L=           2  read in
    real space projection operators read in
    PAW grid and wavefunctions read in
 
   number of l-projection  operators is LMAX  =           5
   number of lm-projection operators is LMMAX =          13
 
 POTCAR:    PAW_PBE Mn_pv 02Aug2007               
   VRHFIN =Mn: 3p4s3d                                                           
   LEXCH  = PE                                                                  
   EATOM  =  2025.2664 eV,  148.8529 Ry                                         
                                                                                
   TITEL  = PAW_PBE Mn_pv 02Aug2007                                             
   LULTRA =        F    use ultrasoft PP ?                                      
   IUNSCR =        1    unscreen: 0-lin 1-nonlin 2-no                           
   RPACOR =    2.080    partial core radius                                     
   POMASS =   54.938; ZVAL   =   13.000    mass and valenz                      
   RCORE  =    2.300    outmost cutoff radius                                   
   RWIGS  =    2.500; RWIGS  =    1.323    wigner-seitz radius (au A)           
   ENMAX  =  269.864; ENMIN  =  202.398 eV                                      
   ICORE  =        3    local potential                                         
   LCOR   =        T    correct aug charges                                     
   LPAW   =        T    paw PP                                                  
   EAUG   =  569.085                                                            
   DEXC   =    0.000                                                            
   RMAX   =    2.343    core radius for proj-oper                               
   RAUG   =    1.300    factor for augmentation sphere                          
   RDEP   =    2.338    radius for radial grids                                 
   RDEPT  =    1.798    core radius for aug-charge                              
                                                                                
   Atomic configuration                                                         
    8 entries                                                                   
     n  l   j            E        occ.                                          
     1  0  0.50     -6424.8287   2.0000                                         
     2  0  0.50      -739.1154   2.0000                                         
     2  1  1.50      -625.3949   6.0000                                         
     3  0  0.50       -81.6100   2.0000                                         
     3  1  1.50       -50.4667   6.0000                                         
     3  2  2.50        -3.3745   6.0000                                         
     4  0  0.50        -4.1331   1.0000                                         
     4  3  2.50        -1.3606   0.0000                                         
   Description                                                                  
     l       E           TYP  RCUT    TYP  RCUT                                 
     1    -50.4666628     23  2.000                                             
     1     -1.3605826     23  2.000                                             
     2     -3.3744729     23  2.300                                             
     2     -4.7350555     23  2.300                                             
     0     -4.1331431     23  2.300                                             
     0      7.6656591     23  2.300                                             
     3      9.5240782     23  2.300                                             
  local pseudopotential read in
  partial core-charges read in
  partial kinetic energy density read in
  atomic valenz-charges read in
  non local Contribution for L=           1  read in
    real space projection operators read in
  non local Contribution for L=           1  read in
    real space projection operators read in
  non local Contribution for L=           2  read in
    real space projection operators read in
  non local Contribution for L=           2  read in
    real space projection operators read in
  non local Contribution for L=           0  read in
    real space projection operators read in
  non local Contribution for L=           0  read in
    real space projection operators read in
    PAW grid and wavefunctions read in
 
   number of l-projection  operators is LMAX  =           6
   number of lm-projection operators is LMMAX =          18
 
 POTCAR:    PAW_PBE O 08Apr2002                   
   VRHFIN =O: s2p4                                                              
   LEXCH  = PE                                                                  
   EATOM  =   432.3788 eV,   31.7789 Ry                                         
                                                                                
   TITEL  = PAW_PBE O 08Apr2002                                                 
   LULTRA =        F    use ultrasoft PP ?                                      
   IUNSCR =        1    unscreen: 0-lin 1-nonlin 2-no                           
   RPACOR =    1.200    partial core radius                                     
   POMASS =   16.000; ZVAL   =    6.000    mass and valenz                      
   RCORE  =    1.520    outmost cutoff radius                                   
   RWIGS  =    1.550; RWIGS  =    0.820    wigner-seitz radius (au A)           
   ENMAX  =  400.000; ENMIN  =  300.000 eV                                      
   ICORE  =        2    local potential                                         
   LCOR   =        T    correct aug charges                                     
   LPAW   =        T    paw PP                                                  
   EAUG   =  605.392                                                            
   DEXC   =    0.000                                                            
   RMAX   =    1.553    core radius for proj-oper                               
   RAUG   =    1.300    factor for augmentation sphere                          
   RDEP   =    1.550    radius for radial grids                                 
   RDEPT  =    1.329    core radius for aug-charge                              
                                                                                
   Atomic configuration                                                         
    4 entries                                                                   
     n  l   j            E        occ.                                          
     1  0  0.50      -514.6923   2.0000                                         
     2  0  0.50       -23.9615   2.0000                                         
     2  1  0.50        -9.0305   4.0000                                         
     3  2  1.50        -9.5241   0.0000                                         
   Description                                                                  
     l       E           TYP  RCUT    TYP  RCUT                                 
     0    -23.9615318     23  1.200                                             
     0     -9.5240782     23  1.200                                             
     1     -9.0304911     23  1.520                                             
     1      8.1634956     23  1.520                                             
     2     -9.5240782      7  1.500                                             
  local pseudopotential read in
  partial core-charges read in
  partial kinetic energy density read in
  kinetic energy density of atom read in
  atomic valenz-charges read in
  non local Contribution for L=           0  read in
    real space projection operators read in
  non local Contribution for L=           0  read in
    real space projection operators read in
  non local Contribution for L=           1  read in
    real space projection operators read in
  non local Contribution for L=           1  read in
    real space projection operators read in
    PAW grid and wavefunctions read in
 
   number of l-projection  operators is LMAX  =           4
   number of lm-projection operators is LMMAX =           8
 
 Optimization of the real space projectors (new method)

 maximal supplied QI-value         = 17.01
 optimisation between [QCUT,QGAM] = [ 10.20, 20.41] = [ 29.16,116.64] Ry 
 Optimized for a Real-space Cutoff    1.30 Angstroem

   l    n(q)    QCUT    max X(q) W(low)/X(q) W(high)/X(q)  e(spline) 
   1      7    10.205     4.940    0.23E-03    0.84E-03    0.11E-06
   1      7    10.205     6.253    0.40E-03    0.13E-02    0.18E-06
   0      8    10.205    37.438    0.23E-03    0.37E-03    0.42E-07
   0      8    10.205     9.606    0.16E-03    0.26E-03    0.31E-07
 Optimization of the real space projectors (new method)

 maximal supplied QI-value         = 18.90
 optimisation between [QCUT,QGAM] = [ 10.20, 20.41] = [ 29.16,116.64] Ry 
 Optimized for a Real-space Cutoff    1.26 Angstroem

   l    n(q)    QCUT    max X(q) W(low)/X(q) W(high)/X(q)  e(spline) 
   1      7    10.205     2.974    0.63E-04    0.14E-03    0.13E-06
   1      7    10.205     4.279    0.11E-03    0.45E-03    0.24E-06
   0      8    10.205    16.381    0.44E-03    0.15E-03    0.55E-07
   0      8    10.205     5.611    0.31E-03    0.11E-03    0.40E-07
   2      7    10.205     4.652    0.50E-03    0.47E-03    0.57E-07
 Optimization of the real space projectors (new method)

 maximal supplied QI-value         = 16.25
 optimisation between [QCUT,QGAM] = [ 10.24, 20.48] = [ 29.35,117.42] Ry 
 Optimized for a Real-space Cutoff    1.34 Angstroem

   l    n(q)    QCUT    max X(q) W(low)/X(q) W(high)/X(q)  e(spline) 
   1      8    10.239     3.658    0.23E-03    0.30E-03    0.98E-07
   1      8    10.239     5.612    0.32E-03    0.65E-03    0.21E-06
   2      7    10.239    55.373    0.42E-03    0.45E-03    0.65E-07
   2      7    10.239    50.863    0.43E-03    0.48E-03    0.67E-07
   0      8    10.239    79.536    0.11E-03    0.21E-03    0.56E-07
   0      8    10.239    38.668    0.96E-04    0.19E-03    0.52E-07
 Optimization of the real space projectors (new method)

 maximal supplied QI-value         = 24.76
 optimisation between [QCUT,QGAM] = [ 10.15, 20.30] = [ 28.85,115.39] Ry 
 Optimized for a Real-space Cutoff    1.38 Angstroem

   l    n(q)    QCUT    max X(q) W(low)/X(q) W(high)/X(q)  e(spline) 
   0      8    10.150    20.381    0.22E-03    0.32E-03    0.29E-06
   0      8    10.150    15.268    0.23E-03    0.35E-03    0.30E-06
   1      8    10.150     5.964    0.46E-03    0.53E-03    0.21E-06
   1      8    10.150     5.382    0.38E-03    0.45E-03    0.19E-06
  PAW_PBE Na_pv 19Sep2006               :
 energy of atom  1       EATOM= -766.0439
 kinetic energy error for atom=    0.0103 (will be added to EATOM!!)
  PAW_PBE Mg_pv 13Apr2007               :
 energy of atom  2       EATOM=-1056.7344
 kinetic energy error for atom=    0.0820 (will be added to EATOM!!)
  PAW_PBE Mn_pv 02Aug2007               :
 energy of atom  3       EATOM=-2025.2664
 kinetic energy error for atom=    0.0284 (will be added to EATOM!!)
  PAW_PBE O 08Apr2002                   :
 energy of atom  4       EATOM= -432.3788
 kinetic energy error for atom=    0.1156 (will be added to EATOM!!)
 
 
 POSCAR: Na Mg Mn  O                             
  positions in cartesian coordinates
  No initial velocities read in

 METAGGA = SCAN     LMAXTAU =  6    LMIXTAU =  F

 exchange correlation table for  LEXCH =        8
   RHO(1)=    0.500       N(1)  =     2000
   RHO(2)=  100.500       N(2)  =     4000

 VTST: version 3.2, (02/03/18)

 CHAIN: initializing optimizer
 
 OPT: Using VASP Dynamics algorithm
 CHAIN: Read ICHAIN            0
 
 POSCAR: Na Mg Mn  O                             
  positions in cartesian coordinates
  No initial velocities read in
 


--------------------------------------------------------------------------------------------------------


 ion  position               nearest neighbor table
   1  0.846  0.092  0.254-  55 2.18  64 2.24  32 2.87  30 2.88
   2  0.000  0.222  0.750-  58 2.28
   3  0.137  0.628  0.737-  81 2.18  70 2.24
   4  0.384  0.401  0.752-  82 2.25  85 2.25  45 2.32  48 2.33
   5  0.981  0.435  0.243-  66 2.20  77 2.25  75 2.34  86 2.38  37 2.74  39 2.97
   6  0.647  0.386  0.254-  52 2.32  75 2.36
   7  0.324  0.048  0.747-  46 2.22  44 2.36  47 2.36  49 2.37  28 2.82  26 2.84
   8  0.651  0.100  0.746-  46 2.28  57 2.31
   9  0.481  0.929  0.250-  42 2.25  53 2.26  51 2.33  62 2.36  29 2.84  31 2.89
  10  0.353  0.577  0.253-  87 2.14  88 2.32  79 2.32  78 2.35  38 2.90  40 2.94
  11  0.320  0.248  0.242-  78 2.22  43 2.36
  12  0.928  0.893  0.750-  69 2.23  72 2.27  61 2.33  58 2.38  25 2.88  27 2.91
  13  0.496  0.747  0.752-  56 2.31  59 2.33
  14  0.775  0.522  0.746-  68 2.15  71 2.16  34 2.91  36 2.95
  15  0.817  0.756  0.244-  54 2.25  67 2.38
  16  0.157  0.875  0.252-  76 2.25
  17  0.650  0.237  0.001-  43 2.00  66 2.04  60 2.05  49 2.05  71 2.07  53 2.20  33 2.79  34 2.85
                            26 2.86
  18  0.644  0.239  0.499-  46 2.02  52 2.03  68 2.04  62 2.05  57 2.06  75 2.10  28 2.85
  19  0.147  0.228  0.007-  83 1.96  61 2.01  41 2.02  55 2.06  48 2.09  78 2.13
  20  0.154  0.240  0.494-  45 2.00  58 2.02  50 2.03  64 2.06  80 2.12  87 2.14  27 2.79  28 2.85

  21  0.148  0.730  0.005-  42 1.98  47 2.02  67 2.04  73 2.04  84 2.10  77 2.11  34 2.83  26 2.85

  22  0.141  0.741  0.493-  76 1.99  51 1.99  44 2.05  70 2.11  86 2.12  81 2.15  36 2.85  27 2.85

  23  0.652  0.725  1.000-  72 1.94  85 2.00  65 2.02  59 2.03  54 2.08  79 2.08  25 2.81
  24  0.640  0.735  0.492-  88 1.94  74 2.06  56 2.09  82 2.09  63 2.15  69 2.18  35 2.80  31 2.82

  25  0.976  0.891  0.003-  72 1.86  54 1.87  67 1.87  61 1.95  41 2.02  47 2.10  23 2.81  34 2.83
                            12 2.88  30 2.91  26 3.00
  26  0.321  0.058  0.999-  49 1.88  41 1.93  43 1.94  48 1.96  47 1.98  42 2.00   7 2.84  21 2.85
                            17 2.86  29 2.88  33 2.89  25 3.00
  27  0.991  0.919  0.495-  63 1.84  69 1.88  58 1.91  44 1.91  76 1.91  50 1.97  20 2.79  28 2.82
                            22 2.85  32 2.88  12 2.91  36 2.98
  28  0.316  0.073  0.497-  44 1.81  50 1.85  52 1.94  45 1.94  51 1.98  46 2.02  27 2.82   7 2.82
                            18 2.85  20 2.85  31 2.93  35 2.95
  29  0.484  0.890  1.000-  79 1.83  84 1.84  42 1.85  59 1.94  53 1.95  49 1.97  38 2.83   9 2.84
                            30 2.85  26 2.88
  30  0.812  0.062  0.999-  53 1.91  59 1.91  54 1.94  55 1.94  61 1.96  60 1.96  29 2.85   1 2.88
                            37 2.89  25 2.91
  31  0.490  0.909  0.506-  62 1.84  51 1.87  56 1.89  88 1.91  46 1.94  81 2.05  24 2.82  32 2.85
                             9 2.89  28 2.93  40 2.94
  32  0.818  0.077  0.509-  58 1.93  57 1.93  64 1.94  62 1.97  56 1.99  63 2.01  39 2.82  31 2.85
                             1 2.87  27 2.88
  33  0.483  0.392  0.007-  78 1.88  43 1.90  48 1.92  71 1.95  65 1.96  85 2.03  17 2.79  26 2.89
                            38 2.92  34 2.94
  34  0.822  0.565  0.002-  71 1.86  73 1.88  66 1.89  67 1.90  65 1.92  72 2.00  21 2.83  25 2.83
                            37 2.84  17 2.85  14 2.91  33 2.94
  35  0.484  0.413  0.488-  82 1.88  87 1.89  74 1.94  68 1.95  45 1.96  52 1.98  24 2.80  36 2.86
                            40 2.89  28 2.95
  36  0.813  0.576  0.487-  74 1.88  68 1.88  75 1.89  70 1.96  69 1.98  76 2.02  22 2.85  35 2.86
                            14 2.95  27 2.98  39 2.98
  37  0.980  0.395  0.002-  60 1.89  73 1.90  66 1.94  77 1.94  55 1.96  83 1.96   5 2.74  34 2.84
                            30 2.89  38 2.94
  38  0.319  0.564  0.996-  85 1.84  84 1.87  79 1.92  83 1.93  77 1.94  78 2.01  29 2.83  10 2.90
                            33 2.92  37 2.94
  39  0.982  0.402  0.506-  64 1.88  80 1.89  57 1.90  86 1.90  70 1.95  75 2.01  32 2.82  40 2.85
                             5 2.97  36 2.98
  40  0.310  0.571  0.513-  82 1.87  81 1.88  80 1.89  86 1.96  88 2.04  87 2.05  39 2.85  35 2.89
                            31 2.94  10 2.94
  41  0.159  0.057  0.093-  26 1.93  19 2.02  25 2.02
  42  0.331  0.892  0.090-  29 1.85  21 1.98  26 2.00   9 2.25
  43  0.475  0.225  0.095-  33 1.90  26 1.94  17 2.00  11 2.36
  44  0.158  0.927  0.583-  28 1.81  27 1.91  22 2.05   7 2.36
  45  0.328  0.245  0.585-  28 1.94  35 1.96  20 2.00   4 2.32
  46  0.479  0.067  0.599-  31 1.94  18 2.02  28 2.02   7 2.22   8 2.28
  47  0.155  0.898  0.901-  26 1.98  21 2.02  25 2.10   7 2.36
  48  0.326  0.230  0.911-  33 1.92  26 1.96  19 2.09   4 2.33
  49  0.478  0.056  0.910-  26 1.88  29 1.97  17 2.05   7 2.37
  50  0.166  0.074  0.400-  28 1.85  27 1.97  20 2.03
  51  0.331  0.906  0.416-  31 1.87  28 1.98  22 1.99   9 2.33
  52  0.474  0.237  0.400-  28 1.94  35 1.98  18 2.03   6 2.32
  53  0.649  0.045  0.098-  30 1.91  29 1.95  17 2.20   9 2.26
  54  0.828  0.908  0.092-  25 1.87  30 1.94  23 2.08  15 2.25
  55  0.966  0.226  0.097-  30 1.94  37 1.96  19 2.06   1 2.18
  56  0.647  0.908  0.600-  31 1.89  32 1.99  24 2.09  13 2.31
  57  0.821  0.245  0.598-  39 1.90  32 1.93  18 2.06   8 2.31
  58  0.984  0.072  0.592-  27 1.91  32 1.93  20 2.02   2 2.28  12 2.38
  59  0.653  0.900  0.907-  30 1.91  29 1.94  23 2.03  13 2.33
  60  0.825  0.236  0.908-  37 1.89  30 1.96  17 2.05
  61  0.978  0.057  0.911-  25 1.95  30 1.96  19 2.01  12 2.33
  62  0.644  0.058  0.413-  31 1.84  32 1.97  18 2.05   9 2.36
  63  0.837  0.923  0.408-  27 1.84  32 2.01  24 2.15
  64  0.972  0.242  0.411-  39 1.88  32 1.94  20 2.06   1 2.24
  65  0.656  0.556  0.095-  34 1.92  33 1.96  23 2.02
  66  0.826  0.410  0.096-  34 1.89  37 1.94  17 2.04   5 2.20
  67  0.972  0.733  0.094-  25 1.87  34 1.90  21 2.04  15 2.38
  68  0.654  0.425  0.582-  36 1.88  35 1.95  18 2.04  14 2.15
  69  0.840  0.752  0.584-  27 1.88  36 1.98  24 2.18  12 2.23
  70  0.961  0.560  0.591-  39 1.95  36 1.96  22 2.11   3 2.24
  71  0.658  0.421  0.911-  34 1.86  33 1.95  17 2.07  14 2.16
  72  0.823  0.736  0.910-  25 1.86  23 1.94  34 2.00  12 2.27
  73  0.974  0.553  0.913-  34 1.88  37 1.90  21 2.04
  74  0.652  0.568  0.394-  36 1.88  35 1.94  24 2.06
  75  0.826  0.418  0.404-  36 1.89  39 2.01  18 2.10   5 2.34   6 2.36
  76  0.983  0.758  0.399-  27 1.91  22 1.99  36 2.02  16 2.25
  77  0.152  0.547  0.095-  37 1.94  38 1.94  21 2.11   5 2.25
  78  0.337  0.410  0.100-  33 1.88  38 2.01  19 2.13  11 2.22  10 2.35
  79  0.474  0.732  0.088-  29 1.83  38 1.92  23 2.08  10 2.32
  80  0.145  0.411  0.598-  40 1.89  39 1.89  20 2.12
  81  0.315  0.733  0.601-  40 1.88  31 2.05  22 2.15   3 2.18
  82  0.467  0.553  0.590-  40 1.87  35 1.88  24 2.09   4 2.25
  83  0.149  0.395  0.915-  38 1.93  37 1.96  19 1.96
  84  0.330  0.731  0.913-  29 1.84  38 1.87  21 2.10
  85  0.474  0.559  0.911-  38 1.84  23 2.00  33 2.03   4 2.25
  86  0.145  0.553  0.410-  39 1.90  40 1.96  22 2.12   5 2.38
  87  0.333  0.427  0.396-  35 1.89  40 2.05  20 2.14  10 2.14
  88  0.473  0.744  0.411-  31 1.91  24 1.94  40 2.04  10 2.32
 
  LATTYP: Found a hexagonal cell.
 ALAT       =    10.0190000534
 C/A-ratio  =     1.1196726572
  
  Lattice vectors:
  
 A1 = (  10.0190000534,   0.0000000000,   0.0000000000)
 A2 = (  -5.0095000267,   8.6767085668,   0.0000000000)
 A3 = (   0.0000000000,   0.0000000000,  11.2180004120)


Analysis of symmetry for initial positions (statically):
=====================================================================
 Subroutine PRICEL returns:
 Original cell was already a primitive cell.
 

 Routine SETGRP: Setting up the symmetry group for a 
 hexagonal supercell.


 Subroutine GETGRP returns: Found  1 space group operations
 (whereof  1 operations were pure point group operations)
 out of a pool of 24 trial point group operations.


The static configuration has the point symmetry C_1 .


Analysis of symmetry for dynamics (positions and initial velocities):
=====================================================================
 Subroutine PRICEL returns:
 Original cell was already a primitive cell.
 

 Routine SETGRP: Setting up the symmetry group for a 
 hexagonal supercell.


 Subroutine GETGRP returns: Found  1 space group operations
 (whereof  1 operations were pure point group operations)
 out of a pool of 24 trial point group operations.


The dynamic configuration has the point symmetry C_1 .


Analysis of structural, dynamic, and magnetic symmetry:
=====================================================================
 Subroutine PRICEL returns:
 Original cell was already a primitive cell.
 

 Routine SETGRP: Setting up the symmetry group for a 
 hexagonal supercell.


 Subroutine GETGRP returns: Found  1 space group operations
 (whereof  1 operations were pure point group operations)
 out of a pool of 24 trial point group operations.


The magnetic configuration has the point symmetry C_1 .


 Subroutine INISYM returns: Found  1 space group operations
 (whereof  1 operations are pure point group operations),
 and found     1 'primitive' translations

 
 

Automatic generation of k-mesh.
 generate k-points for:    2    2    2
Space group operators:
 irot       det(A)        alpha          n_x          n_y          n_z        tau_x        tau_y        tau_z
    1     1.000000     0.000000     1.000000     0.000000     0.000000     0.000000     0.000000     0.000000
 
 Subroutine IBZKPT returns following result:
 ===========================================
 
 Found      8 irreducible k-points:
 
 Following reciprocal coordinates:
            Coordinates               Weight
  0.000000  0.000000  0.000000      1.000000
  0.500000 -0.000000 -0.000000      1.000000
  0.000000  0.500000  0.000000      1.000000
  0.500000  0.500000 -0.000000      1.000000
  0.000000  0.000000  0.500000      1.000000
  0.500000 -0.000000  0.500000      1.000000
  0.000000  0.500000  0.500000      1.000000
  0.500000  0.500000  0.500000      1.000000
 
 Following cartesian coordinates:
            Coordinates               Weight
  0.000000  0.000000  0.000000      1.000000
  0.049905  0.028813 -0.000000      1.000000
  0.000000  0.057626  0.000000      1.000000
  0.049905  0.086438 -0.000000      1.000000
  0.000000  0.000000  0.044571      1.000000
  0.049905  0.028813  0.044571      1.000000
  0.000000  0.057626  0.044571      1.000000
  0.049905  0.086438  0.044571      1.000000
 


--------------------------------------------------------------------------------------------------------




 Dimension of arrays:
   k-points           NKPTS =      8   k-points in BZ     NKDIM =      8   number of bands    NBANDS=    480
   number of dos      NEDOS =    301   number of ions     NIONS =     88
   non local maximal  LDIM  =      6   non local SUM 2l+1 LMDIM =     18
   total plane-waves  NPLWV = 140000
   max r-space proj   IRMAX =   1632   max aug-charges    IRDMAX=   4555
   dimension x,y,z NGX =    50 NGY =   50 NGZ =   56
   dimension x,y,z NGXF=   100 NGYF=  100 NGZF=  112
   support grid    NGXF=   100 NGYF=  100 NGZF=  112
   ions per type =              16   8  16  48
   NGX,Y,Z   is equivalent  to a cutoff of   8.30,  8.30,  8.30 a.u.
   NGXF,Y,Z  is equivalent  to a cutoff of  16.59, 16.59, 16.60 a.u.

 SYSTEM =  unknown system                          
 POSCAR =  Na Mg Mn  O                             

 Startparameter for this run:
   NWRITE =      2    write-flag & timer
   PREC   = normal    normal or accurate (medium, high low for compatibility)
   ISTART =      0    job   : 0-new  1-cont  2-samecut
   ICHARG =      1    charge: 1-file 2-atom 10-const
   ISPIN  =      2    spin polarized calculation?
   LNONCOLLINEAR =      F non collinear calculations
   LSORBIT =      F    spin-orbit coupling
   INIWAV =      1    electr: 0-lowe 1-rand  2-diag
   LASPH  =      T    aspherical Exc in radial PAW
   METAGGA=      F    non-selfconsistent MetaGGA calc.

 Electronic Relaxation 1
   ENCUT  =  400.0 eV  29.40 Ry    5.42 a.u.  16.34 16.34 18.29*2*pi/ulx,y,z
   ENINI  =  400.0     initial cutoff
   ENAUG  =  758.8 eV  augmentation charge cutoff
   NELM   =    200;   NELMIN=  6; NELMDL=  0     # of ELM steps 
   EDIFF  = 0.1E-04   stopping-criterion for ELM
   LREAL  =      T    real-space projection
   NLSPLINE    = F    spline interpolate recip. space projectors
   LCOMPAT=      F    compatible to vasp.4.4
   GGA_COMPAT  = T    GGA compatible to vasp.4.4-vasp.4.6
   LMAXPAW     = -100 max onsite density
   LMAXMIX     =    4 max onsite mixed and CHGCAR
   VOSKOWN=      0    Vosko Wilk Nusair interpolation
   ROPT   =   -0.00050  -0.00050  -0.00050  -0.00050
 Ionic relaxation
   EDIFFG = 0.1E-03   stopping-criterion for IOM
   NSW    =      1    number of steps for IOM
   NBLOCK =      1;   KBLOCK =      1    inner block; outer block 
   IBRION =     -1    ionic relax: 0-MD 1-quasi-New 2-CG
   NFREE  =      0    steps in history (QN), initial steepest desc. (CG)
   ISIF   =      2    stress and relaxation
   IWAVPR =     10    prediction:  0-non 1-charg 2-wave 3-comb
   ISYM   =      2    0-nonsym 1-usesym 2-fastsym
   LCORR  =      T    Harris-Foulkes like correction to forces

   POTIM  = 0.5000    time-step for ionic-motion
   TEIN   =    0.0    initial temperature
   TEBEG  =    0.0;   TEEND  =   0.0 temperature during run
   SMASS  =  -3.00    Nose mass-parameter (am)
   estimated Nose-frequenzy (Omega)   =  0.10E-29 period in steps =****** mass=  -0.229E-26a.u.
   SCALEE = 1.0000    scale energy and forces
   NPACO  =    256;   APACO  = 16.0  distance and # of slots for P.C.
   PSTRESS=    0.0 pullay stress

  Mass of Ions in am
   POMASS =  22.99 24.30 54.94 16.00
  Ionic Valenz
   ZVAL   =   7.00  8.00 13.00  6.00
  Atomic Wigner-Seitz radii
   RWIGS  =  -1.00 -1.00 -1.00 -1.00
  virtual crystal weights 
   VCA    =   1.00  1.00  1.00  1.00
   NELECT =     672.0000    total number of electrons
   NUPDOWN=      48.0000    fix difference up-down

 DOS related values:
   EMIN   =  10.00;   EMAX   =-10.00  energy-range for DOS
   EFERMI =   0.00
   ISMEAR =     0;   SIGMA  =   0.05  broadening in eV -4-tet -1-fermi 0-gaus

 Electronic relaxation 2 (details)
   IALGO  =     48    algorithm
   LDIAG  =      T    sub-space diagonalisation (order eigenvalues)
   LSUBROT=      F    optimize rotation matrix (better conditioning)
   TURBO    =      0    0=normal 1=particle mesh
   IRESTART =      0    0=no restart 2=restart with 2 vectors
   NREBOOT  =      0    no. of reboots
   NMIN     =      0    reboot dimension
   EREF     =   0.00    reference energy to select bands
   IMIX   =      4    mixing-type and parameters
     AMIX     =   0.40;   BMIX     =  1.00
     AMIX_MAG =   1.60;   BMIX_MAG =  1.00
     AMIN     =   0.10
     WC   =   100.;   INIMIX=   1;  MIXPRE=   1;  MAXMIX= -45

 Intra band minimization:
   WEIMIN = 0.0000     energy-eigenvalue tresh-hold
   EBREAK =  0.52E-08  absolut break condition
   DEPER  =   0.30     relativ break condition  

   TIME   =   0.40     timestep for ELM

  volume/ion in A,a.u.               =      11.08        74.78
  Fermi-wavevector in a.u.,A,eV,Ry     =   1.445993  2.732531 28.448379  2.090897
  Thomas-Fermi vector in A             =   2.564112
 
 Write flags
   LWAVE        =      F    write WAVECAR
   LDOWNSAMPLE  =      F    k-point downsampling of WAVECAR
   LCHARG       =      F    write CHGCAR
   LVTOT        =      F    write LOCPOT, total local potential
   LVHAR        =      F    write LOCPOT, Hartree potential only
   LELF         =      F    write electronic localiz. function (ELF)
   LORBIT       =     11    0 simple, 1 ext, 2 COOP (PROOUT), +10 PAW based schemes


 Dipole corrections
   LMONO  =      F    monopole corrections only (constant potential shift)
   LDIPOL =      F    correct potential (dipole corrections)
   IDIPOL =      0    1-x, 2-y, 3-z, 4-all directions 
   EPSILON=  1.0000000 bulk dielectric constant

 Exchange correlation treatment:
   GGA     =    --    GGA type
   LEXCH   =     8    internal setting for exchange type
   VOSKOWN=      0    Vosko Wilk Nusair interpolation
   LHFCALC =     F    Hartree Fock is set to
   LHFONE  =     F    Hartree Fock one center treatment
   AEXX    =    0.0000 exact exchange contribution

 Linear response parameters
   LEPSILON=     F    determine dielectric tensor
   LRPA    =     F    only Hartree local field effects (RPA)
   LNABLA  =     F    use nabla operator in PAW spheres
   LVEL    =     F    velocity operator in full k-point grid
   LINTERFAST=   F  fast interpolation
   KINTER  =     0    interpolate to denser k-point grid
   CSHIFT  =0.1000    complex shift for real part using Kramers Kronig
   OMEGAMAX=  -1.0    maximum frequency
   DEG_THRESHOLD= 0.2000000E-02 threshold for treating states as degnerate
   RTIME   =   -0.100 relaxation time in fs
  (WPLASMAI=    0.000 imaginary part of plasma frequency in eV, 0.658/RTIME)
   DFIELD  = 0.0000000 0.0000000 0.0000000 field for delta impulse in time
 
 Orbital magnetization related:
   ORBITALMAG=     F  switch on orbital magnetization
   LCHIMAG   =     F  perturbation theory with respect to B field
   DQ        =  0.001000  dq finite difference perturbation B field
   LLRAUG    =     F  two centre corrections for induced B field



--------------------------------------------------------------------------------------------------------


 Static calculation
 charge density and potential will be updated during run
 spin polarized calculation
 RMM-DIIS sequential band-by-band
 perform sub-space diagonalisation
    before iterative eigenvector-optimisation
 modified Broyden-mixing scheme, WC =      100.0
 initial mixing is a Kerker type mixing with AMIX =  0.4000 and BMIX =      1.0000
 Hartree-type preconditioning will be used
 using additional bands          144
 real space projection scheme for non local part
 use partial core corrections
 calculate Harris-corrections to forces 
   (improved forces if not selfconsistent)
 use gradient corrections 
 use of overlap-Matrix (Vanderbilt PP)
 Gauss-broadening in eV      SIGMA  =   0.05


--------------------------------------------------------------------------------------------------------


  energy-cutoff  :      400.00
  volume of cell :      975.20
      direct lattice vectors                 reciprocal lattice vectors
    10.019000053  0.000000000  0.000000000     0.099810360  0.057625538 -0.000000000
    -5.009500027  8.676708567  0.000000000     0.000000000  0.115251076  0.000000000
     0.000000000  0.000000000 11.218000412     0.000000000  0.000000000  0.089142446

  length of vectors
    10.019000053 10.019000053 11.218000412     0.115251076  0.115251076  0.089142446


 
 k-points in units of 2pi/SCALE and weight: read from INCAR                         
   0.00000000  0.00000000  0.00000000       0.125
   0.04990518  0.02881277 -0.00000000       0.125
   0.00000000  0.05762554  0.00000000       0.125
   0.04990518  0.08643831 -0.00000000       0.125
   0.00000000  0.00000000  0.04457122       0.125
   0.04990518  0.02881277  0.04457122       0.125
   0.00000000  0.05762554  0.04457122       0.125
   0.04990518  0.08643831  0.04457122       0.125
 
 k-points in reciprocal lattice and weights: read from INCAR                         
   0.00000000  0.00000000  0.00000000       0.125
   0.50000000 -0.00000000 -0.00000000       0.125
   0.00000000  0.50000000  0.00000000       0.125
   0.50000000  0.50000000 -0.00000000       0.125
   0.00000000  0.00000000  0.50000000       0.125
   0.50000000 -0.00000000  0.50000000       0.125
   0.00000000  0.50000000  0.50000000       0.125
   0.50000000  0.50000000  0.50000000       0.125
 
 position of ions in fractional coordinates (direct lattice) 
   0.84647909  0.09153487  0.25434658
   0.00030571  0.22239803  0.74974859
   0.13690944  0.62808576  0.73667674
   0.38437001  0.40079912  0.75226330
   0.98135965  0.43489417  0.24292386
   0.64697063  0.38598639  0.25350775
   0.32397438  0.04782903  0.74688266
   0.65069964  0.10015763  0.74632285
   0.48122203  0.92930301  0.24988589
   0.35324356  0.57739242  0.25320466
   0.32004743  0.24848890  0.24234087
   0.92847131  0.89285239  0.74951949
   0.49585592  0.74735614  0.75183809
   0.77486677  0.52178657  0.74571490
   0.81680770  0.75572337  0.24411837
   0.15748049  0.87471747  0.25248974
   0.64993610  0.23685594  0.00122088
   0.64417640  0.23853746  0.49904527
   0.14665804  0.22751830  0.00719035
   0.15406997  0.24007606  0.49449811
   0.14769348  0.73036451  0.00522371
   0.14117335  0.74099527  0.49348189
   0.65234911  0.72520126  0.99956091
   0.63985092  0.73491693  0.49227935
   0.97563047  0.89108329  0.00291824
   0.32112184  0.05846088  0.99936326
   0.99110745  0.91898903  0.49517024
   0.31615585  0.07333576  0.49658493
   0.48386008  0.88971756  0.99955425
   0.81219280  0.06239739  0.99931357
   0.48996675  0.90932984  0.50640754
   0.81788221  0.07739732  0.50914867
   0.48292157  0.39152635  0.00733945
   0.82208299  0.56495847  0.00229421
   0.48368556  0.41285471  0.48789265
   0.81285043  0.57589349  0.48667586
   0.98008891  0.39535499  0.00155651
   0.31924126  0.56397768  0.99604562
   0.98220247  0.40219514  0.50563289
   0.31039247  0.57084204  0.51306648
   0.15893788  0.05669800  0.09268586
   0.33105589  0.89205688  0.09021572
   0.47510639  0.22531009  0.09506418
   0.15814849  0.92749970  0.58345068
   0.32813350  0.24527388  0.58541717
   0.47936808  0.06738373  0.59906577
   0.15466485  0.89785551  0.90102511
   0.32646756  0.23026819  0.91091992
   0.47790914  0.05560069  0.91000175
   0.16618889  0.07354955  0.40030753
   0.33096235  0.90584725  0.41610624
   0.47370716  0.23662083  0.40038686
   0.64927421  0.04547727  0.09823141
   0.82782080  0.90813187  0.09233553
   0.96621134  0.22587713  0.09742645
   0.64657045  0.90799668  0.60020411
   0.82120129  0.24467227  0.59765286
   0.98366831  0.07178817  0.59193259
   0.65289601  0.89985730  0.90732748
   0.82493898  0.23551327  0.90835261
   0.97808541  0.05699926  0.91088426
   0.64443400  0.05797671  0.41338205
   0.83740671  0.92284217  0.40810838
   0.97166699  0.24231193  0.41076661
   0.65618260  0.55597234  0.09496077
   0.82562162  0.40985588  0.09585666
   0.97152267  0.73265109  0.09407381
   0.65369059  0.42498373  0.58159652
   0.83977867  0.75235903  0.58356033
   0.96132345  0.56034727  0.59130413
   0.65817593  0.42067565  0.91120517
   0.82300281  0.73647973  0.90982346
   0.97425503  0.55328699  0.91261362
   0.65242402  0.56826157  0.39421375
   0.82605406  0.41844208  0.40394810
   0.98281584  0.75760295  0.39865750
   0.15240216  0.54745529  0.09469424
   0.33653415  0.40962883  0.09986450
   0.47386554  0.73165763  0.08849251
   0.14457225  0.41134492  0.59840165
   0.31496188  0.73317318  0.60088605
   0.46662063  0.55269230  0.59004812
   0.14918051  0.39455745  0.91454801
   0.33047202  0.73147784  0.91268494
   0.47408475  0.55858970  0.91104472
   0.14471326  0.55322130  0.41000355
   0.33333453  0.42684273  0.39615171
   0.47321563  0.74391804  0.41126313
 
 position of ions in cartesian coordinates  (Angst):
   8.02233008  0.79422143  2.85326000
  -1.11104000  1.92968287  8.41068000
  -1.77469995  5.44971713  8.26404000
   1.84319995  3.47761713  8.43889000
   7.65364000  3.77345000  2.72512000
   4.54839992  3.34909143  2.84385000
   3.00629981  0.41499857  8.37853000
   6.01762003  0.86903857  8.37225000
   0.16602003  8.06329143  2.80322000
   0.64669989  5.00986573  2.84045000
   1.96175005  2.15606573  2.71858000
   4.82961005  7.74702000  8.40811000
   1.22409992  6.48459143  8.43412000
   5.14950037  4.52739000  8.36543000
   4.39780013  6.55719143  2.73852000
  -2.80410013  7.58966857  2.83243000
   5.32518000  2.05513000  0.01369580
   5.25905000  2.06972000  5.59829000
   0.32961400  1.97411000  0.08066140
   0.34096600  2.08307000  5.54728000
  -2.17902000  6.33716000  0.05859959
  -2.29760000  6.42940000  5.53588000
   2.90299000  6.29236000 11.21307467
   2.72910000  6.37666000  5.52239000
   5.31096000  7.73167000  0.03273680
   2.92446000  0.50724800 11.21085749
   5.32623000  7.97380000  5.55482000
   2.80019000  0.63631300  5.57069000
   0.39075400  7.71982000 11.21300000
   7.82478000  0.54140400 11.21030000
   0.35368900  7.88999000  5.68088000
   7.80664000  0.67155400  5.71163000
   2.87704000  3.39716000  0.08233390
   5.40629000  4.90198000  0.02573640
   2.77785000  3.58222000  5.47318000
   5.25901000  4.99686000  5.45953000
   7.83898000  3.43038000  0.01746090
   0.37323200  4.89347000 11.17364021
   7.82589000  3.48973000  5.67219000
   0.25018900  4.95303000  5.75558000
   1.30837000  0.49195200  1.03975000
  -1.15191003  7.74011757  1.01204000
   3.63140000  1.95495000  1.06643000
  -3.06182003  8.04764457  6.54515000
   2.05887000  2.12817000  6.56721000
   4.46523000  0.58466900  6.72032000
  -2.94822003  7.79043057 10.10770000
   2.11735000  1.99797000 10.21870000
   4.50964000  0.48243100 10.20840000
   1.29660000  0.63816800  4.49065000
  -1.22193003  7.85977257  4.66788000
   3.56072000  2.05309000  4.49154000
   6.27726000  0.39459300  1.10196000
   3.74464997  7.87959557  1.03582000
   8.54894000  1.95987000  1.09293000
   1.92937997  7.87842257  6.73309000
   7.00193000  2.12295000  6.70447000
   9.49575000  0.62288500  6.64030000
   2.03352997  7.80779957 10.17840000
   7.08526000  2.04348000 10.18990000
   9.51390000  0.49456600 10.21830000
   6.16615000  0.50304700  4.63732000
   3.76699997  8.00723257  4.57816000
   8.52127000  2.10247000  4.60798000
   3.78915000  4.82401000  1.06527000
   6.21873000  3.55620000  1.07532000
   6.06347000  6.35700000  1.05532000
   4.42037000  3.68746000  6.52435000
   4.64480000  6.52800000  6.54638000
   6.82444000  4.86197000  6.63325000
   4.48689000  3.65008000 10.22190000
   4.55627000  6.39022000 10.20640000
   6.98937000  4.80071000 10.23770000
   3.68993000  4.93064000  4.42229000
   6.18005000  3.63070000  4.53149000
   6.05162000  6.57350000  4.47214000
  -1.21556000  4.75011000  1.06228000
   1.31970000  3.55423000  1.12028000
   1.08242000  6.34838000  0.99270900
  -0.61216300  3.56912000  6.71287000
  -0.51722800  6.36153000  6.74074000
   1.90636000  4.79555000  6.61916000
  -0.48189600  3.42346000 10.25940000
  -0.35333900  6.34682000 10.23850000
   1.95160000  4.84672000 10.22010000
  -1.32148000  4.80014000  4.59942000
   1.20141000  3.70359000  4.44403000
   1.01449000  6.45476000  4.61355000
 


--------------------------------------------------------------------------------------------------------


 k-point  1 :   0.0000 0.0000 0.0000  plane waves:   17725
 k-point  2 :   0.5000-0.0000-0.0000  plane waves:   17736
 k-point  3 :   0.0000 0.5000 0.0000  plane waves:   17736
 k-point  4 :   0.5000 0.5000-0.0000  plane waves:   17736
 k-point  5 :   0.0000 0.0000 0.5000  plane waves:   17676
 k-point  6 :   0.5000-0.0000 0.5000  plane waves:   17700
 k-point  7 :   0.0000 0.5000 0.5000  plane waves:   17700
 k-point  8 :   0.5000 0.5000 0.5000  plane waves:   17700

 maximum and minimum number of plane-waves per node :     17736    17676

 maximum number of plane-waves:     17736
 maximum index in each direction: 
   IXMAX=   16   IYMAX=   16   IZMAX=   18
   IXMIN=  -16   IYMIN=  -16   IZMIN=  -18


 serial   3D FFT for wavefunctions
 parallel 3D FFT for charge:
    minimum data exchange during FFTs selected (reduces bandwidth)


 total amount of memory used by VASP MPI-rank0    94432. kBytes
=======================================================================

   base      :      30000. kBytes
   nonlr-proj:      13673. kBytes
   fftplans  :       1275. kBytes
   grid      :      22786. kBytes
   one-center:       2737. kBytes
   wavefun   :      23961. kBytes
 
     INWAV:  cpu time    0.0000: real time    0.0001
 Broyden mixing: mesh for mixing (old mesh)
   NGX = 33   NGY = 33   NGZ = 37
  (NGX  =100   NGY  =100   NGZ  =112)
  gives a total of  40293 points

 initial charge density was supplied:
 charge density of overlapping atoms calculated
 number of electron     672.0000000 magnetization      48.0000000
 keeping initial charge density in first step


--------------------------------------------------------------------------------------------------------


 Maximum index for non-local projection operator         1548
 Maximum index for augmentation-charges          554 (set IRDMAX)


--------------------------------------------------------------------------------------------------------


 First call to EWALD:  gamma=   0.179
 Maximum number of real-space cells 3x 3x 2
 Maximum number of reciprocal cells 3x 3x 3

    FEWALD:  cpu time    0.0026: real time    0.0026


--------------------------------------- Iteration      1(   1)  ---------------------------------------


    POTLOK:  cpu time    0.1884: real time    0.1975
    SETDIJ:  cpu time    4.6681: real time    4.6694
    EDDIAG:  cpu time    4.3837: real time    4.7955
  RMM-DIIS:  cpu time    9.0671: real time    9.0996
    ORTHCH:  cpu time    1.2180: real time    1.3008
       DOS:  cpu time    0.0047: real time    0.0049
    --------------------------------------------
      LOOP:  cpu time   19.5301: real time   20.0677

 eigenvalue-minimisations  :  7680
 total energy-change (2. order) : 0.1603980E+04  (-0.3496579E+05)
 number of electron     672.0000000 magnetization      48.0000000
 augmentation part      672.0000000 magnetization      48.0000000

 Free energy of the ion-electron system (eV)
  ---------------------------------------------------
  alpha Z        PSCENC =      2652.81237852
  Ewald energy   TEWEN  =    -41808.38975012
  -Hartree energ DENC   =    -25799.84165289
  -exchange      EXHF   =         0.00000000
  -V(xc)+E(xc)   XCENC  =      3606.11039192
  PAW double counting   =     55594.23204139   -59034.67079123
  entropy T*S    EENTRO =        -0.06022131
  eigenvalues    EBANDS =     -7468.41052839
  atomic energy  EATOM  =     73862.19814772
  Solvation  Ediel_sol  =         0.00000000
  ---------------------------------------------------
  free energy    TOTEN  =      1603.98001561 eV

  energy without entropy =     1604.04023692  energy(sigma->0) =     1604.01012627


--------------------------------------------------------------------------------------------------------




--------------------------------------- Iteration      1(   2)  ---------------------------------------


    EDDIAG:  cpu time    4.3652: real time    4.7756
  RMM-DIIS:  cpu time    9.1079: real time    9.1184
    ORTHCH:  cpu time    1.1489: real time    1.2330
       DOS:  cpu time    0.0019: real time    0.0019
    --------------------------------------------
      LOOP:  cpu time   14.6240: real time   15.1289

 eigenvalue-minimisations  :  7680
 total energy-change (2. order) :-0.2337916E+04  (-0.8041892E+04)
 number of electron     672.0000000 magnetization      48.0000000
 augmentation part      672.0000000 magnetization      48.0000000

 Free energy of the ion-electron system (eV)
  ---------------------------------------------------
  alpha Z        PSCENC =      2652.81237852
  Ewald energy   TEWEN  =    -41808.38975012
  -Hartree energ DENC   =    -25799.84165289
  -exchange      EXHF   =         0.00000000
  -V(xc)+E(xc)   XCENC  =      3606.11039192
  PAW double counting   =     55594.23204139   -59034.67079123
  entropy T*S    EENTRO =        -0.04809942
  eigenvalues    EBANDS =     -9806.33844506
  atomic energy  EATOM  =     73862.19814772
  Solvation  Ediel_sol  =         0.00000000
  ---------------------------------------------------
  free energy    TOTEN  =      -733.93577918 eV

  energy without entropy =     -733.88767976  energy(sigma->0) =     -733.91172947


--------------------------------------------------------------------------------------------------------




--------------------------------------- Iteration      1(   3)  ---------------------------------------


    EDDIAG:  cpu time    4.3742: real time    4.7816
  RMM-DIIS:  cpu time    9.0580: real time    9.1017
    ORTHCH:  cpu time    1.1755: real time    1.2581
       DOS:  cpu time    0.0022: real time    0.0022
    --------------------------------------------
      LOOP:  cpu time   14.6099: real time   15.1436

 eigenvalue-minimisations  :  7680
 total energy-change (2. order) : 0.8599921E+02  (-0.1422112E+04)
 number of electron     672.0000000 magnetization      48.0000000
 augmentation part      672.0000000 magnetization      48.0000000

 Free energy of the ion-electron system (eV)
  ---------------------------------------------------
  alpha Z        PSCENC =      2652.81237852
  Ewald energy   TEWEN  =    -41808.38975012
  -Hartree energ DENC   =    -25799.84165289
  -exchange      EXHF   =         0.00000000
  -V(xc)+E(xc)   XCENC  =      3606.11039192
  PAW double counting   =     55594.23204139   -59034.67079123
  entropy T*S    EENTRO =        -0.04328547
  eigenvalues    EBANDS =     -9720.34404431
  atomic energy  EATOM  =     73862.19814772
  Solvation  Ediel_sol  =         0.00000000
  ---------------------------------------------------
  free energy    TOTEN  =      -647.93656448 eV

  energy without entropy =     -647.89327900  energy(sigma->0) =     -647.91492174


--------------------------------------------------------------------------------------------------------




--------------------------------------- Iteration      1(   4)  ---------------------------------------


    EDDIAG:  cpu time    4.3486: real time    4.7677
  RMM-DIIS:  cpu time    9.0934: real time    9.1019
    ORTHCH:  cpu time    1.1513: real time    1.2328
       DOS:  cpu time    0.0017: real time    0.0017
    --------------------------------------------
      LOOP:  cpu time   14.5950: real time   15.1041

 eigenvalue-minimisations  :  7680
 total energy-change (2. order) :-0.4650226E+03  (-0.4291124E+03)
 number of electron     672.0000000 magnetization      48.0000000
 augmentation part      672.0000000 magnetization      48.0000000

 Free energy of the ion-electron system (eV)
  ---------------------------------------------------
  alpha Z        PSCENC =      2652.81237852
  Ewald energy   TEWEN  =    -41808.38975012
  -Hartree energ DENC   =    -25799.84165289
  -exchange      EXHF   =         0.00000000
  -V(xc)+E(xc)   XCENC  =      3606.11039192
  PAW double counting   =     55594.23204139   -59034.67079123
  entropy T*S    EENTRO =        -0.00000000
  eigenvalues    EBANDS =    -10185.40988707
  atomic energy  EATOM  =     73862.19814772
  Solvation  Ediel_sol  =         0.00000000
  ---------------------------------------------------
  free energy    TOTEN  =     -1112.95912176 eV

  energy without entropy =    -1112.95912176  energy(sigma->0) =    -1112.95912176


--------------------------------------------------------------------------------------------------------




--------------------------------------- Iteration      1(   5)  ---------------------------------------


    EDDIAG:  cpu time    4.3497: real time    4.7697
  RMM-DIIS:  cpu time    9.0593: real time    9.1150
    ORTHCH:  cpu time    1.1961: real time    1.2762
       DOS:  cpu time    0.0011: real time    0.0011
    --------------------------------------------
      LOOP:  cpu time   14.6062: real time   15.1620

 eigenvalue-minimisations  :  7680
 total energy-change (2. order) :-0.1038094E+03  (-0.1596321E+03)
 number of electron     672.0000000 magnetization      48.0000000
 augmentation part      672.0000000 magnetization      48.0000000

 Free energy of the ion-electron system (eV)
  ---------------------------------------------------
  alpha Z        PSCENC =      2652.81237852
  Ewald energy   TEWEN  =    -41808.38975012
  -Hartree energ DENC   =    -25799.84165289
  -exchange      EXHF   =         0.00000000
  -V(xc)+E(xc)   XCENC  =      3606.11039192
  PAW double counting   =     55594.23204139   -59034.67079123
  entropy T*S    EENTRO =        -0.00000000
  eigenvalues    EBANDS =    -10289.21930251
  atomic energy  EATOM  =     73862.19814772
  Solvation  Ediel_sol  =         0.00000000
  ---------------------------------------------------
  free energy    TOTEN  =     -1216.76853720 eV

  energy without entropy =    -1216.76853720  energy(sigma->0) =    -1216.76853720


--------------------------------------------------------------------------------------------------------




--------------------------------------- Iteration      1(   6)  ---------------------------------------


    EDDIAG:  cpu time    4.3466: real time    4.7677
  RMM-DIIS:  cpu time    9.0843: real time    9.0941
    ORTHCH:  cpu time    1.1489: real time    1.2320
       DOS:  cpu time    0.0029: real time    0.0029
    --------------------------------------------
      LOOP:  cpu time   14.5826: real time   15.0967

 eigenvalue-minimisations  :  7680
 total energy-change (2. order) :-0.8774154E+01  (-0.7908016E+02)
 number of electron     672.0000000 magnetization      48.0000000
 augmentation part      672.0000000 magnetization      48.0000000

 Free energy of the ion-electron system (eV)
  ---------------------------------------------------
  alpha Z        PSCENC =      2652.81237852
  Ewald energy   TEWEN  =    -41808.38975012
  -Hartree energ DENC   =    -25799.84165289
  -exchange      EXHF   =         0.00000000
  -V(xc)+E(xc)   XCENC  =      3606.11039192
  PAW double counting   =     55594.23204139   -59034.67079123
  entropy T*S    EENTRO =        -0.00000000
  eigenvalues    EBANDS =    -10297.99345608
  atomic energy  EATOM  =     73862.19814772
  Solvation  Ediel_sol  =         0.00000000
  ---------------------------------------------------
  free energy    TOTEN  =     -1225.54269078 eV

  energy without entropy =    -1225.54269078  energy(sigma->0) =    -1225.54269078


--------------------------------------------------------------------------------------------------------




--------------------------------------- Iteration      1(   7)  ---------------------------------------


    EDDIAG:  cpu time    4.3615: real time    4.7662
  RMM-DIIS:  cpu time    9.0499: real time    9.0934
    ORTHCH:  cpu time    1.1718: real time    1.2575
       DOS:  cpu time    0.0013: real time    0.0013
    --------------------------------------------
      LOOP:  cpu time   14.5844: real time   15.1184

 eigenvalue-minimisations  :  7680
 total energy-change (2. order) :-0.1766958E+01  (-0.4808662E+02)
 number of electron     672.0000000 magnetization      48.0000000
 augmentation part      672.0000000 magnetization      48.0000000

 Free energy of the ion-electron system (eV)
  ---------------------------------------------------
  alpha Z        PSCENC =      2652.81237852
  Ewald energy   TEWEN  =    -41808.38975012
  -Hartree energ DENC   =    -25799.84165289
  -exchange      EXHF   =         0.00000000
  -V(xc)+E(xc)   XCENC  =      3606.11039192
  PAW double counting   =     55594.23204139   -59034.67079123
  entropy T*S    EENTRO =        -0.00000000
  eigenvalues    EBANDS =    -10299.76041369
  atomic energy  EATOM  =     73862.19814772
  Solvation  Ediel_sol  =         0.00000000
  ---------------------------------------------------
  free energy    TOTEN  =     -1227.30964839 eV

  energy without entropy =    -1227.30964839  energy(sigma->0) =    -1227.30964839


--------------------------------------------------------------------------------------------------------




--------------------------------------- Iteration      1(   8)  ---------------------------------------


    EDDIAG:  cpu time    4.3565: real time    4.7673
  RMM-DIIS:  cpu time    9.0967: real time    9.1046
    ORTHCH:  cpu time    1.1508: real time    1.2310
       DOS:  cpu time    0.0013: real time    0.0013
    --------------------------------------------
      LOOP:  cpu time   14.6053: real time   15.1042

 eigenvalue-minimisations  :  7680
 total energy-change (2. order) : 0.4985571E+01  (-0.2977739E+02)
 number of electron     672.0000000 magnetization      48.0000000
 augmentation part      672.0000000 magnetization      48.0000000

 Free energy of the ion-electron system (eV)
  ---------------------------------------------------
  alpha Z        PSCENC =      2652.81237852
  Ewald energy   TEWEN  =    -41808.38975012
  -Hartree energ DENC   =    -25799.84165289
  -exchange      EXHF   =         0.00000000
  -V(xc)+E(xc)   XCENC  =      3606.11039192
  PAW double counting   =     55594.23204139   -59034.67079123
  entropy T*S    EENTRO =        -0.00000000
  eigenvalues    EBANDS =    -10294.77484302
  atomic energy  EATOM  =     73862.19814772
  Solvation  Ediel_sol  =         0.00000000
  ---------------------------------------------------
  free energy    TOTEN  =     -1222.32407771 eV

  energy without entropy =    -1222.32407771  energy(sigma->0) =    -1222.32407771


--------------------------------------------------------------------------------------------------------




--------------------------------------- Iteration      1(   9)  ---------------------------------------


    EDDIAG:  cpu time    4.3463: real time    4.7625
  RMM-DIIS:  cpu time   19.1058: real time   19.1550
    ORTHCH:  cpu time    1.1478: real time    1.2278
       DOS:  cpu time    0.0014: real time    0.0014
    --------------------------------------------
      LOOP:  cpu time   24.6014: real time   25.1468

 eigenvalue-minimisations  : 21788
 total energy-change (2. order) : 0.9192620E+01  (-0.1309426E+02)
 number of electron     672.0000000 magnetization      48.0000000
 augmentation part      672.0000000 magnetization      48.0000000

 Free energy of the ion-electron system (eV)
  ---------------------------------------------------
  alpha Z        PSCENC =      2652.81237852
  Ewald energy   TEWEN  =    -41808.38975012
  -Hartree energ DENC   =    -25799.84165289
  -exchange      EXHF   =         0.00000000
  -V(xc)+E(xc)   XCENC  =      3606.11039192
  PAW double counting   =     55594.23204139   -59034.67079123
  entropy T*S    EENTRO =        -0.00000000
  eigenvalues    EBANDS =    -10285.58222301
  atomic energy  EATOM  =     73862.19814772
  Solvation  Ediel_sol  =         0.00000000
  ---------------------------------------------------
  free energy    TOTEN  =     -1213.13145770 eV

  energy without entropy =    -1213.13145770  energy(sigma->0) =    -1213.13145770


--------------------------------------------------------------------------------------------------------




--------------------------------------- Iteration      1(  10)  ---------------------------------------


    EDDIAG:  cpu time    4.3753: real time    4.7928
  RMM-DIIS:  cpu time   17.7741: real time   17.9034
    ORTHCH:  cpu time    1.1520: real time    1.2328
       DOS:  cpu time    0.0014: real time    0.0014
    --------------------------------------------
      LOOP:  cpu time   23.3028: real time   23.9304

 eigenvalue-minimisations  : 19807
 total energy-change (2. order) :-0.1833421E+01  (-0.5174540E+00)
 number of electron     672.0000000 magnetization      48.0000000
 augmentation part      672.0000000 magnetization      48.0000000

 Free energy of the ion-electron system (eV)
  ---------------------------------------------------
  alpha Z        PSCENC =      2652.81237852
  Ewald energy   TEWEN  =    -41808.38975012
  -Hartree energ DENC   =    -25799.84165289
  -exchange      EXHF   =         0.00000000
  -V(xc)+E(xc)   XCENC  =      3606.11039192
  PAW double counting   =     55594.23204139   -59034.67079123
  entropy T*S    EENTRO =        -0.00000000
  eigenvalues    EBANDS =    -10287.41564432
  atomic energy  EATOM  =     73862.19814772
  Solvation  Ediel_sol  =         0.00000000
  ---------------------------------------------------
  free energy    TOTEN  =     -1214.96487901 eV

  energy without entropy =    -1214.96487901  energy(sigma->0) =    -1214.96487901


--------------------------------------------------------------------------------------------------------




--------------------------------------- Iteration      1(  11)  ---------------------------------------


    EDDIAG:  cpu time    4.3598: real time    4.7696
  RMM-DIIS:  cpu time   19.5116: real time   19.6011
    ORTHCH:  cpu time    1.1844: real time    1.2658
       DOS:  cpu time    0.0024: real time    0.0024
    --------------------------------------------
      LOOP:  cpu time   25.0581: real time   25.6389

 eigenvalue-minimisations  : 22648
 total energy-change (2. order) : 0.6635428E-01  (-0.4285906E-01)
 number of electron     672.0000000 magnetization      48.0000000
 augmentation part      672.0000000 magnetization      48.0000000

 Free energy of the ion-electron system (eV)
  ---------------------------------------------------
  alpha Z        PSCENC =      2652.81237852
  Ewald energy   TEWEN  =    -41808.38975012
  -Hartree energ DENC   =    -25799.84165289
  -exchange      EXHF   =         0.00000000
  -V(xc)+E(xc)   XCENC  =      3606.11039192
  PAW double counting   =     55594.23204139   -59034.67079123
  entropy T*S    EENTRO =        -0.00000000
  eigenvalues    EBANDS =    -10287.34929004
  atomic energy  EATOM  =     73862.19814772
  Solvation  Ediel_sol  =         0.00000000
  ---------------------------------------------------
  free energy    TOTEN  =     -1214.89852473 eV

  energy without entropy =    -1214.89852473  energy(sigma->0) =    -1214.89852473


--------------------------------------------------------------------------------------------------------




--------------------------------------- Iteration      1(  12)  ---------------------------------------


    EDDIAG:  cpu time    4.3572: real time    4.7675
  RMM-DIIS:  cpu time   21.7391: real time   21.7785
    ORTHCH:  cpu time    1.1484: real time    1.2306
       DOS:  cpu time    0.0015: real time    0.0015
    CHARGE:  cpu time    1.7865: real time    1.7885
    MIXING:  cpu time    0.0074: real time    0.0075
    --------------------------------------------
      LOOP:  cpu time   29.0401: real time   29.5742

 eigenvalue-minimisations  : 24364
 total energy-change (2. order) :-0.4694526E-03  (-0.4077771E-02)
 number of electron     672.0000358 magnetization      48.0000026
 augmentation part      239.0895261 magnetization      29.0447597

 Broyden mixing:
  rms(total) = 0.12532E+02    rms(broyden)= 0.12523E+02
  rms(prec ) = 0.14393E+02
  weight for this iteration     100.00

 Free energy of the ion-electron system (eV)
  ---------------------------------------------------
  alpha Z        PSCENC =      2652.81237852
  Ewald energy   TEWEN  =    -41808.38975012
  -Hartree energ DENC   =    -25799.84165289
  -exchange      EXHF   =         0.00000000
  -V(xc)+E(xc)   XCENC  =      3606.11039192
  PAW double counting   =     55594.23204139   -59034.67079123
  entropy T*S    EENTRO =        -0.00000000
  eigenvalues    EBANDS =    -10287.34975949
  atomic energy  EATOM  =     73862.19814772
  Solvation  Ediel_sol  =         0.00000000
  ---------------------------------------------------
  free energy    TOTEN  =     -1214.89899418 eV

  energy without entropy =    -1214.89899418  energy(sigma->0) =    -1214.89899418


--------------------------------------------------------------------------------------------------------




--------------------------------------- Iteration      1(  13)  ---------------------------------------


    POTLOK:  cpu time    0.1734: real time    0.1747
    SETDIJ:  cpu time    5.0129: real time    5.0142
    EDDIAG:  cpu time    4.3468: real time    4.7648
  RMM-DIIS:  cpu time   17.3730: real time   17.3976
    ORTHCH:  cpu time    1.1472: real time    1.2277
       DOS:  cpu time    0.0015: real time    0.0015
    CHARGE:  cpu time    1.8054: real time    1.8070
    MIXING:  cpu time    0.0021: real time    0.0022
    --------------------------------------------
      LOOP:  cpu time   29.8624: real time   30.3897

 eigenvalue-minimisations  : 18781
 total energy-change (2. order) : 0.2280967E+03  (-0.1224004E+03)
 number of electron     672.0000324 magnetization      48.0000034
 augmentation part      269.1061608 magnetization      26.4067494

 Broyden mixing:
  rms(total) = 0.13989E+02    rms(broyden)= 0.13986E+02
  rms(prec ) = 0.15759E+02
  weight for this iteration     100.00

 eigenvalues of (default mixing * dielectric matrix)
  average eigenvalue GAMMA=   0.3171
  0.3171

 Free energy of the ion-electron system (eV)
  ---------------------------------------------------
  alpha Z        PSCENC =      2652.81237852
  Ewald energy   TEWEN  =    -41808.38975012
  -Hartree energ DENC   =    -25131.88454384
  -exchange      EXHF   =         0.00000000
  -V(xc)+E(xc)   XCENC  =      3696.36449891
  PAW double counting   =     59883.97314536   -63309.44029599
  entropy T*S    EENTRO =        -0.07274807
  eigenvalues    EBANDS =    -10832.36316717
  atomic energy  EATOM  =     73862.19814772
  Solvation  Ediel_sol  =         0.00000000
  ---------------------------------------------------
  free energy    TOTEN  =      -986.80233468 eV

  energy without entropy =     -986.72958661  energy(sigma->0) =     -986.76596064


--------------------------------------------------------------------------------------------------------




--------------------------------------- Iteration      1(  14)  ---------------------------------------


    POTLOK:  cpu time    0.1737: real time    0.1737
    SETDIJ:  cpu time    5.0009: real time    5.0028
    EDDIAG:  cpu time    4.3541: real time    4.7659
  RMM-DIIS:  cpu time   17.7790: real time   17.8214
    ORTHCH:  cpu time    1.1603: real time    1.2407
       DOS:  cpu time    0.0020: real time    0.0020
    CHARGE:  cpu time    1.7831: real time    1.7837
    MIXING:  cpu time    0.0010: real time    0.0010
    --------------------------------------------
      LOOP:  cpu time   30.2541: real time   30.7913

 eigenvalue-minimisations  : 19369
 total energy-change (2. order) : 0.7055560E+02  (-0.1767575E+02)
 number of electron     672.0000347 magnetization      48.0000054
 augmentation part      246.6071838 magnetization      32.1610033

 Broyden mixing:
  rms(total) = 0.52711E+01    rms(broyden)= 0.52667E+01
  rms(prec ) = 0.57115E+01
  weight for this iteration     100.00

 eigenvalues of (default mixing * dielectric matrix)
  average eigenvalue GAMMA=   0.7275
  1.0979  0.3572

 Free energy of the ion-electron system (eV)
  ---------------------------------------------------
  alpha Z        PSCENC =      2652.81237852
  Ewald energy   TEWEN  =    -41808.38975012
  -Hartree energ DENC   =    -25744.12447810
  -exchange      EXHF   =         0.00000000
  -V(xc)+E(xc)   XCENC  =      3673.64384237
  PAW double counting   =     63261.23255920   -66743.84197507
  entropy T*S    EENTRO =        -0.00000000
  eigenvalues    EBANDS =    -10069.77746097
  atomic energy  EATOM  =     73862.19814772
  Solvation  Ediel_sol  =         0.00000000
  ---------------------------------------------------
  free energy    TOTEN  =      -916.24673646 eV

  energy without entropy =     -916.24673646  energy(sigma->0) =     -916.24673646


--------------------------------------------------------------------------------------------------------




--------------------------------------- Iteration      1(  15)  ---------------------------------------


    POTLOK:  cpu time    0.1693: real time    0.1702
    SETDIJ:  cpu time    5.0132: real time    5.0141
    EDDIAG:  cpu time    4.3496: real time    4.7637
  RMM-DIIS:  cpu time   18.0158: real time   18.0769
    ORTHCH:  cpu time    1.1705: real time    1.2540
       DOS:  cpu time    0.0017: real time    0.0017
    CHARGE:  cpu time    1.7872: real time    1.7880
    MIXING:  cpu time    0.0009: real time    0.0009
    --------------------------------------------
      LOOP:  cpu time   30.5083: real time   31.0696

 eigenvalue-minimisations  : 20230
 total energy-change (2. order) : 0.1450135E+02  (-0.2161481E+01)
 number of electron     672.0000344 magnetization      48.0000067
 augmentation part      249.6863076 magnetization      33.8121300

 Broyden mixing:
  rms(total) = 0.22363E+01    rms(broyden)= 0.22360E+01
  rms(prec ) = 0.23234E+01
  weight for this iteration     100.00

 eigenvalues of (default mixing * dielectric matrix)
  average eigenvalue GAMMA=   0.9187
  1.6402  0.3832  0.7327

 Free energy of the ion-electron system (eV)
  ---------------------------------------------------
  alpha Z        PSCENC =      2652.81237852
  Ewald energy   TEWEN  =    -41808.38975012
  -Hartree energ DENC   =    -25668.14864260
  -exchange      EXHF   =         0.00000000
  -V(xc)+E(xc)   XCENC  =      3706.82420410
  PAW double counting   =     67306.20496892   -70829.00310084
  entropy T*S    EENTRO =        -0.00000000
  eigenvalues    EBANDS =    -10124.24359082
  atomic energy  EATOM  =     73862.19814772
  Solvation  Ediel_sol  =         0.00000000
  ---------------------------------------------------
  free energy    TOTEN  =      -901.74538512 eV

  energy without entropy =     -901.74538512  energy(sigma->0) =     -901.74538512


--------------------------------------------------------------------------------------------------------




--------------------------------------- Iteration      1(  16)  ---------------------------------------


    POTLOK:  cpu time    0.1685: real time    0.1695
    SETDIJ:  cpu time    5.0727: real time    5.0737
    EDDIAG:  cpu time    4.3532: real time    4.7654
  RMM-DIIS:  cpu time   17.4923: real time   17.5202
    ORTHCH:  cpu time    1.1731: real time    1.2574
       DOS:  cpu time    0.0014: real time    0.0014
    CHARGE:  cpu time    1.7893: real time    1.7901
    MIXING:  cpu time    0.0009: real time    0.0009
    --------------------------------------------
      LOOP:  cpu time   30.0514: real time   30.5785

 eigenvalue-minimisations  : 19127
 total energy-change (2. order) :-0.1407591E+01  (-0.6518424E+00)
 number of electron     672.0000339 magnetization      48.0000071
 augmentation part      251.1139610 magnetization      33.9152852

 Broyden mixing:
  rms(total) = 0.15375E+01    rms(broyden)= 0.15370E+01
  rms(prec ) = 0.16191E+01
  weight for this iteration     100.00

 eigenvalues of (default mixing * dielectric matrix)
  average eigenvalue GAMMA=   0.9636
  2.0736  0.8901  0.3898  0.5007

 Free energy of the ion-electron system (eV)
  ---------------------------------------------------
  alpha Z        PSCENC =      2652.81237852
  Ewald energy   TEWEN  =    -41808.38975012
  -Hartree energ DENC   =    -25620.96016703
  -exchange      EXHF   =         0.00000000
  -V(xc)+E(xc)   XCENC  =      3707.86105602
  PAW double counting   =     70152.06449724   -73703.64421586
  entropy T*S    EENTRO =        -0.00000000
  eigenvalues    EBANDS =    -10145.09492212
  atomic energy  EATOM  =     73862.19814772
  Solvation  Ediel_sol  =         0.00000000
  ---------------------------------------------------
  free energy    TOTEN  =      -903.15297563 eV

  energy without entropy =     -903.15297563  energy(sigma->0) =     -903.15297563


--------------------------------------------------------------------------------------------------------




--------------------------------------- Iteration      1(  17)  ---------------------------------------


    POTLOK:  cpu time    0.1728: real time    0.1729
    SETDIJ:  cpu time    5.0737: real time    5.0749
    EDDIAG:  cpu time    4.3483: real time    4.7628
  RMM-DIIS:  cpu time   18.4611: real time   18.5080
    ORTHCH:  cpu time    1.1438: real time    1.2258
       DOS:  cpu time    0.0013: real time    0.0013
    CHARGE:  cpu time    1.7885: real time    1.7890
    MIXING:  cpu time    0.0020: real time    0.0020
    --------------------------------------------
      LOOP:  cpu time   30.9915: real time   31.5366

 eigenvalue-minimisations  : 20534
 total energy-change (2. order) : 0.8817222E-01  (-0.8165506E-01)
 number of electron     672.0000340 magnetization      48.0000073
 augmentation part      251.1604301 magnetization      33.9175976

 Broyden mixing:
  rms(total) = 0.80308E+00    rms(broyden)= 0.80290E+00
  rms(prec ) = 0.90799E+00
  weight for this iteration     100.00

 eigenvalues of (default mixing * dielectric matrix)
  average eigenvalue GAMMA=   0.9838
  2.2193  1.1013  0.3780  0.6738  0.5467

 Free energy of the ion-electron system (eV)
  ---------------------------------------------------
  alpha Z        PSCENC =      2652.81237852
  Ewald energy   TEWEN  =    -41808.38975012
  -Hartree energ DENC   =    -25610.18109109
  -exchange      EXHF   =         0.00000000
  -V(xc)+E(xc)   XCENC  =      3705.45589421
  PAW double counting   =     71119.22350932   -74680.20191137
  entropy T*S    EENTRO =        -0.00000000
  eigenvalues    EBANDS =    -10143.98198060
  atomic energy  EATOM  =     73862.19814772
  Solvation  Ediel_sol  =         0.00000000
  ---------------------------------------------------
  free energy    TOTEN  =      -903.06480341 eV

  energy without entropy =     -903.06480341  energy(sigma->0) =     -903.06480341


--------------------------------------------------------------------------------------------------------




--------------------------------------- Iteration      1(  18)  ---------------------------------------


    POTLOK:  cpu time    0.1692: real time    0.1697
    SETDIJ:  cpu time    5.0380: real time    5.0395
    EDDIAG:  cpu time    4.3959: real time    4.8033
  RMM-DIIS:  cpu time   17.7028: real time   17.7480
    ORTHCH:  cpu time    1.1475: real time    1.2295
       DOS:  cpu time    0.0011: real time    0.0011
    CHARGE:  cpu time    1.7904: real time    1.7912
    MIXING:  cpu time    0.0013: real time    0.0013
    --------------------------------------------
      LOOP:  cpu time   30.2461: real time   30.7834

 eigenvalue-minimisations  : 19183
 total energy-change (2. order) : 0.4327761E+00  (-0.7015355E-01)
 number of electron     672.0000341 magnetization      48.0000074
 augmentation part      250.6470999 magnetization      33.8834773

 Broyden mixing:
  rms(total) = 0.30123E+00    rms(broyden)= 0.30098E+00
  rms(prec ) = 0.31819E+00
  weight for this iteration     100.00

 eigenvalues of (default mixing * dielectric matrix)
  average eigenvalue GAMMA=   1.0116
[...]
   4      -0.805    -0.942     1.747    -0.306     0.079    -0.027
   5      -0.818    -1.100     1.918    -0.196     0.011     0.051
   6      -0.701    -0.810     1.511     0.172    -0.064     0.085
   7      -0.807    -1.109     1.916    -0.106     0.101     0.035
   8      -0.596    -0.729     1.325     0.189    -0.102     0.068
   9      -0.766    -1.076     1.843    -0.127    -0.009     0.099
  10      -0.880    -0.945     1.824    -0.207     0.076    -0.116
  11      -1.027    -0.589     1.617     0.035    -0.068    -0.040
  12      -0.867    -0.917     1.784    -0.249    -0.010    -0.162
  13      -1.032    -0.546     1.578     0.091    -0.018    -0.013
  14      -0.674    -1.080     1.754    -0.013     0.026     0.023
  15      -1.000    -0.559     1.559    -0.011    -0.058    -0.010
  16      -0.569    -0.728     1.297     0.170    -0.021     0.119
  17       1.494     1.449    -2.943     0.100    -0.105     0.083
  18       1.391     1.563    -2.954    -0.086     0.217    -0.165
  19       1.519     1.430    -2.949    -0.063     0.082    -0.076
  20       1.646     1.317    -2.963    -0.049    -0.206     0.100
  21       1.595     1.410    -3.005     0.210    -0.092     0.037
  22       1.338     1.561    -2.899    -0.096     0.185     0.009
  23       1.725     1.358    -3.083     0.046     0.039    -0.066
  24       1.455     1.443    -2.897     0.033    -0.281     0.192
  25      -0.496    -0.560     1.057     0.922    -0.313    -0.801
  26      -1.425    -0.131     1.556     0.639     0.354    -0.483
  27      -0.535     0.017     0.518    -0.515    -0.554    -0.041
  28      -0.060    -1.090     1.150     0.079    -0.567     1.154
  29      -0.035    -0.740     0.775    -0.514     0.622     0.097
  30       0.661    -0.706     0.045    -0.075     0.554    -0.081
  31      -0.784     0.257     0.526    -0.704    -0.171    -0.163
  32      -1.295     0.122     1.173     0.096    -0.002     0.366
  33      -0.209    -0.571     0.780    -0.044     0.808    -0.353
  34      -1.130     0.646     0.484    -0.527    -1.066    -0.174
  35      -0.766     1.186    -0.420     0.633     0.014     0.981
  36       0.419    -0.880     0.461     0.328    -0.514     0.565
  37      -1.089    -0.031     1.120     0.209    -0.459    -0.181
  38      -0.422    -1.758     2.180    -0.208     0.710     0.208
  39      -0.502     0.720    -0.218     0.187     1.053     0.464
  40      -1.584     0.657     0.926     0.247     0.078    -0.443
  41      -4.050     2.131     1.919    -3.736     3.940    -3.303
  42      -2.401     1.559     0.842     4.466     2.417     3.933
  43       4.105    -5.817     1.712     1.659    -4.639     0.632
  44      -2.968     1.269     1.699    -5.557    -1.030     5.464
  45       5.922    -5.329    -0.594    -0.236     4.489     0.160
  46      -2.860     1.824     1.036     3.583    -0.788    -4.067
  47      -1.867     1.182     0.685    -5.216     1.203    -5.450
  48       4.768    -5.153     0.385     0.835    -5.333    -1.014
  49      -4.012     1.900     2.112     3.139     3.669     3.149
  50      -5.086     4.744     0.342    -3.673    -4.176     4.308
  51      -4.290     1.571     2.719     3.205    -2.289    -3.968
  52       3.783    -5.911     2.128     1.084     3.707     0.299
  53      -2.209     3.136    -0.928    -5.193     3.904    -3.208
  54      -4.137     3.909     0.228     5.070     3.624     3.729
  55       5.095    -4.909    -0.186    -0.655    -4.779    -0.006
  56      -2.907     0.967     1.939    -3.655    -3.275     4.171
  57       3.861    -6.861     3.000     0.994     5.619    -1.268
  58      -4.656     2.844     1.812     4.074    -2.798    -3.977
  59      -2.122     0.389     1.732    -4.998     2.323    -4.203
  60       5.588    -6.514     0.926    -0.074    -4.473    -0.050
  61      -2.812     0.501     2.311     3.608     2.244     4.196
  62      -1.275     1.672    -0.396    -5.881    -2.336     4.638
  63      -3.579     3.851    -0.272     4.547    -1.955    -4.762
  64       6.521    -5.546    -0.975    -1.367     5.016     0.744
  65      -2.905     1.303     1.603    -4.943     3.970    -4.430
  66      -1.622     1.746    -0.123     4.582     2.438     4.636
  67       4.310    -5.749     1.438     2.561    -4.503     0.517
  68      -2.505     2.688    -0.183    -5.450    -0.786     5.507
  69       7.142    -6.092    -1.050    -1.771     3.299     0.691
  70      -2.316     2.284     0.032     5.255    -2.423    -3.000
  71      -2.368     3.501    -1.133    -6.822     0.762    -3.322
  72       4.403    -4.948     0.545     0.194    -5.121    -3.058
  73      -3.630     1.518     2.112     5.131     2.300     3.869
  74      -4.948     3.253     1.695    -4.663    -3.036     4.361
  75      -2.591     2.261     0.330     5.731    -1.656    -3.772
  76       3.435    -4.958     1.523     0.208     4.340    -1.728
  77      -1.642     2.338    -0.695    -5.412     1.656    -3.840
  78      -3.537     4.272    -0.735     5.329     3.118     2.036
  79       5.436    -4.971    -0.465     0.737    -5.344     0.199
  80      -3.399     1.009     2.390    -5.792    -3.487     4.571
  81       3.359    -7.010     3.652     2.083     4.440    -1.906
  82      -5.132     4.998     0.134     4.769    -0.052    -4.433
  83      -4.392     0.418     3.974    -3.924     3.857    -4.479
  84       4.393    -7.195     2.802     0.551    -4.716    -0.152
  85      -4.362     2.748     1.613     3.952     2.921     3.730
  86       0.611     1.701    -2.312    -5.983    -2.195     2.987
  87      -4.538     6.691    -2.152     4.067    -3.034    -2.525
  88       4.840    -4.597    -0.243     0.078     3.787    -0.441
 ---------------------------------------------------------------------


 Total hyperfine coupling parameters after diagonalization (MHz)
 (convention: |A_zz| > |A_xx| > |A_yy|)
 ----------------------------------------------------------------------
  ion      A_xx      A_yy      A_zz     asymmetry (A_yy - A_xx)/ A_zz 
 ----------------------------------------------------------------------
   1       0.227    -0.123     2.875      -0.122
   2       1.845     1.392     3.690      -0.123
   3       1.854     1.565     3.357      -0.086
   4       2.123     1.498     4.436      -0.141
   5      -0.573    -0.089     2.547       0.190
   6       2.060     1.694     4.150      -0.088
   7      -0.515    -0.148     2.549       0.144
   8       1.671     1.266     3.466      -0.117
   9       0.685     0.283     3.253      -0.124
  10       0.474     0.062     3.016      -0.137
  11       2.393     1.949     4.600      -0.097
  12       0.824     0.322     3.264      -0.154
  13       2.287     1.768     4.394      -0.118
  14       0.818     0.411     3.246      -0.125
  15       2.408     1.965     4.527      -0.098
  16       2.000     1.620     3.766      -0.101
  17      14.110     9.791    14.312      -0.302
  18      14.050     9.720    14.302      -0.303
  19      13.894     9.544    14.050      -0.310
  20      14.241     9.956    14.594      -0.294
  21      14.571    10.289    15.029      -0.285
  22      13.990     9.773    14.278      -0.295
  23      15.417    10.980    15.795      -0.281
  24      14.014     9.652    14.061      -0.310
  25      94.915    93.502    96.614      -0.015
  26      97.844    96.006    99.468      -0.018
  27      96.212    94.992    96.801      -0.013
  28      94.772    93.272    96.680      -0.016
  29      96.583    95.520    97.743      -0.011
  30      97.422    96.986    98.693      -0.004
  31      92.945    91.265    93.092      -0.018
  32     104.509   103.193   105.783      -0.012
  33      97.566    97.300    99.370      -0.003
  34      97.232    94.699    97.521      -0.026
  35      95.662    95.158    98.084      -0.005
  36      96.457    94.964    97.175      -0.015
  37      99.156    97.994   100.449      -0.012
  38      99.572    98.306   102.489      -0.012
  39      96.541    94.859    97.484      -0.017
  40      98.640    96.663    99.537      -0.020
  41       4.676    -0.591    13.761      -0.383
  42       3.869     0.861    13.781      -0.218
  43       6.466     1.454    15.605      -0.321
  44       8.593     2.453    18.831      -0.326
  45       2.586     0.088    13.655      -0.183
  46       4.465     0.797    12.569      -0.292
  47       3.279    -1.743    13.582      -0.370
  48       3.075     0.863    14.656      -0.151
  49       6.788     1.826    15.145      -0.328
  50       6.972     1.335    18.201      -0.310
  51       3.813    -0.256    12.902      -0.315
  52       6.323     1.095    13.965      -0.374
  53       5.288     1.638    16.535      -0.221
  54       4.568    -0.442    15.777      -0.318
  55       3.405     1.362    14.292      -0.143
  56       7.404     4.835    17.919      -0.143
  57       8.206     2.548    18.977      -0.298
  58       6.374     1.411    16.214      -0.306
  59       7.341     3.040    17.096      -0.252
  60       6.843     2.113    16.930      -0.279
  61       4.144     1.150    13.625      -0.220
  62       5.138     1.881    17.058      -0.191
  63       4.368     1.743    16.394      -0.160
  64       4.815     1.504    16.794      -0.197
  65       2.968    -0.521    14.985      -0.233
  66       3.982     2.151    15.368      -0.119
  67       7.734     2.114    16.678      -0.337
  68       4.790    -0.195    15.848      -0.315
  69       4.918     0.199    15.233      -0.310
  70       2.888    -1.028    12.411      -0.315
  71       7.227     1.982    18.115      -0.290
  72       6.660     1.414    16.384      -0.320
  73       8.155     2.639    17.516      -0.315
  74       7.719     2.409    18.691      -0.284
  75       4.036    -0.752    13.895      -0.345
  76       3.136    -1.111    11.505      -0.369
  77       4.985     1.791    15.456      -0.207
  78       7.072     1.484    16.539      -0.338
  79       4.096     2.343    16.136      -0.109
  80       7.076     1.857    18.847      -0.277
  81       7.538    -0.752    15.316      -0.541
  82       7.914     1.959    18.262      -0.326
  83       3.851    -0.537    15.422      -0.285
  84       7.481     1.434    17.055      -0.355
  85       5.455     0.683    14.938      -0.319
  86       4.979     3.503    16.886      -0.087
  87       7.170     2.298    18.282      -0.267
  88       2.703     0.217    11.752      -0.212
 ---------------------------------------------------------------------



--------------------------------------------------------------------------------------------------------


 stress matrix after NEB project (eV)
    -43.47594      3.80245      2.05294
      3.79949    -47.89745     -0.43746
      2.05440     -0.46204    -55.88731
  FORCES: max atom, RMS     2.539847    1.110724
  FORCE total and by dimension   10.419512    2.184713
  Stress total and by dimension   85.705597   55.887311
     LOOP+:  cpu time  865.2107: real time  883.2356
    4ORBIT:  cpu time    0.0000: real time    0.0000
 


 total charge     
 
# of ion       s       p       d       tot
------------------------------------------
    1        0.053   5.998   0.000   6.052
    2        0.047   5.989   0.000   6.036
    3        0.049   5.992   0.000   6.040
    4        0.053   5.995   0.000   6.048
    5        0.055   6.000   0.000   6.056
    6        0.051   5.993   0.000   6.044
    7        0.052   5.996   0.000   6.048
    8        0.049   5.992   0.000   6.041
    9        0.053   5.998   0.000   6.051
   10        0.054   6.000   0.000   6.054
   11        0.053   5.997   0.000   6.050
   12        0.052   5.996   0.000   6.048
   13        0.049   5.991   0.000   6.040
   14        0.052   5.997   0.000   6.050
   15        0.050   5.993   0.000   6.044
   16        0.048   5.989   0.000   6.037
   17        0.148   6.127   0.083   6.358
   18        0.149   6.129   0.085   6.364
   19        0.150   6.131   0.087   6.368
   20        0.148   6.128   0.084   6.361
   21        0.151   6.132   0.087   6.370
   22        0.148   6.126   0.082   6.356
   23        0.155   6.140   0.094   6.389
   24        0.145   6.122   0.079   6.346
   25        0.374   6.444   4.831  11.649
   26        0.364   6.432   4.802  11.598
   27        0.389   6.484   4.860  11.732
   28        0.383   6.467   4.852  11.702
   29        0.395   6.495   4.877  11.768
   30        0.368   6.441   4.812  11.621
   31        0.384   6.471   4.848  11.703
   32        0.356   6.413   4.795  11.564
   33        0.369   6.437   4.818  11.624
   34        0.387   6.480   4.860  11.727
   35        0.372   6.448   4.825  11.646
   36        0.372   6.443   4.821  11.637
   37        0.372   6.449   4.821  11.642
   38        0.379   6.461   4.839  11.679
   39        0.377   6.459   4.831  11.667
   40        0.368   6.434   4.825  11.626
   41        1.596   3.489   0.000   5.085
   42        1.599   3.532   0.000   5.130
   43        1.599   3.515   0.000   5.114
   44        1.603   3.531   0.000   5.134
   45        1.599   3.498   0.000   5.097
   46        1.595   3.513   0.000   5.108
   47        1.597   3.455   0.000   5.052
   48        1.599   3.483   0.000   5.082
   49        1.596   3.522   0.000   5.118
   50        1.602   3.506   0.000   5.108
   51        1.598   3.527   0.000   5.125
   52        1.596   3.508   0.000   5.104
   53        1.599   3.487   0.000   5.086
   54        1.601   3.511   0.000   5.112
   55        1.599   3.500   0.000   5.099
   56        1.598   3.496   0.000   5.093
   57        1.600   3.500   0.000   5.101
   58        1.598   3.524   0.000   5.122
   59        1.598   3.506   0.000   5.104
   60        1.598   3.500   0.000   5.098
   61        1.597   3.509   0.000   5.106
   62        1.602   3.503   0.000   5.105
   63        1.600   3.496   0.000   5.096
   64        1.603   3.500   0.000   5.103
   65        1.598   3.502   0.000   5.100
   66        1.600   3.521   0.000   5.121
   67        1.599   3.531   0.000   5.131
   68        1.603   3.505   0.000   5.108
   69        1.599   3.490   0.000   5.089
   70        1.597   3.494   0.000   5.091
   71        1.601   3.516   0.000   5.117
   72        1.602   3.519   0.000   5.121
   73        1.600   3.518   0.000   5.118
   74        1.599   3.508   0.000   5.107
   75        1.597   3.497   0.000   5.094
   76        1.596   3.517   0.000   5.113
   77        1.598   3.497   0.000   5.094
   78        1.599   3.500   0.000   5.098
   79        1.603   3.517   0.000   5.121
   80        1.600   3.499   0.000   5.099
   81        1.598   3.490   0.000   5.088
   82        1.600   3.525   0.000   5.125
   83        1.598   3.501   0.000   5.099
   84        1.602   3.525   0.000   5.127
   85        1.599   3.522   0.000   5.121
   86        1.601   3.481   0.000   5.082
   87        1.600   3.489   0.000   5.090
   88        1.599   3.505   0.000   5.105
--------------------------------------------------
tot         84.787 416.490  78.000 579.278
 


 magnetization (x)
 
# of ion       s       p       d       tot
------------------------------------------
    1        0.001   0.000   0.000   0.001
    2        0.002   0.000   0.000   0.002
    3        0.002   0.000   0.000   0.002
    4        0.002   0.001   0.000   0.002
    5        0.000   0.000   0.000   0.001
    6        0.002  -0.000   0.000   0.002
    7        0.000   0.000   0.000   0.001
    8        0.002  -0.000   0.000   0.002
    9        0.001   0.000   0.000   0.001
   10        0.001   0.000   0.000   0.001
   11        0.002   0.000   0.000   0.002
   12        0.001   0.000   0.000   0.001
   13        0.002   0.000   0.000   0.002
   14        0.001   0.001   0.000   0.001
   15        0.002   0.000   0.000   0.002
   16        0.002   0.000   0.000   0.002
   17        0.007   0.002   0.001   0.010
   18        0.007   0.002   0.001   0.010
   19        0.007   0.003   0.001   0.011
   20        0.007   0.002   0.001   0.010
   21        0.007   0.003   0.001   0.011
   22        0.007   0.003   0.001   0.011
   23        0.007   0.003   0.001   0.011
   24        0.007   0.002   0.001   0.011
   25        0.014   0.028   2.759   2.802
   26        0.015   0.029   2.787   2.831
   27        0.015   0.031   2.728   2.774
   28        0.014   0.029   2.737   2.780
   29        0.015   0.031   2.715   2.761
   30        0.016   0.030   2.770   2.816
   31        0.014   0.029   2.734   2.776
   32        0.017   0.030   2.814   2.861
   33        0.016   0.030   2.761   2.807
   34        0.015   0.031   2.729   2.775
   35        0.015   0.030   2.759   2.805
   36        0.015   0.030   2.761   2.806
   37        0.016   0.030   2.767   2.813
   38        0.016   0.031   2.744   2.791
   39        0.015   0.030   2.749   2.795
   40        0.015   0.030   2.754   2.799
   41        0.002   0.022   0.000   0.024
   42        0.002   0.025   0.000   0.026
   43        0.002   0.032   0.000   0.034
   44        0.002   0.063   0.000   0.065
   45        0.002   0.009   0.000   0.011
   46        0.002   0.024   0.000   0.026
   47        0.002   0.003   0.000   0.005
   48        0.002   0.018   0.000   0.020
   49        0.002   0.048   0.000   0.050
   50        0.002   0.041   0.000   0.043
   51        0.001   0.026   0.000   0.028
   52        0.002   0.033   0.000   0.035
   53        0.002   0.038   0.000   0.040
   54        0.002   0.026   0.000   0.027
   55        0.002   0.021   0.000   0.022
   56        0.003   0.047   0.000   0.049
   57        0.003   0.049   0.000   0.051
   58        0.002   0.040   0.000   0.042
   59        0.002   0.046   0.000   0.049
   60        0.002   0.039   0.000   0.041
   61        0.002   0.026   0.000   0.028
   62        0.002   0.033   0.000   0.035
   63        0.002   0.032   0.000   0.034
   64        0.002   0.027   0.000   0.029
   65        0.002   0.021   0.000   0.023
   66        0.002   0.028   0.000   0.030
   67        0.002   0.054   0.000   0.056
   68        0.002   0.024   0.000   0.026
   69        0.002   0.025   0.000   0.027
   70        0.001   0.017   0.000   0.019
   71        0.002   0.044   0.000   0.047
   72        0.002   0.035   0.000   0.037
   73        0.002   0.057   0.000   0.059
   74        0.003   0.049   0.000   0.051
   75        0.002   0.020   0.000   0.022
   76        0.001   0.016   0.000   0.017
   77        0.002   0.029   0.000   0.031
   78        0.002   0.035   0.000   0.037
   79        0.002   0.034   0.000   0.036
   80        0.002   0.049   0.000   0.051
   81        0.002   0.034   0.000   0.036
   82        0.002   0.053   0.000   0.055
   83        0.002   0.029   0.000   0.030
   84        0.002   0.050   0.000   0.052
   85        0.002   0.033   0.000   0.035
   86        0.002   0.032   0.000   0.034
   87        0.003   0.035   0.000   0.038
   88        0.002   0.008   0.000   0.009
--------------------------------------------------
tot          0.420   2.081  44.078  46.580
 

 total amount of memory used by VASP MPI-rank0    94432. kBytes
=======================================================================

   base      :      30000. kBytes
   nonlr-proj:      13673. kBytes
   fftplans  :       1275. kBytes
   grid      :      22786. kBytes
   one-center:       2737. kBytes
   wavefun   :      23961. kBytes
 
  
  
 General timing and accounting informations for this job:
 ========================================================
  
                  Total CPU time used (sec):      886.858
                            User time (sec):      877.705
                          System time (sec):        9.153
                         Elapsed time (sec):      907.641
  
                   Maximum memory used (kb):      195480.
                   Average memory used (kb):           0.
  
                          Minor page faults:       382021
                          Major page faults:            0
                 Voluntary context switches:       301253
