 vasp.5.4.4.18Apr17-6-g9f103f2a35 (build Dec 02 2020 12:53:39) complex          
  
 executed on             LinuxIFC date 2021.07.31  07:05:02
 running on   64 total cores
 distrk:  each k-point on   64 cores,    1 groups
 distr:  one band on NCORES_PER_BAND=   1 cores,   64 groups


--------------------------------------------------------------------------------------------------------


 INCAR:
 POTCAR:    PAW_PBE Na_pv 19Sep2006               
 POTCAR:    PAW_PBE Mg_pv 13Apr2007               
 POTCAR:    PAW_PBE Mn_pv 02Aug2007               
 POTCAR:    PAW_PBE O 08Apr2002                   

 ----------------------------------------------------------------------------- 
|                                                                             |
|           W    W    AA    RRRRR   N    N  II  N    N   GGGG   !!!           |
|           W    W   A  A   R    R  NN   N  II  NN   N  G    G  !!!           |
|           W    W  A    A  R    R  N N  N  II  N N  N  G       !!!           |
|           W WW W  AAAAAA  RRRRR   N  N N  II  N  N N  G  GGG   !            |
|           WW  WW  A    A  R   R   N   NN  II  N   NN  G    G                |
|           W    W  A    A  R    R  N    N  II  N    N   GGGG   !!!           |
|                                                                             |
|      For optimal performance we recommend to set                            |
|        NCORE= 4 - approx SQRT( number of cores)                             |
|      NCORE specifies how many cores store one orbital (NPAR=cpu/NCORE).     |
|      This setting can  greatly improve the performance of VASP for DFT.     |
|      The default,   NCORE=1            might be grossly inefficient         |
|      on modern multi-core architectures or massively parallel machines.     |
|      Do your own testing !!!!                                               |
|      Unfortunately you need to use the default for GW and RPA calculations. |
|      (for HF NCORE is supported but not extensively tested yet)             |
|                                                                             |
 ----------------------------------------------------------------------------- 

 POTCAR:    PAW_PBE Na_pv 19Sep2006               
   VRHFIN =Na: p6s1                                                             
   LEXCH  = PE                                                                  
   EATOM  =   766.0439 eV,   56.3026 Ry                                         
                                                                                
   TITEL  = PAW_PBE Na_pv 19Sep2006                                             
   LULTRA =        F    use ultrasoft PP ?                                      
   IUNSCR =        1    unscreen: 0-lin 1-nonlin 2-no                           
   RPACOR =    1.800    partial core radius                                     
   POMASS =   22.990; ZVAL   =    7.000    mass and valenz                      
   RCORE  =    2.200    outmost cutoff radius                                   
   RWIGS  =    2.200; RWIGS  =    1.164    wigner-seitz radius (au A)           
   ENMAX  =  259.561; ENMIN  =  194.671 eV                                      
   ICORE  =        2    local potential                                         
   LCOR   =        T    correct aug charges                                     
   LPAW   =        T    paw PP                                                  
   EAUG   =  368.056                                                            
   DEXC   =    0.000                                                            
   RMAX   =    2.245    core radius for proj-oper                               
   RAUG   =    1.300    factor for augmentation sphere                          
   RDEP   =    2.259    radius for radial grids                                 
   RDEPT  =    1.738    core radius for aug-charge                              
                                                                                
   Atomic configuration                                                         
    5 entries                                                                   
     n  l   j            E        occ.                                          
     1  0  0.50     -1033.6933   2.0000                                         
     2  0  0.50       -56.7526   2.0000                                         
     2  1  1.50       -28.6721   6.0000                                         
     3  0  0.50        -2.7440   1.0000                                         
     3  2  1.50        -1.3606   0.0000                                         
   Description                                                                  
     l       E           TYP  RCUT    TYP  RCUT                                 
     1    -28.6720912     23  2.000                                             
     1      6.8029130     23  2.000                                             
     0     -2.7439560     23  2.200                                             
     0     34.0145650     23  2.200                                             
     2     -1.3605826     23  2.200                                             
  local pseudopotential read in
  partial core-charges read in
  partial kinetic energy density read in
  atomic valenz-charges read in
  non local Contribution for L=           1  read in
    real space projection operators read in
  non local Contribution for L=           1  read in
    real space projection operators read in
  non local Contribution for L=           0  read in
    real space projection operators read in
  non local Contribution for L=           0  read in
    real space projection operators read in
    PAW grid and wavefunctions read in
 
   number of l-projection  operators is LMAX  =           4
   number of lm-projection operators is LMMAX =           8
 
 POTCAR:    PAW_PBE Mg_pv 13Apr2007               
   VRHFIN =Mg: p6s2                                                             
   LEXCH  = PE                                                                  
   EATOM  =  1056.7344 eV,   77.6678 Ry                                         
                                                                                
   TITEL  = PAW_PBE Mg_pv 13Apr2007                                             
   LULTRA =        F    use ultrasoft PP ?                                      
   IUNSCR =        1    unscreen: 0-lin 1-nonlin 2-no                           
   RPACOR =    1.500    partial core radius                                     
   POMASS =   24.305; ZVAL   =    8.000    mass and valenz                      
   RCORE  =    2.000    outmost cutoff radius                                   
   RWIGS  =    2.000; RWIGS  =    1.058    wigner-seitz radius (au A)           
   ENMAX  =  403.929; ENMIN  =  302.947 eV                                      
   RCLOC  =    1.506    cutoff for local pot                                    
   LCOR   =        T    correct aug charges                                     
   LPAW   =        T    paw PP                                                  
   EAUG   =  758.780                                                            
   DEXC   =    0.000                                                            
   RMAX   =    2.045    core radius for proj-oper                               
   RAUG   =    1.300    factor for augmentation sphere                          
   RDEP   =    2.025    radius for radial grids                                 
   RDEPT  =    1.557    core radius for aug-charge                              
                                                                                
   Atomic configuration                                                         
    5 entries                                                                   
     n  l   j            E        occ.                                          
     1  0  0.50     -1259.6230   2.0000                                         
     2  0  0.50       -79.8442   2.0000                                         
     2  1  1.50       -46.6121   6.0000                                         
     3  0  0.50        -4.7055   2.0000                                         
     3  2  1.50        -1.3606   0.0000                                         
   Description                                                                  
     l       E           TYP  RCUT    TYP  RCUT                                 
     1    -46.6121073     23  1.600                                             
     1      2.7211652     23  1.600                                             
     0     -4.7054661     23  2.000                                             
     0     61.2262170     23  2.000                                             
     2     -1.3605826     23  2.000                                             
  local pseudopotential read in
  partial core-charges read in
  partial kinetic energy density read in
  atomic valenz-charges read in
  non local Contribution for L=           1  read in
    real space projection operators read in
  non local Contribution for L=           1  read in
    real space projection operators read in
  non local Contribution for L=           0  read in
    real space projection operators read in
  non local Contribution for L=           0  read in
    real space projection operators read in
  non local Contribution for L=           2  read in
    real space projection operators read in
    PAW grid and wavefunctions read in
 
   number of l-projection  operators is LMAX  =           5
   number of lm-projection operators is LMMAX =          13
 
 POTCAR:    PAW_PBE Mn_pv 02Aug2007               
   VRHFIN =Mn: 3p4s3d                                                           
   LEXCH  = PE                                                                  
   EATOM  =  2025.2664 eV,  148.8529 Ry                                         
                                                                                
   TITEL  = PAW_PBE Mn_pv 02Aug2007                                             
   LULTRA =        F    use ultrasoft PP ?                                      
   IUNSCR =        1    unscreen: 0-lin 1-nonlin 2-no                           
   RPACOR =    2.080    partial core radius                                     
   POMASS =   54.938; ZVAL   =   13.000    mass and valenz                      
   RCORE  =    2.300    outmost cutoff radius                                   
   RWIGS  =    2.500; RWIGS  =    1.323    wigner-seitz radius (au A)           
   ENMAX  =  269.864; ENMIN  =  202.398 eV                                      
   ICORE  =        3    local potential                                         
   LCOR   =        T    correct aug charges                                     
   LPAW   =        T    paw PP                                                  
   EAUG   =  569.085                                                            
   DEXC   =    0.000                                                            
   RMAX   =    2.343    core radius for proj-oper                               
   RAUG   =    1.300    factor for augmentation sphere                          
   RDEP   =    2.338    radius for radial grids                                 
   RDEPT  =    1.798    core radius for aug-charge                              
                                                                                
   Atomic configuration                                                         
    8 entries                                                                   
     n  l   j            E        occ.                                          
     1  0  0.50     -6424.8287   2.0000                                         
     2  0  0.50      -739.1154   2.0000                                         
     2  1  1.50      -625.3949   6.0000                                         
     3  0  0.50       -81.6100   2.0000                                         
     3  1  1.50       -50.4667   6.0000                                         
     3  2  2.50        -3.3745   6.0000                                         
     4  0  0.50        -4.1331   1.0000                                         
     4  3  2.50        -1.3606   0.0000                                         
   Description                                                                  
     l       E           TYP  RCUT    TYP  RCUT                                 
     1    -50.4666628     23  2.000                                             
     1     -1.3605826     23  2.000                                             
     2     -3.3744729     23  2.300                                             
     2     -4.7350555     23  2.300                                             
     0     -4.1331431     23  2.300                                             
     0      7.6656591     23  2.300                                             
     3      9.5240782     23  2.300                                             
  local pseudopotential read in
  partial core-charges read in
  partial kinetic energy density read in
  atomic valenz-charges read in
  non local Contribution for L=           1  read in
    real space projection operators read in
  non local Contribution for L=           1  read in
    real space projection operators read in
  non local Contribution for L=           2  read in
    real space projection operators read in
  non local Contribution for L=           2  read in
    real space projection operators read in
  non local Contribution for L=           0  read in
    real space projection operators read in
  non local Contribution for L=           0  read in
    real space projection operators read in
    PAW grid and wavefunctions read in
 
   number of l-projection  operators is LMAX  =           6
   number of lm-projection operators is LMMAX =          18
 
 POTCAR:    PAW_PBE O 08Apr2002                   
   VRHFIN =O: s2p4                                                              
   LEXCH  = PE                                                                  
   EATOM  =   432.3788 eV,   31.7789 Ry                                         
                                                                                
   TITEL  = PAW_PBE O 08Apr2002                                                 
   LULTRA =        F    use ultrasoft PP ?                                      
   IUNSCR =        1    unscreen: 0-lin 1-nonlin 2-no                           
   RPACOR =    1.200    partial core radius                                     
   POMASS =   16.000; ZVAL   =    6.000    mass and valenz                      
   RCORE  =    1.520    outmost cutoff radius                                   
   RWIGS  =    1.550; RWIGS  =    0.820    wigner-seitz radius (au A)           
   ENMAX  =  400.000; ENMIN  =  300.000 eV                                      
   ICORE  =        2    local potential                                         
   LCOR   =        T    correct aug charges                                     
   LPAW   =        T    paw PP                                                  
   EAUG   =  605.392                                                            
   DEXC   =    0.000                                                            
   RMAX   =    1.553    core radius for proj-oper                               
   RAUG   =    1.300    factor for augmentation sphere                          
   RDEP   =    1.550    radius for radial grids                                 
   RDEPT  =    1.329    core radius for aug-charge                              
                                                                                
   Atomic configuration                                                         
    4 entries                                                                   
     n  l   j            E        occ.                                          
     1  0  0.50      -514.6923   2.0000                                         
     2  0  0.50       -23.9615   2.0000                                         
     2  1  0.50        -9.0305   4.0000                                         
     3  2  1.50        -9.5241   0.0000                                         
   Description                                                                  
     l       E           TYP  RCUT    TYP  RCUT                                 
     0    -23.9615318     23  1.200                                             
     0     -9.5240782     23  1.200                                             
     1     -9.0304911     23  1.520                                             
     1      8.1634956     23  1.520                                             
     2     -9.5240782      7  1.500                                             
  local pseudopotential read in
  partial core-charges read in
  partial kinetic energy density read in
  kinetic energy density of atom read in
  atomic valenz-charges read in
  non local Contribution for L=           0  read in
    real space projection operators read in
  non local Contribution for L=           0  read in
    real space projection operators read in
  non local Contribution for L=           1  read in
    real space projection operators read in
  non local Contribution for L=           1  read in
    real space projection operators read in
    PAW grid and wavefunctions read in
 
   number of l-projection  operators is LMAX  =           4
   number of lm-projection operators is LMMAX =           8
 
 Optimization of the real space projectors (new method)

 maximal supplied QI-value         = 17.01
 optimisation between [QCUT,QGAM] = [ 10.20, 20.41] = [ 29.16,116.64] Ry 
 Optimized for a Real-space Cutoff    1.30 Angstroem

   l    n(q)    QCUT    max X(q) W(low)/X(q) W(high)/X(q)  e(spline) 
   1      7    10.205     4.940    0.23E-03    0.84E-03    0.11E-06
   1      7    10.205     6.253    0.40E-03    0.13E-02    0.18E-06
   0      8    10.205    37.438    0.23E-03    0.37E-03    0.42E-07
   0      8    10.205     9.606    0.16E-03    0.26E-03    0.31E-07
 Optimization of the real space projectors (new method)

 maximal supplied QI-value         = 18.90
 optimisation between [QCUT,QGAM] = [ 10.20, 20.41] = [ 29.16,116.64] Ry 
 Optimized for a Real-space Cutoff    1.26 Angstroem

   l    n(q)    QCUT    max X(q) W(low)/X(q) W(high)/X(q)  e(spline) 
   1      7    10.205     2.974    0.63E-04    0.14E-03    0.13E-06
   1      7    10.205     4.279    0.11E-03    0.45E-03    0.24E-06
   0      8    10.205    16.381    0.44E-03    0.15E-03    0.55E-07
   0      8    10.205     5.611    0.31E-03    0.11E-03    0.40E-07
   2      7    10.205     4.652    0.50E-03    0.47E-03    0.57E-07
 Optimization of the real space projectors (new method)

 maximal supplied QI-value         = 16.25
 optimisation between [QCUT,QGAM] = [ 10.24, 20.48] = [ 29.35,117.42] Ry 
 Optimized for a Real-space Cutoff    1.34 Angstroem

   l    n(q)    QCUT    max X(q) W(low)/X(q) W(high)/X(q)  e(spline) 
   1      8    10.239     3.658    0.23E-03    0.30E-03    0.98E-07
   1      8    10.239     5.612    0.32E-03    0.65E-03    0.21E-06
   2      7    10.239    55.373    0.42E-03    0.45E-03    0.65E-07
   2      7    10.239    50.863    0.43E-03    0.48E-03    0.67E-07
   0      8    10.239    79.536    0.11E-03    0.21E-03    0.56E-07
   0      8    10.239    38.668    0.96E-04    0.19E-03    0.52E-07
 Optimization of the real space projectors (new method)

 maximal supplied QI-value         = 24.76
 optimisation between [QCUT,QGAM] = [ 10.15, 20.30] = [ 28.85,115.39] Ry 
 Optimized for a Real-space Cutoff    1.38 Angstroem

   l    n(q)    QCUT    max X(q) W(low)/X(q) W(high)/X(q)  e(spline) 
   0      8    10.150    20.381    0.22E-03    0.32E-03    0.29E-06
   0      8    10.150    15.268    0.23E-03    0.35E-03    0.30E-06
   1      8    10.150     5.964    0.46E-03    0.53E-03    0.21E-06
   1      8    10.150     5.382    0.38E-03    0.45E-03    0.19E-06
  PAW_PBE Na_pv 19Sep2006               :
 energy of atom  1       EATOM= -766.0439
 kinetic energy error for atom=    0.0103 (will be added to EATOM!!)
  PAW_PBE Mg_pv 13Apr2007               :
 energy of atom  2       EATOM=-1056.7344
 kinetic energy error for atom=    0.0820 (will be added to EATOM!!)
  PAW_PBE Mn_pv 02Aug2007               :
 energy of atom  3       EATOM=-2025.2664
 kinetic energy error for atom=    0.0284 (will be added to EATOM!!)
  PAW_PBE O 08Apr2002                   :
 energy of atom  4       EATOM= -432.3788
 kinetic energy error for atom=    0.1156 (will be added to EATOM!!)
 
 
 POSCAR: Na Mg Mn  O                             
  positions in cartesian coordinates
  No initial velocities read in

 METAGGA = SCAN     LMAXTAU =  6    LMIXTAU =  F

 exchange correlation table for  LEXCH =        8
   RHO(1)=    0.500       N(1)  =     2000
   RHO(2)=  100.500       N(2)  =     4000

 VTST: version 3.2, (02/03/18)

 CHAIN: initializing optimizer
 
 OPT: Using VASP Dynamics algorithm
 CHAIN: Read ICHAIN            0
 
 POSCAR: Na Mg Mn  O                             
  positions in cartesian coordinates
  No initial velocities read in
 


--------------------------------------------------------------------------------------------------------


 ion  position               nearest neighbor table
   1  0.233  0.157  0.248-  50 2.20  43 2.30  41 2.36  26 2.74  28 2.86
   2  0.112  0.180  0.753-  48 2.22  45 2.33  47 2.35
   3  0.394  0.979  0.746-  46 2.18  81 2.22  84 2.34  31 2.76  29 2.82
   4  0.476  0.334  0.740-  68 2.18
   5  0.938  0.669  0.265-  76 2.24  86 2.29
   6  0.756  0.154  0.247-  64 2.25  55 2.32  54 2.35  63 2.37  32 2.76  30 2.81
   7  0.735  0.011  0.755-  59 2.23  56 2.30  58 2.32  61 2.32
   8  0.223  0.652  0.755-  83 2.21  84 2.26  81 2.30  80 2.36  40 2.76  38 2.76
   9  0.565  0.462  0.246-  74 2.29  52 2.37
  10  0.071  0.443  0.251-  64 2.24  55 2.30
  11  0.417  0.651  0.243-  78 2.27  65 2.35
  12  0.586  0.654  0.759-  72 2.28  71 2.36
  13  0.937  0.801  0.748-  70 2.27  73 2.29  69 2.37
  14  0.902  0.441  0.745-  57 2.27  60 2.29  83 2.32  80 2.37  39 2.79  37 2.98
  15  0.881  0.947  0.247-  63 2.19  67 2.27  54 2.30  76 2.38  25 2.84  27 2.89
  16  0.385  0.968  0.255-  51 2.16  42 2.32  88 2.38  31 2.77  29 2.91
  17  0.582  0.316  0.002-  53 2.02  60 2.02  71 2.03  43 2.08  66 2.13  49 2.14  37 2.80  30 2.83
                            33 2.85
  18  0.581  0.308  0.485-  62 1.98  52 1.99  75 2.03  46 2.10  68 2.11  57 2.13  28 2.76
  19  0.085  0.327  0.991-  61 2.02  48 2.09  78 2.10  41 2.10  83 2.11  55 2.15  38 2.74  33 2.85

  20  0.089  0.316  0.505-  80 1.98  87 2.01  50 2.04  58 2.16  45 2.18  64 2.24  40 2.85
  21  0.081  0.818  0.996-  73 2.00  42 2.01  67 2.07  84 2.08  47 2.10  26 2.81
  22  0.090  0.818  0.500-  44 2.01  51 2.02  76 2.04  70 2.07  81 2.10  86 2.22  28 2.83  27 2.84

  23  0.571  0.810  0.007-  65 1.94  85 2.05  79 2.07  54 2.09  59 2.10  72 2.22  29 2.81
  24  0.598  0.828  0.496-  56 2.00  63 2.10  88 2.11  82 2.17  69 2.19  32 2.82  31 2.83
  25  0.909  0.986  0.996-  41 1.91  54 1.92  61 1.93  67 1.94  72 1.96  47 1.98  15 2.84  30 2.86
                            34 2.88  26 2.89
  26  0.242  0.142  0.004-  43 1.83  42 1.89  49 1.91  48 1.93  41 1.93  47 1.96   1 2.74  21 2.81
                            33 2.88  25 2.89  29 2.93
  27  0.930  0.986  0.501-  58 1.86  44 1.90  63 1.96  69 1.98  76 1.99  50 2.00  22 2.84  15 2.89
                            28 2.89  36 2.93  32 2.93
  28  0.263  0.144  0.501-  52 1.88  51 1.89  44 1.89  45 1.96  50 1.96  46 1.97  18 2.76  31 2.83
                            22 2.83   1 2.86  27 2.89  35 2.91
  29  0.415  0.978  0.996-  79 1.85  84 1.88  59 1.89  49 1.91  53 1.94  42 2.04  23 2.81   3 2.82
                            30 2.85  38 2.91  16 2.91  26 2.93
  30  0.744  0.151  0.996-  61 1.85  60 1.88  59 1.89  53 1.93  54 1.99  55 2.00   6 2.81  17 2.83
                            29 2.85  25 2.86  37 2.90
  31  0.421  0.976  0.501-  51 1.87  81 1.91  46 1.91  62 1.92  56 1.93  88 1.93   3 2.76  16 2.77
                            24 2.83  28 2.83  40 2.88  32 2.93
  32  0.759  0.153  0.493-  57 1.84  64 1.87  56 1.91  63 1.93  62 1.93  58 2.06   6 2.76  24 2.82
                            39 2.85  27 2.93  31 2.93
  33  0.412  0.474  0.003-  85 1.91  71 1.93  48 1.93  78 1.96  43 1.96  65 1.96  19 2.85  17 2.85
                            26 2.88  34 2.89  38 2.95
  34  0.744  0.654  0.002-  71 1.88  67 1.89  66 1.91  65 1.93  72 1.94  73 1.96  37 2.86  25 2.88
                            33 2.89
  35  0.423  0.479  0.498-  87 1.86  74 1.90  45 1.91  68 1.93  52 1.95  82 1.95  40 2.88  36 2.89
                            28 2.91
  36  0.755  0.649  0.500-  76 1.89  75 1.90  69 1.91  68 1.91  70 1.95  74 1.97  35 2.89  39 2.91
                            27 2.93
  37  0.905  0.486  0.007-  66 1.87  55 1.91  77 1.95  60 1.95  73 1.95  83 1.99  17 2.80  34 2.86
                            30 2.90  38 2.91  14 2.98
  38  0.240  0.642  0.000-  77 1.86  83 1.89  78 1.91  79 1.94  84 1.96  85 1.99  19 2.74   8 2.76
                            37 2.91  29 2.91  33 2.95
  39  0.923  0.481  0.498-  86 1.87  75 1.92  57 1.92  64 1.96  80 1.97  70 1.99  14 2.79  32 2.85
                            40 2.89  36 2.91
  40  0.255  0.644  0.511-  82 1.86  80 1.89  81 1.94  87 1.95  88 2.00  86 2.06   8 2.76  20 2.85
                            31 2.88  35 2.88  39 2.89
  41  0.073  0.142  0.088-  25 1.91  26 1.93  19 2.10   1 2.36
  42  0.248  0.985  0.094-  26 1.89  21 2.01  29 2.04  16 2.32
  43  0.393  0.297  0.094-  26 1.83  33 1.96  17 2.08   1 2.30
  44  0.095  0.994  0.591-  28 1.89  27 1.90  22 2.01
  45  0.280  0.314  0.598-  35 1.91  28 1.96  20 2.18   2 2.33
  46  0.422  0.133  0.598-  31 1.91  28 1.97  18 2.10   3 2.18
  47  0.078  0.996  0.898-  26 1.96  25 1.98  21 2.10   2 2.35
  48  0.261  0.308  0.906-  33 1.93  26 1.93  19 2.09   2 2.22
  49  0.394  0.131  0.910-  26 1.91  29 1.91  17 2.14
  50  0.102  0.152  0.407-  28 1.96  27 2.00  20 2.04   1 2.20
  51  0.270  0.988  0.411-  31 1.87  28 1.89  22 2.02  16 2.16
  52  0.404  0.308  0.404-  28 1.88  35 1.95  18 1.99   9 2.37
  53  0.577  0.139  0.091-  30 1.93  29 1.94  17 2.02
  54  0.755  0.993  0.095-  25 1.92  30 1.99  23 2.09  15 2.30   6 2.35
  55  0.903  0.322  0.096-  37 1.91  30 2.00  19 2.15  10 2.30   6 2.32
  56  0.597  0.998  0.587-  32 1.91  31 1.93  24 2.00   7 2.30
  57  0.763  0.308  0.583-  32 1.84  39 1.92  18 2.13  14 2.27
  58  0.909  0.123  0.600-  27 1.86  32 2.06  20 2.16   7 2.32
  59  0.583  0.993  0.907-  30 1.89  29 1.89  23 2.10   7 2.23
  60  0.755  0.317  0.908-  30 1.88  37 1.95  17 2.02  14 2.29
  61  0.901  0.149  0.911-  30 1.85  25 1.93  19 2.02   7 2.32
  62  0.584  0.132  0.406-  31 1.92  32 1.93  18 1.98
  63  0.780  0.004  0.399-  32 1.93  27 1.96  24 2.10  15 2.19   6 2.37
  64  0.900  0.312  0.396-  32 1.87  39 1.96  10 2.24  20 2.24   6 2.25
  65  0.577  0.645  0.093-  34 1.93  23 1.94  33 1.96  11 2.35
  66  0.760  0.506  0.098-  37 1.87  34 1.91  17 2.13
  67  0.902  0.819  0.088-  34 1.89  25 1.94  21 2.07  15 2.27
  68  0.591  0.488  0.589-  36 1.91  35 1.93  18 2.11   4 2.18
  69  0.776  0.813  0.599-  36 1.91  27 1.98  24 2.19  13 2.37
  70  0.913  0.642  0.596-  36 1.95  39 1.99  22 2.07  13 2.27
  71  0.585  0.494  0.914-  34 1.88  33 1.93  17 2.03  12 2.36
  72  0.759  0.815  0.898-  34 1.94  25 1.96  23 2.22  12 2.28
  73  0.905  0.646  0.908-  37 1.95  34 1.96  21 2.00  13 2.29
  74  0.584  0.624  0.399-  35 1.90  36 1.97   9 2.29
  75  0.764  0.493  0.410-  36 1.90  39 1.92  18 2.03
  76  0.910  0.809  0.407-  36 1.89  27 1.99  22 2.04   5 2.24  15 2.38
  77  0.085  0.626  0.101-  38 1.86  37 1.95
  78  0.259  0.496  0.097-  38 1.91  33 1.96  19 2.10  11 2.27
  79  0.391  0.816  0.092-  29 1.85  38 1.94  23 2.07
  80  0.088  0.486  0.595-  40 1.89  39 1.97  20 1.98   8 2.36  14 2.37
  81  0.267  0.817  0.598-  31 1.91  40 1.94  22 2.10   3 2.22   8 2.30
  82  0.413  0.638  0.593-  40 1.86  35 1.95  24 2.17
  83  0.075  0.507  0.901-  38 1.89  37 1.99  19 2.11   8 2.21  14 2.32
  84  0.262  0.817  0.906-  29 1.88  38 1.96  21 2.08   8 2.26   3 2.34
  85  0.405  0.629  0.911-  33 1.91  38 1.99  23 2.05
  86  0.082  0.624  0.400-  39 1.87  40 2.06  22 2.22   5 2.29
  87  0.266  0.487  0.415-  35 1.86  40 1.95  20 2.01
  88  0.407  0.810  0.403-  31 1.93  40 2.00  24 2.11  16 2.38
 
  LATTYP: Found a hexagonal cell.
 ALAT       =    10.0190000534
 C/A-ratio  =     1.1196726572
  
  Lattice vectors:
  
 A1 = (  10.0190000534,   0.0000000000,   0.0000000000)
 A2 = (  -5.0095000267,   8.6767085668,   0.0000000000)
 A3 = (   0.0000000000,   0.0000000000,  11.2180004120)


Analysis of symmetry for initial positions (statically):
=====================================================================
 Subroutine PRICEL returns:
 Original cell was already a primitive cell.
 

 Routine SETGRP: Setting up the symmetry group for a 
 hexagonal supercell.


 Subroutine GETGRP returns: Found  1 space group operations
 (whereof  1 operations were pure point group operations)
 out of a pool of 24 trial point group operations.


The static configuration has the point symmetry C_1 .


Analysis of symmetry for dynamics (positions and initial velocities):
=====================================================================
 Subroutine PRICEL returns:
 Original cell was already a primitive cell.
 

 Routine SETGRP: Setting up the symmetry group for a 
 hexagonal supercell.


 Subroutine GETGRP returns: Found  1 space group operations
 (whereof  1 operations were pure point group operations)
 out of a pool of 24 trial point group operations.


The dynamic configuration has the point symmetry C_1 .


Analysis of structural, dynamic, and magnetic symmetry:
=====================================================================
 Subroutine PRICEL returns:
 Original cell was already a primitive cell.
 

 Routine SETGRP: Setting up the symmetry group for a 
 hexagonal supercell.


 Subroutine GETGRP returns: Found  1 space group operations
 (whereof  1 operations were pure point group operations)
 out of a pool of 24 trial point group operations.


The magnetic configuration has the point symmetry C_1 .


 Subroutine INISYM returns: Found  1 space group operations
 (whereof  1 operations are pure point group operations),
 and found     1 'primitive' translations

 
 

Automatic generation of k-mesh.
 generate k-points for:    2    2    2
Space group operators:
 irot       det(A)        alpha          n_x          n_y          n_z        tau_x        tau_y        tau_z
    1     1.000000     0.000000     1.000000     0.000000     0.000000     0.000000     0.000000     0.000000
 
 Subroutine IBZKPT returns following result:
 ===========================================
 
 Found      8 irreducible k-points:
 
 Following reciprocal coordinates:
            Coordinates               Weight
  0.000000  0.000000  0.000000      1.000000
  0.500000 -0.000000 -0.000000      1.000000
  0.000000  0.500000  0.000000      1.000000
  0.500000  0.500000 -0.000000      1.000000
  0.000000  0.000000  0.500000      1.000000
  0.500000 -0.000000  0.500000      1.000000
  0.000000  0.500000  0.500000      1.000000
  0.500000  0.500000  0.500000      1.000000
 
 Following cartesian coordinates:
            Coordinates               Weight
  0.000000  0.000000  0.000000      1.000000
  0.049905  0.028813 -0.000000      1.000000
  0.000000  0.057626  0.000000      1.000000
  0.049905  0.086438 -0.000000      1.000000
  0.000000  0.000000  0.044571      1.000000
  0.049905  0.028813  0.044571      1.000000
  0.000000  0.057626  0.044571      1.000000
  0.049905  0.086438  0.044571      1.000000
 


--------------------------------------------------------------------------------------------------------




 Dimension of arrays:
   k-points           NKPTS =      8   k-points in BZ     NKDIM =      8   number of bands    NBANDS=    448
   number of dos      NEDOS =    301   number of ions     NIONS =     88
   non local maximal  LDIM  =      6   non local SUM 2l+1 LMDIM =     18
   total plane-waves  NPLWV = 140000
   max r-space proj   IRMAX =   1632   max aug-charges    IRDMAX=   4555
   dimension x,y,z NGX =    50 NGY =   50 NGZ =   56
   dimension x,y,z NGXF=   100 NGYF=  100 NGZF=  112
   support grid    NGXF=   100 NGYF=  100 NGZF=  112
   ions per type =              16   8  16  48
   NGX,Y,Z   is equivalent  to a cutoff of   8.30,  8.30,  8.30 a.u.
   NGXF,Y,Z  is equivalent  to a cutoff of  16.59, 16.59, 16.60 a.u.

 SYSTEM =  unknown system                          
 POSCAR =  Na Mg Mn  O                             

 Startparameter for this run:
   NWRITE =      2    write-flag & timer
   PREC   = normal    normal or accurate (medium, high low for compatibility)
   ISTART =      0    job   : 0-new  1-cont  2-samecut
   ICHARG =      1    charge: 1-file 2-atom 10-const
   ISPIN  =      2    spin polarized calculation?
   LNONCOLLINEAR =      F non collinear calculations
   LSORBIT =      F    spin-orbit coupling
   INIWAV =      1    electr: 0-lowe 1-rand  2-diag
   LASPH  =      T    aspherical Exc in radial PAW
   METAGGA=      F    non-selfconsistent MetaGGA calc.

 Electronic Relaxation 1
   ENCUT  =  400.0 eV  29.40 Ry    5.42 a.u.  16.34 16.34 18.29*2*pi/ulx,y,z
   ENINI  =  400.0     initial cutoff
   ENAUG  =  758.8 eV  augmentation charge cutoff
   NELM   =    200;   NELMIN=  6; NELMDL=-12     # of ELM steps 
   EDIFF  = 0.1E-04   stopping-criterion for ELM
   LREAL  =      T    real-space projection
   NLSPLINE    = F    spline interpolate recip. space projectors
   LCOMPAT=      F    compatible to vasp.4.4
   GGA_COMPAT  = T    GGA compatible to vasp.4.4-vasp.4.6
   LMAXPAW     = -100 max onsite density
   LMAXMIX     =    4 max onsite mixed and CHGCAR
   VOSKOWN=      0    Vosko Wilk Nusair interpolation
   ROPT   =   -0.00050  -0.00050  -0.00050  -0.00050
 Ionic relaxation
   EDIFFG = 0.1E-03   stopping-criterion for IOM
   NSW    =      1    number of steps for IOM
   NBLOCK =      1;   KBLOCK =      1    inner block; outer block 
   IBRION =     -1    ionic relax: 0-MD 1-quasi-New 2-CG
   NFREE  =      0    steps in history (QN), initial steepest desc. (CG)
   ISIF   =      2    stress and relaxation
   IWAVPR =     10    prediction:  0-non 1-charg 2-wave 3-comb
   ISYM   =      2    0-nonsym 1-usesym 2-fastsym
   LCORR  =      T    Harris-Foulkes like correction to forces

   POTIM  = 0.5000    time-step for ionic-motion
   TEIN   =    0.0    initial temperature
   TEBEG  =    0.0;   TEEND  =   0.0 temperature during run
   SMASS  =  -3.00    Nose mass-parameter (am)
   estimated Nose-frequenzy (Omega)   =  0.10E-29 period in steps =****** mass=  -0.229E-26a.u.
   SCALEE = 1.0000    scale energy and forces
   NPACO  =    256;   APACO  = 16.0  distance and # of slots for P.C.
   PSTRESS=    0.0 pullay stress

  Mass of Ions in am
   POMASS =  22.99 24.30 54.94 16.00
  Ionic Valenz
   ZVAL   =   7.00  8.00 13.00  6.00
  Atomic Wigner-Seitz radii
   RWIGS  =  -1.00 -1.00 -1.00 -1.00
  virtual crystal weights 
   VCA    =   1.00  1.00  1.00  1.00
   NELECT =     672.0000    total number of electrons
   NUPDOWN=      48.0000    fix difference up-down

 DOS related values:
   EMIN   =  10.00;   EMAX   =-10.00  energy-range for DOS
   EFERMI =   0.00
   ISMEAR =     0;   SIGMA  =   0.05  broadening in eV -4-tet -1-fermi 0-gaus

 Electronic relaxation 2 (details)
   IALGO  =     48    algorithm
   LDIAG  =      T    sub-space diagonalisation (order eigenvalues)
   LSUBROT=      F    optimize rotation matrix (better conditioning)
   TURBO    =      0    0=normal 1=particle mesh
   IRESTART =      0    0=no restart 2=restart with 2 vectors
   NREBOOT  =      0    no. of reboots
   NMIN     =      0    reboot dimension
   EREF     =   0.00    reference energy to select bands
   IMIX   =      4    mixing-type and parameters
     AMIX     =   0.40;   BMIX     =  1.00
     AMIX_MAG =   1.60;   BMIX_MAG =  1.00
     AMIN     =   0.10
     WC   =   100.;   INIMIX=   1;  MIXPRE=   1;  MAXMIX= -45

 Intra band minimization:
   WEIMIN = 0.0000     energy-eigenvalue tresh-hold
   EBREAK =  0.56E-08  absolut break condition
   DEPER  =   0.30     relativ break condition  

   TIME   =   0.40     timestep for ELM

  volume/ion in A,a.u.               =      11.08        74.78
  Fermi-wavevector in a.u.,A,eV,Ry     =   1.445993  2.732531 28.448379  2.090897
  Thomas-Fermi vector in A             =   2.564112
 
 Write flags
   LWAVE        =      F    write WAVECAR
   LDOWNSAMPLE  =      F    k-point downsampling of WAVECAR
   LCHARG       =      F    write CHGCAR
   LVTOT        =      F    write LOCPOT, total local potential
   LVHAR        =      F    write LOCPOT, Hartree potential only
   LELF         =      F    write electronic localiz. function (ELF)
   LORBIT       =     11    0 simple, 1 ext, 2 COOP (PROOUT), +10 PAW based schemes


 Dipole corrections
   LMONO  =      F    monopole corrections only (constant potential shift)
   LDIPOL =      F    correct potential (dipole corrections)
   IDIPOL =      0    1-x, 2-y, 3-z, 4-all directions 
   EPSILON=  1.0000000 bulk dielectric constant

 Exchange correlation treatment:
   GGA     =    --    GGA type
   LEXCH   =     8    internal setting for exchange type
   VOSKOWN=      0    Vosko Wilk Nusair interpolation
   LHFCALC =     F    Hartree Fock is set to
   LHFONE  =     F    Hartree Fock one center treatment
   AEXX    =    0.0000 exact exchange contribution

 Linear response parameters
   LEPSILON=     F    determine dielectric tensor
   LRPA    =     F    only Hartree local field effects (RPA)
   LNABLA  =     F    use nabla operator in PAW spheres
   LVEL    =     F    velocity operator in full k-point grid
   LINTERFAST=   F  fast interpolation
   KINTER  =     0    interpolate to denser k-point grid
   CSHIFT  =0.1000    complex shift for real part using Kramers Kronig
   OMEGAMAX=  -1.0    maximum frequency
   DEG_THRESHOLD= 0.2000000E-02 threshold for treating states as degnerate
   RTIME   =   -0.100 relaxation time in fs
  (WPLASMAI=    0.000 imaginary part of plasma frequency in eV, 0.658/RTIME)
   DFIELD  = 0.0000000 0.0000000 0.0000000 field for delta impulse in time
 
 Orbital magnetization related:
   ORBITALMAG=     F  switch on orbital magnetization
   LCHIMAG   =     F  perturbation theory with respect to B field
   DQ        =  0.001000  dq finite difference perturbation B field
   LLRAUG    =     F  two centre corrections for induced B field



--------------------------------------------------------------------------------------------------------


 Static calculation
 charge density and potential will be updated during run
 spin polarized calculation
 RMM-DIIS sequential band-by-band
 perform sub-space diagonalisation
    before iterative eigenvector-optimisation
 modified Broyden-mixing scheme, WC =      100.0
 initial mixing is a Kerker type mixing with AMIX =  0.4000 and BMIX =      1.0000
 Hartree-type preconditioning will be used
 using additional bands          112
 real space projection scheme for non local part
 use partial core corrections
 calculate Harris-corrections to forces 
   (improved forces if not selfconsistent)
 use gradient corrections 
 use of overlap-Matrix (Vanderbilt PP)
 Gauss-broadening in eV      SIGMA  =   0.05


--------------------------------------------------------------------------------------------------------


  energy-cutoff  :      400.00
  volume of cell :      975.20
      direct lattice vectors                 reciprocal lattice vectors
    10.019000053  0.000000000  0.000000000     0.099810360  0.057625538 -0.000000000
    -5.009500027  8.676708567  0.000000000     0.000000000  0.115251076  0.000000000
     0.000000000  0.000000000 11.218000412     0.000000000  0.000000000  0.089142446

  length of vectors
    10.019000053 10.019000053 11.218000412     0.115251076  0.115251076  0.089142446


 
 k-points in units of 2pi/SCALE and weight: read from INCAR                         
   0.00000000  0.00000000  0.00000000       0.125
   0.04990518  0.02881277 -0.00000000       0.125
   0.00000000  0.05762554  0.00000000       0.125
   0.04990518  0.08643831 -0.00000000       0.125
   0.00000000  0.00000000  0.04457122       0.125
   0.04990518  0.02881277  0.04457122       0.125
   0.00000000  0.05762554  0.04457122       0.125
   0.04990518  0.08643831  0.04457122       0.125
 
 k-points in reciprocal lattice and weights: read from INCAR                         
   0.00000000  0.00000000  0.00000000       0.125
   0.50000000 -0.00000000 -0.00000000       0.125
   0.00000000  0.50000000  0.00000000       0.125
   0.50000000  0.50000000 -0.00000000       0.125
   0.00000000  0.00000000  0.50000000       0.125
   0.50000000 -0.00000000  0.50000000       0.125
   0.00000000  0.50000000  0.50000000       0.125
   0.50000000  0.50000000  0.50000000       0.125
 
 position of ions in fractional coordinates (direct lattice) 
   0.23318132  0.15652133  0.24820466
   0.11167900  0.17963708  0.75260382
   0.39397403  0.97928454  0.74552591
   0.47597906  0.33427175  0.73954356
   0.93844154  0.66867868  0.26500088
   0.75596421  0.15441570  0.24697895
   0.73520297  0.01135816  0.75536813
   0.22347075  0.65166054  0.75482525
   0.56467873  0.46177188  0.24648867
   0.07059280  0.44277060  0.25130593
   0.41675176  0.65125979  0.24344713
   0.58618985  0.65421022  0.75919502
   0.93695119  0.80097094  0.74828933
   0.90226864  0.44093810  0.74458992
   0.88098121  0.94747794  0.24710999
   0.38467660  0.96761652  0.25511677
   0.58238432  0.31629275  0.00243132
   0.58088696  0.30755095  0.48500355
   0.08475205  0.32698229  0.99101141
   0.08925681  0.31635153  0.50545372
   0.08070807  0.81825613  0.99556958
   0.08988170  0.81832413  0.50010160
   0.57120977  0.81037642  0.00654366
   0.59834413  0.82801675  0.49609911
   0.90878983  0.98638095  0.99591276
   0.24161799  0.14161706  0.00435814
   0.93021580  0.98645816  0.50122480
   0.26319168  0.14397395  0.50098411
   0.41542812  0.97761380  0.99640752
   0.74384807  0.15149293  0.99635404
   0.42091150  0.97589886  0.50058476
   0.75889641  0.15275839  0.49304598
   0.41168915  0.47350905  0.00349520
   0.74406694  0.65407060  0.00161190
   0.42256226  0.47933153  0.49843375
   0.75532507  0.64913901  0.50023888
   0.90503830  0.48559312  0.00717278
   0.24016779  0.64228387  0.00039472
   0.92258990  0.48130117  0.49788641
   0.25539204  0.64424430  0.51081207
   0.07336574  0.14223135  0.08815956
   0.24847843  0.98538086  0.09438046
   0.39281848  0.29716107  0.09368871
   0.09462573  0.99378664  0.59050987
   0.27999977  0.31441416  0.59772774
   0.42207590  0.13323255  0.59794792
   0.07775710  0.99596234  0.89817255
   0.26061444  0.30826551  0.90630234
   0.39437623  0.13075465  0.90978781
   0.10238842  0.15168770  0.40688535
   0.26988649  0.98798738  0.41084506
   0.40432501  0.30766390  0.40409608
   0.57733119  0.13854101  0.09126136
   0.75532452  0.99272910  0.09505081
   0.90295823  0.32191009  0.09628008
   0.59688641  0.99832617  0.58734621
   0.76335773  0.30847412  0.58299071
   0.90899651  0.12326103  0.60037527
   0.58283449  0.99334441  0.90656085
   0.75495752  0.31683789  0.90814759
   0.90091884  0.14944722  0.91058118
   0.58350043  0.13241657  0.40640844
   0.78038216  0.00359895  0.39912728
   0.90008815  0.31226933  0.39565875
   0.57666122  0.64529769  0.09267516
   0.76001173  0.50622767  0.09825815
   0.90194758  0.81914818  0.08821955
   0.59064743  0.48772066  0.58906933
   0.77626915  0.81326691  0.59913886
   0.91344353  0.64158315  0.59605008
   0.58465951  0.49397418  0.91363876
   0.75880372  0.81526191  0.89763769
   0.90480308  0.64597306  0.90847741
   0.58421721  0.62362357  0.39864235
   0.76405487  0.49298648  0.41023889
   0.91012413  0.80890581  0.40727490
   0.08540859  0.62627781  0.10076662
   0.25928544  0.49621236  0.09747905
   0.39117314  0.81628880  0.09217418
   0.08776447  0.48560580  0.59533605
   0.26741567  0.81690539  0.59795327
   0.41331416  0.63807836  0.59345692
   0.07451649  0.50698487  0.90146190
   0.26151584  0.81681549  0.90568726
   0.40470693  0.62908647  0.91057226
   0.08235463  0.62379299  0.40025226
   0.26550780  0.48657045  0.41528524
   0.40686215  0.80999263  0.40320376
 
 position of ions in cartesian coordinates  (Angst):
   1.55215000  1.35809000  2.78436000
   0.21901997  1.55865857  8.44271000
  -0.95850008  8.49696657  8.36331000
   3.09429992  2.90037857  8.29620000
   6.05250000  5.80193000  2.97278000
   6.80046000  1.33982000  2.77061000
   7.30909987  0.09855143  8.47372000
  -1.02554003  5.65426857  8.46763000
   3.34427000  4.00666000  2.76511000
  -1.51079003  3.84179143  2.81915000
   0.91294997  5.65079143  2.73099000
   2.59577003  5.67639143  8.51665000
   5.37485008  6.94979143  8.39431000
   6.83095008  3.82589143  8.35281000
   4.08016000  8.22099000  2.77208000
  -0.99320008  8.39572657  2.86190000
   4.25044000  2.74438000  0.02727460
   4.27923000  2.66853000  5.44077000
  -0.78888700  2.83713000 11.11716641
  -0.69049900  2.74489000  5.67018000
  -3.29044000  7.09977000 11.16830000
  -3.19887000  7.10036000  5.61014000
   1.66337000  7.03140000  0.07340680
   1.84686000  7.18446000  5.56524000
   4.16389000  8.55854000 11.17214971
   1.71134000  1.22877000  0.04888960
   4.37817000  8.55921000  5.62274000
   1.91568000  1.24922000  5.62004000
  -0.73518200  8.48247000 11.17770000
   6.69371000  1.31446000 11.17710000
  -0.67165300  8.46759000  5.61556000
   6.83814000  1.32544000  5.53099000
   1.75267000  4.10850000  0.03920910
   4.17824000  5.67518000  0.01808230
   1.83244000  4.15902000  5.59143000
   4.31574000  5.63239000  5.61168000
   6.63500000  4.21335000  0.08046420
  -0.81128000  5.57291000  0.00442802
   6.83235000  4.17611000  5.58529000
  -0.66856900  5.58992000  5.73029000
   0.02254340  1.23410000  0.98897400
  -2.44676003  8.54986257  1.05876000
   2.44702000  2.57838000  1.05100000
  -4.03031903  8.62279707  6.62434000
   1.23026000  2.72808000  6.70531000
   3.56135000  1.15602000  6.70778000
  -4.21022503  8.64167497 10.07570000
   1.06684000  2.67473000 10.16690000
   3.29624000  1.13452000 10.20600000
   0.26595000  1.31615000  4.56444000
  -2.24533003  8.57247857  4.60886000
   2.50969000  2.66951000  4.53315000
   5.09026000  1.20208000  1.02377000
   2.59451997  8.61362107  1.06628000
   7.43413000  2.79312000  1.08007000
   0.97908997  8.66218527  6.58885000
   6.10278000  2.67654000  6.53999000
   8.48976000  1.06950000  6.73501000
   0.86325997  8.61895997 10.16980000
   5.97672000  2.74911000 10.18760000
   8.27765000  1.29671000 10.21490000
   5.18275000  1.14894000  4.55909000
   7.80062000  0.03122700  4.47741000
   7.45367000  2.70947000  4.43850000
   2.54495000  5.59906000  1.03963000
   5.07861000  4.39239000  1.10226000
   4.93309000  7.10751000  0.98964700
   3.47446000  4.23181000  6.60818000
   3.70338000  7.05648000  6.72114000
   5.93778000  5.56683000  6.68649000
   3.38314000  4.28607000 10.24920000
   3.51840000  7.07379000 10.06970000
   5.82922000  5.60492000 10.19130000
   2.72923000  5.41100000  4.47197000
   5.18545000  4.27750000  4.60206000
   5.06632000  7.01864000  4.56881000
  -2.28163000  5.43403000  1.13040000
   0.11200500  4.30549000  1.09352000
  -0.17003500  7.08270000  1.03401000
  -1.55333000  4.21346000  6.67848000
  -1.41305000  7.08805000  6.70784000
   0.94454100  5.53642000  6.65740000
  -1.79316000  4.39896000 10.11260000
  -1.47171000  7.08727000 10.16000000
   0.90335000  5.45840000 10.21480000
  -2.29978000  5.41247000  4.49003000
   0.22264800  4.22183000  4.65867000
   0.01869380  7.02807000  4.52314000
 


--------------------------------------------------------------------------------------------------------


 k-point  1 :   0.0000 0.0000 0.0000  plane waves:   17725
 k-point  2 :   0.5000-0.0000-0.0000  plane waves:   17736
 k-point  3 :   0.0000 0.5000 0.0000  plane waves:   17736
 k-point  4 :   0.5000 0.5000-0.0000  plane waves:   17736
 k-point  5 :   0.0000 0.0000 0.5000  plane waves:   17676
 k-point  6 :   0.5000-0.0000 0.5000  plane waves:   17700
 k-point  7 :   0.0000 0.5000 0.5000  plane waves:   17700
 k-point  8 :   0.5000 0.5000 0.5000  plane waves:   17700

 maximum and minimum number of plane-waves per node :     17736    17676

 maximum number of plane-waves:     17736
 maximum index in each direction: 
   IXMAX=   16   IYMAX=   16   IZMAX=   18
   IXMIN=  -16   IYMIN=  -16   IZMIN=  -18


 serial   3D FFT for wavefunctions
 parallel 3D FFT for charge:
    minimum data exchange during FFTs selected (reduces bandwidth)


 total amount of memory used by VASP MPI-rank0   104109. kBytes
=======================================================================

   base      :      30000. kBytes
   nonlr-proj:      13667. kBytes
   fftplans  :       1316. kBytes
   grid      :      22786. kBytes
   one-center:       2737. kBytes
   wavefun   :      33603. kBytes
 
     INWAV:  cpu time    0.0000: real time    0.0000
 Broyden mixing: mesh for mixing (old mesh)
   NGX = 33   NGY = 33   NGZ = 37
  (NGX  =100   NGY  =100   NGZ  =112)
  gives a total of  40293 points

 initial charge density was supplied:
 charge density of overlapping atoms calculated
 number of electron     672.0000000 magnetization      48.0000000
 keeping initial charge density in first step


--------------------------------------------------------------------------------------------------------


 Maximum index for non-local projection operator         1549
 Maximum index for augmentation-charges          198 (set IRDMAX)


--------------------------------------------------------------------------------------------------------


 First call to EWALD:  gamma=   0.179
 Maximum number of real-space cells 3x 3x 2
 Maximum number of reciprocal cells 3x 3x 3

    FEWALD:  cpu time    0.0023: real time    0.0033


--------------------------------------- Iteration      1(   1)  ---------------------------------------


    POTLOK:  cpu time    0.0666: real time    0.0704
    SETDIJ:  cpu time    2.5535: real time    2.5553
    EDDIAG:  cpu time    3.2346: real time    3.2471
  RMM-DIIS:  cpu time    8.6463: real time    8.6616
    ORTHCH:  cpu time    0.5834: real time    0.5884
       DOS:  cpu time    0.0013: real time    0.0015
    --------------------------------------------
      LOOP:  cpu time   15.0858: real time   15.1243

 eigenvalue-minimisations  :  7168
 total energy-change (2. order) : 0.1863632E+04  (-0.3593847E+05)
 number of electron     672.0000000 magnetization      48.0000000
 augmentation part      672.0000000 magnetization      48.0000000

 Free energy of the ion-electron system (eV)
  ---------------------------------------------------
  alpha Z        PSCENC =      2652.81237852
  Ewald energy   TEWEN  =    -41965.91515634
  -Hartree energ DENC   =    -25650.98739370
  -exchange      EXHF   =         0.00000000
  -V(xc)+E(xc)   XCENC  =      3605.47160039
  PAW double counting   =     55594.23204139   -59034.67079123
  entropy T*S    EENTRO =        -0.03945242
  eigenvalues    EBANDS =     -7199.46898795
  atomic energy  EATOM  =     73862.19814772
  Solvation  Ediel_sol  =         0.00000000
  ---------------------------------------------------
  free energy    TOTEN  =      1863.63238638 eV

  energy without entropy =     1863.67183880  energy(sigma->0) =     1863.65211259


--------------------------------------------------------------------------------------------------------




--------------------------------------- Iteration      1(   2)  ---------------------------------------


    EDDIAG:  cpu time    3.2258: real time    3.2495
  RMM-DIIS:  cpu time    8.6344: real time    8.6490
    ORTHCH:  cpu time    0.5793: real time    0.5831
       DOS:  cpu time    0.0011: real time    0.0011
    --------------------------------------------
      LOOP:  cpu time   12.4405: real time   12.4826

 eigenvalue-minimisations  :  7168
 total energy-change (2. order) :-0.2713455E+04  (-0.8681300E+04)
 number of electron     672.0000000 magnetization      48.0000000
 augmentation part      672.0000000 magnetization      48.0000000

 Free energy of the ion-electron system (eV)
  ---------------------------------------------------
  alpha Z        PSCENC =      2652.81237852
  Ewald energy   TEWEN  =    -41965.91515634
  -Hartree energ DENC   =    -25650.98739370
  -exchange      EXHF   =         0.00000000
  -V(xc)+E(xc)   XCENC  =      3605.47160039
  PAW double counting   =     55594.23204139   -59034.67079123
  entropy T*S    EENTRO =        -0.05854233
  eigenvalues    EBANDS =     -9912.90539619
  atomic energy  EATOM  =     73862.19814772
  Solvation  Ediel_sol  =         0.00000000
  ---------------------------------------------------
  free energy    TOTEN  =      -849.82311177 eV

  energy without entropy =     -849.76456944  energy(sigma->0) =     -849.79384061


--------------------------------------------------------------------------------------------------------




--------------------------------------- Iteration      1(   3)  ---------------------------------------


    EDDIAG:  cpu time    3.2341: real time    3.2404
  RMM-DIIS:  cpu time    8.6421: real time    8.6556
    ORTHCH:  cpu time    0.5782: real time    0.5829
       DOS:  cpu time    0.0010: real time    0.0010
    --------------------------------------------
      LOOP:  cpu time   12.4554: real time   12.4799

 eigenvalue-minimisations  :  7168
 total energy-change (2. order) : 0.3153190E+03  (-0.1558588E+04)
 number of electron     672.0000000 magnetization      48.0000000
 augmentation part      672.0000000 magnetization      48.0000000

 Free energy of the ion-electron system (eV)
  ---------------------------------------------------
  alpha Z        PSCENC =      2652.81237852
  Ewald energy   TEWEN  =    -41965.91515634
  -Hartree energ DENC   =    -25650.98739370
  -exchange      EXHF   =         0.00000000
  -V(xc)+E(xc)   XCENC  =      3605.47160039
  PAW double counting   =     55594.23204139   -59034.67079123
  entropy T*S    EENTRO =        -0.03428169
  eigenvalues    EBANDS =     -9597.61065922
  atomic energy  EATOM  =     73862.19814772
  Solvation  Ediel_sol  =         0.00000000
  ---------------------------------------------------
  free energy    TOTEN  =      -534.50411415 eV

  energy without entropy =     -534.46983246  energy(sigma->0) =     -534.48697331


--------------------------------------------------------------------------------------------------------




--------------------------------------- Iteration      1(   4)  ---------------------------------------


    EDDIAG:  cpu time    3.2363: real time    3.2443
  RMM-DIIS:  cpu time    8.6014: real time    8.6475
    ORTHCH:  cpu time    0.5787: real time    0.5825
       DOS:  cpu time    0.0008: real time    0.0008
    --------------------------------------------
      LOOP:  cpu time   12.4172: real time   12.4751

 eigenvalue-minimisations  :  7168
 total energy-change (2. order) :-0.5224167E+03  (-0.5064017E+03)
 number of electron     672.0000000 magnetization      48.0000000
 augmentation part      672.0000000 magnetization      48.0000000

 Free energy of the ion-electron system (eV)
  ---------------------------------------------------
  alpha Z        PSCENC =      2652.81237852
  Ewald energy   TEWEN  =    -41965.91515634
  -Hartree energ DENC   =    -25650.98739370
  -exchange      EXHF   =         0.00000000
  -V(xc)+E(xc)   XCENC  =      3605.47160039
  PAW double counting   =     55594.23204139   -59034.67079123
  entropy T*S    EENTRO =        -0.00180845
  eigenvalues    EBANDS =    -10120.05980567
  atomic energy  EATOM  =     73862.19814772
  Solvation  Ediel_sol  =         0.00000000
  ---------------------------------------------------
  free energy    TOTEN  =     -1056.92078737 eV

  energy without entropy =    -1056.91897892  energy(sigma->0) =    -1056.91988315


--------------------------------------------------------------------------------------------------------




--------------------------------------- Iteration      1(   5)  ---------------------------------------


    EDDIAG:  cpu time    3.2336: real time    3.2401
  RMM-DIIS:  cpu time    8.6333: real time    8.6452
    ORTHCH:  cpu time    0.5831: real time    0.5871
       DOS:  cpu time    0.0006: real time    0.0006
    --------------------------------------------
      LOOP:  cpu time   12.4505: real time   12.4730

 eigenvalue-minimisations  :  7168
 total energy-change (2. order) :-0.1476017E+03  (-0.2121067E+03)
 number of electron     672.0000000 magnetization      48.0000000
 augmentation part      672.0000000 magnetization      48.0000000

 Free energy of the ion-electron system (eV)
  ---------------------------------------------------
  alpha Z        PSCENC =      2652.81237852
  Ewald energy   TEWEN  =    -41965.91515634
  -Hartree energ DENC   =    -25650.98739370
  -exchange      EXHF   =         0.00000000
  -V(xc)+E(xc)   XCENC  =      3605.47160039
  PAW double counting   =     55594.23204139   -59034.67079123
  entropy T*S    EENTRO =        -0.00000000
  eigenvalues    EBANDS =    -10267.66332957
  atomic energy  EATOM  =     73862.19814772
  Solvation  Ediel_sol  =         0.00000000
  ---------------------------------------------------
  free energy    TOTEN  =     -1204.52250282 eV

  energy without entropy =    -1204.52250282  energy(sigma->0) =    -1204.52250282


--------------------------------------------------------------------------------------------------------




--------------------------------------- Iteration      1(   6)  ---------------------------------------


    EDDIAG:  cpu time    3.2394: real time    3.2507
  RMM-DIIS:  cpu time    8.5713: real time    8.6693
    ORTHCH:  cpu time    0.5802: real time    0.5848
       DOS:  cpu time    0.0007: real time    0.0007
    --------------------------------------------
      LOOP:  cpu time   12.3916: real time   12.5055

 eigenvalue-minimisations  :  7168
 total energy-change (2. order) :-0.2177717E+02  (-0.1151685E+03)
 number of electron     672.0000000 magnetization      48.0000000
 augmentation part      672.0000000 magnetization      48.0000000

 Free energy of the ion-electron system (eV)
  ---------------------------------------------------
  alpha Z        PSCENC =      2652.81237852
  Ewald energy   TEWEN  =    -41965.91515634
  -Hartree energ DENC   =    -25650.98739370
  -exchange      EXHF   =         0.00000000
  -V(xc)+E(xc)   XCENC  =      3605.47160039
  PAW double counting   =     55594.23204139   -59034.67079123
  entropy T*S    EENTRO =        -0.00000000
  eigenvalues    EBANDS =    -10289.44049751
  atomic energy  EATOM  =     73862.19814772
  Solvation  Ediel_sol  =         0.00000000
  ---------------------------------------------------
  free energy    TOTEN  =     -1226.29967076 eV

  energy without entropy =    -1226.29967076  energy(sigma->0) =    -1226.29967076


--------------------------------------------------------------------------------------------------------




--------------------------------------- Iteration      1(   7)  ---------------------------------------


    EDDIAG:  cpu time    3.2322: real time    3.2398
  RMM-DIIS:  cpu time    8.6410: real time    8.6569
    ORTHCH:  cpu time    0.5794: real time    0.5836
       DOS:  cpu time    0.0007: real time    0.0007
    --------------------------------------------
      LOOP:  cpu time   12.4532: real time   12.4809

 eigenvalue-minimisations  :  7168
 total energy-change (2. order) :-0.6668216E+01  (-0.7624917E+02)
 number of electron     672.0000000 magnetization      48.0000000
 augmentation part      672.0000000 magnetization      48.0000000

 Free energy of the ion-electron system (eV)
  ---------------------------------------------------
  alpha Z        PSCENC =      2652.81237852
  Ewald energy   TEWEN  =    -41965.91515634
  -Hartree energ DENC   =    -25650.98739370
  -exchange      EXHF   =         0.00000000
  -V(xc)+E(xc)   XCENC  =      3605.47160039
  PAW double counting   =     55594.23204139   -59034.67079123
  entropy T*S    EENTRO =        -0.00000000
  eigenvalues    EBANDS =    -10296.10871339
  atomic energy  EATOM  =     73862.19814772
  Solvation  Ediel_sol  =         0.00000000
  ---------------------------------------------------
  free energy    TOTEN  =     -1232.96788664 eV

  energy without entropy =    -1232.96788664  energy(sigma->0) =    -1232.96788664


--------------------------------------------------------------------------------------------------------




--------------------------------------- Iteration      1(   8)  ---------------------------------------


    EDDIAG:  cpu time    3.2334: real time    3.2401
  RMM-DIIS:  cpu time    8.6297: real time    8.6446
    ORTHCH:  cpu time    0.5846: real time    0.5883
       DOS:  cpu time    0.0006: real time    0.0006
    --------------------------------------------
      LOOP:  cpu time   12.4483: real time   12.4736

 eigenvalue-minimisations  :  7168
 total energy-change (2. order) : 0.4578545E+01  (-0.5304618E+02)
 number of electron     672.0000000 magnetization      48.0000000
 augmentation part      672.0000000 magnetization      48.0000000

 Free energy of the ion-electron system (eV)
  ---------------------------------------------------
  alpha Z        PSCENC =      2652.81237852
  Ewald energy   TEWEN  =    -41965.91515634
  -Hartree energ DENC   =    -25650.98739370
  -exchange      EXHF   =         0.00000000
  -V(xc)+E(xc)   XCENC  =      3605.47160039
  PAW double counting   =     55594.23204139   -59034.67079123
  entropy T*S    EENTRO =        -0.00000000
  eigenvalues    EBANDS =    -10291.53016859
  atomic energy  EATOM  =     73862.19814772
  Solvation  Ediel_sol  =         0.00000000
  ---------------------------------------------------
  free energy    TOTEN  =     -1228.38934184 eV

  energy without entropy =    -1228.38934184  energy(sigma->0) =    -1228.38934184


--------------------------------------------------------------------------------------------------------




--------------------------------------- Iteration      1(   9)  ---------------------------------------


    EDDIAG:  cpu time    3.2349: real time    3.2416
  RMM-DIIS:  cpu time   18.0269: real time   18.0903
    ORTHCH:  cpu time    0.5781: real time    0.5818
       DOS:  cpu time    0.0006: real time    0.0006
    --------------------------------------------
      LOOP:  cpu time   21.8405: real time   21.9143

 eigenvalue-minimisations  : 20243
 total energy-change (2. order) : 0.1827534E+02  (-0.2381597E+02)
 number of electron     672.0000000 magnetization      48.0000000
 augmentation part      672.0000000 magnetization      48.0000000

 Free energy of the ion-electron system (eV)
  ---------------------------------------------------
  alpha Z        PSCENC =      2652.81237852
  Ewald energy   TEWEN  =    -41965.91515634
  -Hartree energ DENC   =    -25650.98739370
  -exchange      EXHF   =         0.00000000
  -V(xc)+E(xc)   XCENC  =      3605.47160039
  PAW double counting   =     55594.23204139   -59034.67079123
  entropy T*S    EENTRO =        -0.00000000
  eigenvalues    EBANDS =    -10273.25483139
  atomic energy  EATOM  =     73862.19814772
  Solvation  Ediel_sol  =         0.00000000
  ---------------------------------------------------
  free energy    TOTEN  =     -1210.11400464 eV

  energy without entropy =    -1210.11400464  energy(sigma->0) =    -1210.11400464


--------------------------------------------------------------------------------------------------------




--------------------------------------- Iteration      1(  10)  ---------------------------------------


    EDDIAG:  cpu time    3.2358: real time    3.2439
  RMM-DIIS:  cpu time   18.4227: real time   18.4885
    ORTHCH:  cpu time    0.5801: real time    0.5847
       DOS:  cpu time    0.0007: real time    0.0007
    --------------------------------------------
      LOOP:  cpu time   22.2392: real time   22.3177

 eigenvalue-minimisations  : 20095
 total energy-change (2. order) :-0.3069003E+01  (-0.1028138E+01)
 number of electron     672.0000000 magnetization      48.0000000
 augmentation part      672.0000000 magnetization      48.0000000

 Free energy of the ion-electron system (eV)
  ---------------------------------------------------
  alpha Z        PSCENC =      2652.81237852
  Ewald energy   TEWEN  =    -41965.91515634
  -Hartree energ DENC   =    -25650.98739370
  -exchange      EXHF   =         0.00000000
  -V(xc)+E(xc)   XCENC  =      3605.47160039
  PAW double counting   =     55594.23204139   -59034.67079123
  entropy T*S    EENTRO =        -0.00000000
  eigenvalues    EBANDS =    -10276.32383474
  atomic energy  EATOM  =     73862.19814772
  Solvation  Ediel_sol  =         0.00000000
  ---------------------------------------------------
  free energy    TOTEN  =     -1213.18300799 eV

  energy without entropy =    -1213.18300799  energy(sigma->0) =    -1213.18300799


--------------------------------------------------------------------------------------------------------




--------------------------------------- Iteration      1(  11)  ---------------------------------------


    EDDIAG:  cpu time    3.2313: real time    3.2374
  RMM-DIIS:  cpu time   19.3384: real time   19.3963
    ORTHCH:  cpu time    0.5988: real time    0.6037
       DOS:  cpu time    0.0006: real time    0.0006
    --------------------------------------------
      LOOP:  cpu time   23.1692: real time   23.2381

 eigenvalue-minimisations  : 21700
 total energy-change (2. order) : 0.9765084E-01  (-0.9975392E-01)
 number of electron     672.0000000 magnetization      48.0000000
 augmentation part      672.0000000 magnetization      48.0000000

 Free energy of the ion-electron system (eV)
  ---------------------------------------------------
  alpha Z        PSCENC =      2652.81237852
  Ewald energy   TEWEN  =    -41965.91515634
  -Hartree energ DENC   =    -25650.98739370
  -exchange      EXHF   =         0.00000000
  -V(xc)+E(xc)   XCENC  =      3605.47160039
  PAW double counting   =     55594.23204139   -59034.67079123
  entropy T*S    EENTRO =        -0.00000000
  eigenvalues    EBANDS =    -10276.22618390
  atomic energy  EATOM  =     73862.19814772
  Solvation  Ediel_sol  =         0.00000000
  ---------------------------------------------------
  free energy    TOTEN  =     -1213.08535715 eV

  energy without entropy =    -1213.08535715  energy(sigma->0) =    -1213.08535715


--------------------------------------------------------------------------------------------------------




--------------------------------------- Iteration      1(  12)  ---------------------------------------


    EDDIAG:  cpu time    3.2303: real time    3.2383
  RMM-DIIS:  cpu time   19.8952: real time   19.9230
    ORTHCH:  cpu time    0.5792: real time    0.5830
       DOS:  cpu time    0.0007: real time    0.0007
    CHARGE:  cpu time    1.8014: real time    1.8040
    MIXING:  cpu time    0.0010: real time    0.0014
    --------------------------------------------
      LOOP:  cpu time   25.5077: real time   25.5503

 eigenvalue-minimisations  : 22804
 total energy-change (2. order) : 0.7396623E-02  (-0.6738570E-02)
 number of electron     671.9999523 magnetization      47.9999989
 augmentation part      239.0235663 magnetization      29.0286932

 Broyden mixing:
  rms(total) = 0.12500E+02    rms(broyden)= 0.12491E+02
  rms(prec ) = 0.14361E+02
  weight for this iteration     100.00

 Free energy of the ion-electron system (eV)
  ---------------------------------------------------
  alpha Z        PSCENC =      2652.81237852
  Ewald energy   TEWEN  =    -41965.91515634
  -Hartree energ DENC   =    -25650.98739370
  -exchange      EXHF   =         0.00000000
  -V(xc)+E(xc)   XCENC  =      3605.47160039
  PAW double counting   =     55594.23204139   -59034.67079123
  entropy T*S    EENTRO =        -0.00000000
  eigenvalues    EBANDS =    -10276.21878728
  atomic energy  EATOM  =     73862.19814772
  Solvation  Ediel_sol  =         0.00000000
  ---------------------------------------------------
  free energy    TOTEN  =     -1213.07796053 eV

  energy without entropy =    -1213.07796053  energy(sigma->0) =    -1213.07796053


--------------------------------------------------------------------------------------------------------




--------------------------------------- Iteration      1(  13)  ---------------------------------------


    POTLOK:  cpu time    0.0614: real time    0.0629
    SETDIJ:  cpu time    2.6526: real time    2.7061
    EDDIAG:  cpu time    3.2348: real time    3.2412
  RMM-DIIS:  cpu time   16.4336: real time   16.4559
    ORTHCH:  cpu time    0.5826: real time    0.5866
       DOS:  cpu time    0.0009: real time    0.0009
    CHARGE:  cpu time    1.8110: real time    1.8133
    MIXING:  cpu time    0.0009: real time    0.0010
    --------------------------------------------
      LOOP:  cpu time   24.7777: real time   24.8680

 eigenvalue-minimisations  : 17299
 total energy-change (2. order) : 0.2227782E+03  (-0.1382595E+03)
 number of electron     671.9999572 magnetization      47.9999987
 augmentation part      269.1754883 magnetization      26.4206684

 Broyden mixing:
  rms(total) = 0.14010E+02    rms(broyden)= 0.14007E+02
  rms(prec ) = 0.15759E+02
  weight for this iteration     100.00

 eigenvalues of (default mixing * dielectric matrix)
  average eigenvalue GAMMA=   0.3152
  0.3152

 Free energy of the ion-electron system (eV)
  ---------------------------------------------------
  alpha Z        PSCENC =      2652.81237852
  Ewald energy   TEWEN  =    -41965.91515634
  -Hartree energ DENC   =    -24973.05240087
  -exchange      EXHF   =         0.00000000
  -V(xc)+E(xc)   XCENC  =      3695.44176292
  PAW double counting   =     59851.49525108   -63276.28286150
  entropy T*S    EENTRO =        -0.08486091
  eigenvalues    EBANDS =    -10836.91198585
  atomic energy  EATOM  =     73862.19814772
  Solvation  Ediel_sol  =         0.00000000
  ---------------------------------------------------
  free energy    TOTEN  =      -990.29972523 eV

  energy without entropy =     -990.21486431  energy(sigma->0) =     -990.25729477


--------------------------------------------------------------------------------------------------------




--------------------------------------- Iteration      1(  14)  ---------------------------------------


    POTLOK:  cpu time    0.0602: real time    0.0604
    SETDIJ:  cpu time    2.7015: real time    2.7030
    EDDIAG:  cpu time    3.2494: real time    3.2551
  RMM-DIIS:  cpu time   16.9453: real time   16.9901
    ORTHCH:  cpu time    0.5857: real time    0.5897
       DOS:  cpu time    0.0006: real time    0.0006
    CHARGE:  cpu time    1.8023: real time    1.8042
    MIXING:  cpu time    0.0008: real time    0.0008
    --------------------------------------------
      LOOP:  cpu time   25.3458: real time   25.4040

 eigenvalue-minimisations  : 17737
 total energy-change (2. order) : 0.7571247E+02  (-0.1925291E+02)
 number of electron     671.9999542 magnetization      47.9999980
 augmentation part      246.5862496 magnetization      32.1712074

 Broyden mixing:
  rms(total) = 0.52166E+01    rms(broyden)= 0.52124E+01
  rms(prec ) = 0.56292E+01
  weight for this iteration     100.00

 eigenvalues of (default mixing * dielectric matrix)
  average eigenvalue GAMMA=   0.7274
  1.0968  0.3579

 Free energy of the ion-electron system (eV)
  ---------------------------------------------------
  alpha Z        PSCENC =      2652.81237852
  Ewald energy   TEWEN  =    -41965.91515634
  -Hartree energ DENC   =    -25587.04777397
  -exchange      EXHF   =         0.00000000
  -V(xc)+E(xc)   XCENC  =      3673.01499604
  PAW double counting   =     63254.91069955   -66736.64350980
  entropy T*S    EENTRO =        -0.00000000
  eigenvalues    EBANDS =    -10067.91703312
  atomic energy  EATOM  =     73862.19814772
  Solvation  Ediel_sol  =         0.00000000
  ---------------------------------------------------
  free energy    TOTEN  =      -914.58725138 eV

  energy without entropy =     -914.58725138  energy(sigma->0) =     -914.58725138


--------------------------------------------------------------------------------------------------------




--------------------------------------- Iteration      1(  15)  ---------------------------------------


    POTLOK:  cpu time    0.0605: real time    0.0630
    SETDIJ:  cpu time    2.7062: real time    2.7086
    EDDIAG:  cpu time    3.3270: real time    3.3345
  RMM-DIIS:  cpu time   16.9028: real time   16.9426
    ORTHCH:  cpu time    0.5816: real time    0.5855
       DOS:  cpu time    0.0006: real time    0.0006
    CHARGE:  cpu time    1.7979: real time    1.8004
    MIXING:  cpu time    0.0008: real time    0.0008
    --------------------------------------------
      LOOP:  cpu time   25.3774: real time   25.4360

 eigenvalue-minimisations  : 18466
 total energy-change (2. order) : 0.1371795E+02  (-0.2022673E+01)
 number of electron     671.9999548 magnetization      47.9999976
 augmentation part      249.6851024 magnetization      33.8005967

 Broyden mixing:
  rms(total) = 0.21114E+01    rms(broyden)= 0.21112E+01
  rms(prec ) = 0.21865E+01
  weight for this iteration     100.00

 eigenvalues of (default mixing * dielectric matrix)
  average eigenvalue GAMMA=   0.9568
  0.3821  0.7615  1.7269

 Free energy of the ion-electron system (eV)
  ---------------------------------------------------
  alpha Z        PSCENC =      2652.81237852
  Ewald energy   TEWEN  =    -41965.91515634
  -Hartree energ DENC   =    -25503.09874172
  -exchange      EXHF   =         0.00000000
  -V(xc)+E(xc)   XCENC  =      3705.79271309
  PAW double counting   =     67335.05851740   -70857.10358830
  entropy T*S    EENTRO =        -0.00000000
  eigenvalues    EBANDS =    -10130.61356886
  atomic energy  EATOM  =     73862.19814772
  Solvation  Ediel_sol  =         0.00000000
  ---------------------------------------------------
  free energy    TOTEN  =      -900.86929847 eV

  energy without entropy =     -900.86929847  energy(sigma->0) =     -900.86929847


--------------------------------------------------------------------------------------------------------




--------------------------------------- Iteration      1(  16)  ---------------------------------------


    POTLOK:  cpu time    0.0606: real time    0.0607
    SETDIJ:  cpu time    2.7369: real time    2.7385
    EDDIAG:  cpu time    3.2362: real time    3.2432
  RMM-DIIS:  cpu time   16.1721: real time   16.2204
    ORTHCH:  cpu time    0.5808: real time    0.5850
       DOS:  cpu time    0.0006: real time    0.0006
    CHARGE:  cpu time    1.7980: real time    1.8005
    MIXING:  cpu time    0.0008: real time    0.0008
    --------------------------------------------
      LOOP:  cpu time   24.5862: real time   24.6497

 eigenvalue-minimisations  : 17388
 total energy-change (2. order) :-0.1647587E+01  (-0.6761430E+00)
 number of electron     671.9999553 magnetization      47.9999975
 augmentation part      251.1926076 magnetization      33.8944840

 Broyden mixing:
  rms(total) = 0.13906E+01    rms(broyden)= 0.13901E+01
  rms(prec ) = 0.14837E+01
  weight for this iteration     100.00

 eigenvalues of (default mixing * dielectric matrix)
  average eigenvalue GAMMA=   0.9738
  2.0661  0.9060  0.3888  0.5341

 Free energy of the ion-electron system (eV)
  ---------------------------------------------------
  alpha Z        PSCENC =      2652.81237852
  Ewald energy   TEWEN  =    -41965.91515634
  -Hartree energ DENC   =    -25451.27792998
  -exchange      EXHF   =         0.00000000
  -V(xc)+E(xc)   XCENC  =      3706.95775580
  PAW double counting   =     70283.28193925   -73835.44496537
  entropy T*S    EENTRO =        -0.00000000
  eigenvalues    EBANDS =    -10155.12905485
  atomic energy  EATOM  =     73862.19814772
  Solvation  Ediel_sol  =         0.00000000
  ---------------------------------------------------
  free energy    TOTEN  =      -902.51688524 eV

  energy without entropy =     -902.51688524  energy(sigma->0) =     -902.51688524


--------------------------------------------------------------------------------------------------------




--------------------------------------- Iteration      1(  17)  ---------------------------------------


    POTLOK:  cpu time    0.0614: real time    0.0628
    SETDIJ:  cpu time    2.7411: real time    2.7425
    EDDIAG:  cpu time    3.2412: real time    3.2475
  RMM-DIIS:  cpu time   16.8345: real time   16.9184
    ORTHCH:  cpu time    0.5821: real time    0.5859
       DOS:  cpu time    0.0006: real time    0.0006
    CHARGE:  cpu time    1.7982: real time    1.8005
    MIXING:  cpu time    0.0034: real time    0.0035
    --------------------------------------------
      LOOP:  cpu time   25.2625: real time   25.3617

 eigenvalue-minimisations  : 18482
 total energy-change (2. order) : 0.1870167E+00  (-0.6008214E-01)
 number of electron     671.9999552 magnetization      47.9999975
 augmentation part      251.0525840 magnetization      33.8874883

 Broyden mixing:
  rms(total) = 0.75106E+00    rms(broyden)= 0.75097E+00
  rms(prec ) = 0.84558E+00
  weight for this iteration     100.00

 eigenvalues of (default mixing * dielectric matrix)
  average eigenvalue GAMMA=   1.0044
  2.2349  1.1370  0.3801  0.7028  0.5673

 Free energy of the ion-electron system (eV)
  ---------------------------------------------------
  alpha Z        PSCENC =      2652.81237852
  Ewald energy   TEWEN  =    -41965.91515634
  -Hartree energ DENC   =    -25444.76101338
  -exchange      EXHF   =         0.00000000
  -V(xc)+E(xc)   XCENC  =      3703.97125792
  PAW double counting   =     71087.38795786   -74647.52614602
  entropy T*S    EENTRO =        -0.00000000
  eigenvalues    EBANDS =    -10150.49729489
  atomic energy  EATOM  =     73862.19814772
  Solvation  Ediel_sol  =         0.00000000
  ---------------------------------------------------
  free energy    TOTEN  =      -902.32986859 eV

  energy without entropy =     -902.32986859  energy(sigma->0) =     -902.32986859


--------------------------------------------------------------------------------------------------------




--------------------------------------- Iteration      1(  18)  ---------------------------------------


    POTLOK:  cpu time    0.0600: real time    0.0616
    SETDIJ:  cpu time    2.7307: real time    2.7333
    EDDIAG:  cpu time    3.2417: real time    3.2484
  RMM-DIIS:  cpu time   16.6038: real time   16.6253
    ORTHCH:  cpu time    0.5823: real time    0.5862
       DOS:  cpu time    0.0006: real time    0.0006
    CHARGE:  cpu time    1.8005: real time    1.8030
    MIXING:  cpu time    0.0009: real time    0.0009
    --------------------------------------------
      LOOP:  cpu time   25.0206: real time   25.0593

 eigenvalue-minimisations  : 17588
 total energy-change (2. order) : 0.3834935E+00  (-0.6895306E-01)
 number of electron     671.9999551 magnetization      47.9999975
 augmentation part      250.5558706 magnetization      33.8484070

 Broyden mixing:
  rms(total) = 0.26821E+00    rms(broyden)= 0.26791E+00
  rms(prec ) = 0.28129E+00
  weight for this iteration     100.00

 eigenvalues of (default mixing * dielectric matrix)
  average eigenvalue GAMMA=   1.0238
[...]
   4      -0.752    -0.476     1.228     0.031     0.129     0.016
   5      -0.693    -0.777     1.470    -0.142    -0.014    -0.048
   6      -1.050    -0.963     2.013    -0.032     0.017     0.014
   7      -0.588    -1.021     1.609    -0.165     0.010     0.098
   8      -1.037    -1.017     2.054     0.151    -0.036     0.091
   9      -0.697    -0.849     1.546     0.190    -0.004     0.008
  10      -0.629    -0.786     1.415     0.096    -0.034    -0.074
  11      -0.673    -0.868     1.541    -0.181     0.067     0.038
  12      -0.645    -0.864     1.509     0.160     0.054    -0.036
  13      -0.841    -0.570     1.412     0.010    -0.026    -0.037
  14      -1.166    -0.735     1.901     0.044    -0.130    -0.100
  15      -1.144    -0.714     1.858    -0.065     0.034     0.029
  16      -0.987    -0.916     1.903    -0.125    -0.036     0.067
  17       1.522     1.468    -2.990    -0.042    -0.078     0.004
  18       1.515     1.463    -2.978    -0.051     0.058     0.001
  19       1.407     1.453    -2.860     0.059     0.037     0.069
  20       1.210     1.629    -2.839    -0.070    -0.047     0.086
  21       1.513     1.320    -2.833     0.179    -0.064     0.041
  22       1.411     1.474    -2.885     0.152     0.087    -0.003
  23       1.260     1.637    -2.898    -0.145     0.056    -0.075
  24       1.325     1.399    -2.724     0.047    -0.057    -0.045
  25       0.641    -0.905     0.263     0.501     0.398    -0.629
  26      -0.541     0.516     0.025     0.494    -1.341    -0.853
  27       0.220     0.945    -1.165     1.369     0.810     0.166
  28       1.093    -0.990    -0.103     0.547    -0.363     1.136
  29       0.911    -1.289     0.379    -0.308     0.624     0.602
  30      -0.381    -0.447     0.828    -0.337     0.688     0.344
  31       0.159     0.329    -0.489    -0.902     0.102    -1.041
  32       0.996     0.268    -1.264     0.629     0.898     0.202
  33       0.768    -2.084     1.316     0.304     0.687    -0.691
  34       0.099    -0.236     0.137    -0.821     0.044     0.227
  35      -0.332     0.787    -0.455    -0.122    -0.205     0.489
  36       1.840    -1.173    -0.667    -1.281    -0.653    -0.697
  37      -0.417     1.703    -1.285     0.367     0.231     0.467
  38       0.526     2.332    -2.858    -1.066    -1.167     1.191
  39       0.401     0.116    -0.517    -1.104     0.753     0.033
  40      -0.802    -0.204     1.006    -0.574    -0.258     0.541
  41      -4.386     2.094     2.292    -4.409     0.758    -5.152
  42      -1.892     1.175     0.716     4.994     1.616     4.241
  43       5.133    -6.724     1.590    -0.386    -4.338     0.300
  44      -6.001     3.395     2.606    -4.683    -2.098     3.808
  45       6.769    -6.044    -0.725     0.933     3.201    -0.175
  46      -3.054     2.430     0.623     4.348    -2.650    -5.166
  47      -4.253     4.661    -0.408    -3.641     2.202    -3.897
  48       5.867    -5.306    -0.561    -1.161    -5.152    -0.951
  49      -3.665     3.288     0.377     4.991     2.681     3.014
  50      -3.748     2.559     1.190    -3.896    -2.270     5.760
  51      -2.505     1.587     0.918     5.432    -2.324    -2.944
  52       6.308    -5.463    -0.845     1.366     3.473     1.111
  53      -1.398     1.203     0.195    -4.442     2.950    -3.557
  54      -3.211     3.563    -0.352     3.548     2.902     3.669
  55       3.983    -5.261     1.279     1.935    -6.010    -0.899
  56      -2.697     1.562     1.135    -5.037    -2.405     3.238
  57       7.191    -8.467     1.276     0.170     5.282    -1.677
  58      -1.276     3.857    -2.580     7.109     0.983    -3.313
  59      -2.835     1.022     1.813    -5.296     3.271    -4.215
  60       6.670    -7.040     0.371     2.776    -3.584    -0.363
  61      -4.077     1.250     2.827     4.575     2.363     4.319
  62      -2.938     1.966     0.971    -4.984    -2.725     4.046
  63      -2.039     3.337    -1.298     4.861    -2.334    -2.084
  64       8.038    -6.761    -1.277     0.119     6.309     0.291
  65      -2.515     0.250     2.265    -4.036     2.890    -4.039
  66      -4.376     2.776     1.599     6.371     2.298     3.457
  67       4.716    -5.596     0.880    -0.684    -5.127     0.345
  68      -2.185     1.352     0.833    -5.040    -2.790     4.143
  69       7.108    -6.030    -1.078    -0.923     4.307    -0.581
  70      -3.270     2.306     0.964     4.718    -1.969    -4.255
  71      -2.955     1.423     1.532    -5.263     2.929    -3.439
  72       6.677    -5.483    -1.194     0.060    -3.129     0.333
  73      -2.834     2.515     0.319     3.859     3.189     4.773
  74      -3.171     4.126    -0.955    -6.374    -1.475     3.069
  75      -4.586     2.224     2.362     4.495    -2.649    -3.958
  76       5.025    -5.553     0.528    -1.319     3.697     0.779
  77      -4.239     6.764    -2.525    -6.768     2.769    -2.343
  78      -3.015     4.188    -1.173     6.299     1.946     3.561
  79       7.915    -6.761    -1.154    -1.392    -2.842     1.907
  80      -2.256     0.722     1.534    -5.250    -2.320     3.499
  81       4.570    -5.733     1.162     0.684     4.519     0.623
  82      -6.266     3.606     2.660     4.335    -3.082    -5.040
  83      -2.384     5.412    -3.028    -5.312    -0.688    -2.187
  84       5.652    -5.506    -0.147    -2.070    -5.049     0.008
  85      -2.931     1.671     1.259     5.212     0.367     5.373
  86      -1.436     4.251    -2.816    -5.975    -0.128     3.915
  87      -3.628     2.916     0.713     4.398    -1.474    -5.281
  88       5.941    -4.788    -1.153     1.531     3.900     0.509
 ---------------------------------------------------------------------


 Total hyperfine coupling parameters after diagonalization (MHz)
 (convention: |A_zz| > |A_xx| > |A_yy|)
 ----------------------------------------------------------------------
  ion      A_xx      A_yy      A_zz     asymmetry (A_yy - A_xx)/ A_zz 
 ----------------------------------------------------------------------
   1      -0.369    -0.054     2.767       0.114
   2       2.351     2.034     4.384      -0.072
   3       0.209    -0.102     3.034      -0.102
   4       2.147     1.858     3.858      -0.075
   5       2.593     2.296     4.651      -0.064
   6      -0.418    -0.310     2.656       0.041
   7       2.177     1.630     4.322      -0.127
   8      -1.125    -0.821     2.113       0.144
   9       2.245     1.836     4.360      -0.094
  10       2.347     2.100     4.351      -0.057
  11       2.345     1.933     4.454      -0.092
  12       2.501     2.113     4.574      -0.085
  13       2.335     2.063     4.318      -0.063
  14       0.278    -0.161     2.924      -0.150
  15       0.279    -0.170     2.843      -0.158
  16       0.328     0.071     3.057      -0.084
  17      14.866    10.430    14.968      -0.296
  18      14.814    10.404    14.928      -0.295
  19      12.999     8.771    13.127      -0.322
  20      12.919     8.879    13.363      -0.302
  21      12.767     8.719    13.173      -0.307
  22      14.004     9.829    14.314      -0.292
  23      13.421     9.311    13.899      -0.296
  24      12.319     8.291    12.439      -0.324
  25      97.731    95.890    98.160      -0.019
  26      93.353    91.904    95.382      -0.015
  27      96.015    94.864    98.622      -0.012
  28      97.544    94.960    98.107      -0.026
  29      95.640    93.801    96.709      -0.019
  30      96.660    95.739    97.939      -0.009
  31      94.331    93.174    96.050      -0.012
  32      94.569    93.044    96.251      -0.016
  33      99.370    96.633   100.742      -0.027
  34      94.820    93.718    95.451      -0.012
  35      96.044    95.639    97.314      -0.004
  36      93.771    91.791    96.321      -0.021
  37      97.589    96.655    99.888      -0.009
  38      95.607    92.145    98.732      -0.035
  39      96.469    95.442    98.244      -0.010
  40      99.067    98.074   100.539      -0.010
  41       5.365    -0.208    15.215      -0.366
  42       4.207     0.088    13.641      -0.302
  43       7.027     1.610    16.414      -0.330
  44       7.752     0.331    16.796      -0.442
  45       5.301     1.004    15.148      -0.284
  46       4.992     2.965    17.327      -0.117
  47       4.029     0.828    14.764      -0.217
  48       3.849     0.471    15.282      -0.221
  49       5.710     0.760    15.140      -0.327
  50       1.680    -0.464    14.395      -0.149
  51       7.336     2.273    16.026      -0.316
  52       4.508     0.938    14.616      -0.244
  53       5.708     3.680    15.889      -0.128
  54       4.582     1.758    14.665      -0.193
  55       2.840     0.575    15.344      -0.148
  56       4.706     0.082    13.591      -0.340
  57       9.767     2.424    21.567      -0.340
  58       7.168     0.895    17.911      -0.350
  59       5.495     1.184    16.537      -0.261
  60       8.224     1.779    18.123      -0.356
  61       6.755     1.642    16.654      -0.307
  62       2.585    -1.200    13.156      -0.288
  63       5.760     2.620    15.067      -0.208
  64       3.753     1.413    19.421      -0.120
  65       4.383     1.271    14.354      -0.217
  66       7.465     0.111    17.092      -0.430
  67       4.047     1.077    15.032      -0.198
  68       3.609     0.363    14.399      -0.225
  69       4.661     1.463    16.613      -0.192
  70       3.004    -0.911    13.156      -0.298
  71       6.040     1.057    15.603      -0.319
  72       6.585     3.318    16.605      -0.197
  73       2.803     1.234    14.799      -0.106
  74       6.395     1.616    17.480      -0.273
  75       3.765    -1.719    13.410      -0.409
  76       6.031     1.195    14.340      -0.337
  77       7.059     2.019    20.756      -0.243
  78       4.806     0.862    16.933      -0.233
  79       8.173     2.397    18.719      -0.309
  80       6.887     2.009    15.835      -0.308
  81       6.533     2.693    16.250      -0.236
  82       6.251     0.075    18.045      -0.342
  83       6.020     2.367    16.708      -0.219
  84       3.705     0.350    15.231      -0.220
  85       5.628    -0.662    15.065      -0.418
  86       7.616     3.540    19.098      -0.213
  87       4.404     0.963    15.820      -0.218
  88       4.804     2.668    15.540      -0.137
 ---------------------------------------------------------------------



--------------------------------------------------------------------------------------------------------


 stress matrix after NEB project (eV)
    -49.59519      0.34051     -2.81572
      0.32581    -45.32053      0.20731
     -2.79782      0.20627    -64.30954
  FORCES: max atom, RMS     2.556396    1.130270
  FORCE total and by dimension   10.602873    2.524821
  Stress total and by dimension   93.088212   64.309545
     LOOP+:  cpu time  672.0797: real time  673.9150
    4ORBIT:  cpu time    0.0000: real time    0.0000
 


 total charge     
 
# of ion       s       p       d       tot
------------------------------------------
    1        0.055   6.000   0.000   6.055
    2        0.049   5.992   0.000   6.041
    3        0.057   6.002   0.000   6.059
    4        0.047   5.989   0.000   6.037
    5        0.048   5.991   0.000   6.040
    6        0.055   6.000   0.000   6.056
    7        0.052   5.995   0.000   6.048
    8        0.057   6.002   0.000   6.059
    9        0.048   5.990   0.000   6.038
   10        0.051   5.993   0.000   6.045
   11        0.048   5.990   0.000   6.038
   12        0.048   5.990   0.000   6.038
   13        0.051   5.994   0.000   6.045
   14        0.051   5.995   0.000   6.046
   15        0.056   6.000   0.000   6.056
   16        0.054   5.999   0.000   6.052
   17        0.146   6.124   0.081   6.351
   18        0.150   6.130   0.086   6.366
   19        0.141   6.116   0.074   6.331
   20        0.143   6.118   0.076   6.337
   21        0.145   6.121   0.078   6.344
   22        0.146   6.125   0.081   6.352
   23        0.148   6.126   0.082   6.356
   24        0.137   6.107   0.067   6.311
   25        0.367   6.437   4.809  11.613
   26        0.387   6.479   4.851  11.717
   27        0.367   6.433   4.816  11.616
   28        0.377   6.459   4.836  11.672
   29        0.383   6.471   4.851  11.706
   30        0.379   6.462   4.840  11.681
   31        0.386   6.478   4.856  11.720
   32        0.382   6.469   4.855  11.706
   33        0.367   6.435   4.810  11.612
   34        0.380   6.467   4.833  11.680
   35        0.378   6.463   4.832  11.672
   36        0.377   6.460   4.824  11.661
   37        0.369   6.440   4.822  11.630
   38        0.379   6.459   4.849  11.687
   39        0.369   6.442   4.823  11.635
   40        0.366   6.430   4.815  11.610
   41        1.599   3.493   0.000   5.092
   42        1.598   3.500   0.000   5.098
   43        1.598   3.527   0.000   5.125
   44        1.601   3.514   0.000   5.115
   45        1.599   3.487   0.000   5.085
   46        1.601   3.497   0.000   5.098
   47        1.598   3.479   0.000   5.077
   48        1.600   3.496   0.000   5.096
   49        1.599   3.497   0.000   5.095
   50        1.601   3.476   0.000   5.077
   51        1.601   3.541   0.000   5.142
   52        1.599   3.525   0.000   5.124
   53        1.599   3.500   0.000   5.099
   54        1.598   3.496   0.000   5.094
   55        1.599   3.488   0.000   5.086
   56        1.599   3.521   0.000   5.120
   57        1.605   3.502   0.000   5.107
   58        1.600   3.477   0.000   5.077
   59        1.599   3.516   0.000   5.115
   60        1.602   3.495   0.000   5.097
   61        1.600   3.526   0.000   5.125
   62        1.600   3.511   0.000   5.111
   63        1.597   3.510   0.000   5.107
   64        1.601   3.499   0.000   5.100
   65        1.598   3.520   0.000   5.118
   66        1.600   3.502   0.000   5.102
   67        1.599   3.510   0.000   5.109
   68        1.599   3.510   0.000   5.109
   69        1.598   3.482   0.000   5.080
   70        1.598   3.483   0.000   5.081
   71        1.599   3.525   0.000   5.124
   72        1.596   3.490   0.000   5.085
   73        1.600   3.495   0.000   5.095
   74        1.599   3.478   0.000   5.077
   75        1.600   3.507   0.000   5.107
   76        1.596   3.523   0.000   5.119
   77        1.604   3.471   0.000   5.075
   78        1.599   3.499   0.000   5.098
   79        1.600   3.516   0.000   5.117
   80        1.598   3.522   0.000   5.120
   81        1.598   3.518   0.000   5.115
   82        1.600   3.480   0.000   5.080
   83        1.598   3.507   0.000   5.106
   84        1.598   3.518   0.000   5.117
   85        1.598   3.492   0.000   5.089
   86        1.600   3.472   0.000   5.072
   87        1.601   3.510   0.000   5.111
   88        1.598   3.477   0.000   5.074
--------------------------------------------------
tot         84.764 416.253  77.946 578.963
 


 magnetization (x)
 
# of ion       s       p       d       tot
------------------------------------------
    1        0.001   0.000   0.000   0.001
    2        0.002   0.000   0.000   0.003
    3        0.001   0.000   0.000   0.001
    4        0.002   0.001   0.000   0.002
    5        0.002   0.000   0.000   0.003
    6        0.000   0.000   0.000   0.001
    7        0.002   0.000   0.000   0.002
    8        0.000  -0.000   0.000  -0.000
    9        0.002   0.000   0.000   0.002
   10        0.002   0.001   0.000   0.003
   11        0.002   0.000   0.000   0.002
   12        0.002   0.000   0.000   0.002
   13        0.002   0.000   0.000   0.003
   14        0.001   0.000   0.000   0.001
   15        0.001   0.000   0.000   0.001
   16        0.001   0.000   0.000   0.001
   17        0.008   0.002   0.001   0.011
   18        0.008   0.003   0.001   0.012
   19        0.007   0.002   0.001   0.010
   20        0.006   0.001   0.001   0.009
   21        0.007   0.002   0.001   0.009
   22        0.007   0.002   0.001   0.010
   23        0.007   0.002   0.001   0.010
   24        0.006   0.001   0.001   0.008
   25        0.015   0.029   2.781   2.826
   26        0.014   0.031   2.732   2.777
   27        0.015   0.030   2.774   2.819
   28        0.015   0.031   2.756   2.802
   29        0.015   0.031   2.727   2.772
   30        0.015   0.030   2.747   2.791
   31        0.015   0.030   2.728   2.774
   32        0.015   0.030   2.720   2.765
   33        0.016   0.030   2.784   2.830
   34        0.015   0.030   2.751   2.796
   35        0.016   0.031   2.746   2.792
   36        0.015   0.030   2.757   2.802
   37        0.016   0.031   2.751   2.798
   38        0.015   0.032   2.721   2.768
   39        0.015   0.030   2.765   2.811
   40        0.015   0.030   2.773   2.818
   41        0.002   0.031   0.000   0.033
   42        0.002   0.020   0.000   0.022
   43        0.002   0.050   0.000   0.052
   44        0.002   0.046   0.000   0.048
   45        0.002   0.028   0.000   0.030
   46        0.002   0.034   0.000   0.036
   47        0.002   0.020   0.000   0.022
   48        0.002   0.025   0.000   0.027
   49        0.002   0.035   0.000   0.037
   50        0.002   0.001   0.000   0.003
   51        0.002   0.050   0.000   0.052
   52        0.002   0.029   0.000   0.031
   53        0.002   0.038   0.000   0.040
   54        0.002   0.025   0.000   0.027
   55        0.002   0.023   0.000   0.025
   56        0.002   0.033   0.000   0.034
   57        0.003   0.065   0.000   0.068
   58        0.002   0.032   0.000   0.034
   59        0.002   0.042   0.000   0.044
   60        0.002   0.040   0.000   0.043
   61        0.002   0.046   0.000   0.048
   62        0.001   0.010   0.000   0.012
   63        0.002   0.038   0.000   0.040
   64        0.002   0.043   0.000   0.046
   65        0.002   0.025   0.000   0.027
   66        0.002   0.049   0.000   0.051
   67        0.002   0.033   0.000   0.034
   68        0.002   0.031   0.000   0.033
   69        0.002   0.029   0.000   0.031
   70        0.002   0.011   0.000   0.012
   71        0.002   0.037   0.000   0.039
   72        0.002   0.040   0.000   0.043
   73        0.002   0.020   0.000   0.022
   74        0.002   0.039   0.000   0.041
   75        0.001   0.019   0.000   0.021
   76        0.002   0.036   0.000   0.037
   77        0.003   0.045   0.000   0.047
   78        0.002   0.029   0.000   0.031
   79        0.002   0.050   0.000   0.052
   80        0.002   0.039   0.000   0.041
   81        0.002   0.044   0.000   0.047
   82        0.002   0.042   0.000   0.044
   83        0.002   0.035   0.000   0.037
   84        0.002   0.030   0.000   0.031
   85        0.002   0.027   0.000   0.029
   86        0.003   0.041   0.000   0.043
   87        0.002   0.028   0.000   0.030
   88        0.002   0.025   0.000   0.027
--------------------------------------------------
tot          0.415   2.114  44.023  46.552
 

 total amount of memory used by VASP MPI-rank0   104109. kBytes
=======================================================================

   base      :      30000. kBytes
   nonlr-proj:      13667. kBytes
   fftplans  :       1316. kBytes
   grid      :      22786. kBytes
   one-center:       2737. kBytes
   wavefun   :      33603. kBytes
 
  
  
 General timing and accounting informations for this job:
 ========================================================
  
                  Total CPU time used (sec):      685.696
                            User time (sec):      681.187
                          System time (sec):        4.509
                         Elapsed time (sec):      688.800
  
                   Maximum memory used (kb):      197348.
                   Average memory used (kb):           0.
  
                          Minor page faults:       284887
                          Major page faults:            0
                 Voluntary context switches:         4209
