 vasp.5.4.4.18Apr17-6-g9f103f2a35 (build Dec 02 2020 12:53:39) complex          
  
 executed on             LinuxIFC date 2021.08.03  20:41:19
 running on   96 total cores
 distrk:  each k-point on   96 cores,    1 groups
 distr:  one band on NCORES_PER_BAND=   1 cores,   96 groups


--------------------------------------------------------------------------------------------------------


 INCAR:
 POTCAR:    PAW_PBE Na_pv 19Sep2006               
 POTCAR:    PAW_PBE Mg_pv 13Apr2007               
 POTCAR:    PAW_PBE Mn_pv 02Aug2007               
 POTCAR:    PAW_PBE O 08Apr2002                   

 ----------------------------------------------------------------------------- 
|                                                                             |
|           W    W    AA    RRRRR   N    N  II  N    N   GGGG   !!!           |
|           W    W   A  A   R    R  NN   N  II  NN   N  G    G  !!!           |
|           W    W  A    A  R    R  N N  N  II  N N  N  G       !!!           |
|           W WW W  AAAAAA  RRRRR   N  N N  II  N  N N  G  GGG   !            |
|           WW  WW  A    A  R   R   N   NN  II  N   NN  G    G                |
|           W    W  A    A  R    R  N    N  II  N    N   GGGG   !!!           |
|                                                                             |
|      For optimal performance we recommend to set                            |
|        NCORE= 4 - approx SQRT( number of cores)                             |
|      NCORE specifies how many cores store one orbital (NPAR=cpu/NCORE).     |
|      This setting can  greatly improve the performance of VASP for DFT.     |
|      The default,   NCORE=1            might be grossly inefficient         |
|      on modern multi-core architectures or massively parallel machines.     |
|      Do your own testing !!!!                                               |
|      Unfortunately you need to use the default for GW and RPA calculations. |
|      (for HF NCORE is supported but not extensively tested yet)             |
|                                                                             |
 ----------------------------------------------------------------------------- 

 POTCAR:    PAW_PBE Na_pv 19Sep2006               
   VRHFIN =Na: p6s1                                                             
   LEXCH  = PE                                                                  
   EATOM  =   766.0439 eV,   56.3026 Ry                                         
                                                                                
   TITEL  = PAW_PBE Na_pv 19Sep2006                                             
   LULTRA =        F    use ultrasoft PP ?                                      
   IUNSCR =        1    unscreen: 0-lin 1-nonlin 2-no                           
   RPACOR =    1.800    partial core radius                                     
   POMASS =   22.990; ZVAL   =    7.000    mass and valenz                      
   RCORE  =    2.200    outmost cutoff radius                                   
   RWIGS  =    2.200; RWIGS  =    1.164    wigner-seitz radius (au A)           
   ENMAX  =  259.561; ENMIN  =  194.671 eV                                      
   ICORE  =        2    local potential                                         
   LCOR   =        T    correct aug charges                                     
   LPAW   =        T    paw PP                                                  
   EAUG   =  368.056                                                            
   DEXC   =    0.000                                                            
   RMAX   =    2.245    core radius for proj-oper                               
   RAUG   =    1.300    factor for augmentation sphere                          
   RDEP   =    2.259    radius for radial grids                                 
   RDEPT  =    1.738    core radius for aug-charge                              
                                                                                
   Atomic configuration                                                         
    5 entries                                                                   
     n  l   j            E        occ.                                          
     1  0  0.50     -1033.6933   2.0000                                         
     2  0  0.50       -56.7526   2.0000                                         
     2  1  1.50       -28.6721   6.0000                                         
     3  0  0.50        -2.7440   1.0000                                         
     3  2  1.50        -1.3606   0.0000                                         
   Description                                                                  
     l       E           TYP  RCUT    TYP  RCUT                                 
     1    -28.6720912     23  2.000                                             
     1      6.8029130     23  2.000                                             
     0     -2.7439560     23  2.200                                             
     0     34.0145650     23  2.200                                             
     2     -1.3605826     23  2.200                                             
  local pseudopotential read in
  partial core-charges read in
  partial kinetic energy density read in
  atomic valenz-charges read in
  non local Contribution for L=           1  read in
    real space projection operators read in
  non local Contribution for L=           1  read in
    real space projection operators read in
  non local Contribution for L=           0  read in
    real space projection operators read in
  non local Contribution for L=           0  read in
    real space projection operators read in
    PAW grid and wavefunctions read in
 
   number of l-projection  operators is LMAX  =           4
   number of lm-projection operators is LMMAX =           8
 
 POTCAR:    PAW_PBE Mg_pv 13Apr2007               
   VRHFIN =Mg: p6s2                                                             
   LEXCH  = PE                                                                  
   EATOM  =  1056.7344 eV,   77.6678 Ry                                         
                                                                                
   TITEL  = PAW_PBE Mg_pv 13Apr2007                                             
   LULTRA =        F    use ultrasoft PP ?                                      
   IUNSCR =        1    unscreen: 0-lin 1-nonlin 2-no                           
   RPACOR =    1.500    partial core radius                                     
   POMASS =   24.305; ZVAL   =    8.000    mass and valenz                      
   RCORE  =    2.000    outmost cutoff radius                                   
   RWIGS  =    2.000; RWIGS  =    1.058    wigner-seitz radius (au A)           
   ENMAX  =  403.929; ENMIN  =  302.947 eV                                      
   RCLOC  =    1.506    cutoff for local pot                                    
   LCOR   =        T    correct aug charges                                     
   LPAW   =        T    paw PP                                                  
   EAUG   =  758.780                                                            
   DEXC   =    0.000                                                            
   RMAX   =    2.045    core radius for proj-oper                               
   RAUG   =    1.300    factor for augmentation sphere                          
   RDEP   =    2.025    radius for radial grids                                 
   RDEPT  =    1.557    core radius for aug-charge                              
                                                                                
   Atomic configuration                                                         
    5 entries                                                                   
     n  l   j            E        occ.                                          
     1  0  0.50     -1259.6230   2.0000                                         
     2  0  0.50       -79.8442   2.0000                                         
     2  1  1.50       -46.6121   6.0000                                         
     3  0  0.50        -4.7055   2.0000                                         
     3  2  1.50        -1.3606   0.0000                                         
   Description                                                                  
     l       E           TYP  RCUT    TYP  RCUT                                 
     1    -46.6121073     23  1.600                                             
     1      2.7211652     23  1.600                                             
     0     -4.7054661     23  2.000                                             
     0     61.2262170     23  2.000                                             
     2     -1.3605826     23  2.000                                             
  local pseudopotential read in
  partial core-charges read in
  partial kinetic energy density read in
  atomic valenz-charges read in
  non local Contribution for L=           1  read in
    real space projection operators read in
  non local Contribution for L=           1  read in
    real space projection operators read in
  non local Contribution for L=           0  read in
    real space projection operators read in
  non local Contribution for L=           0  read in
    real space projection operators read in
  non local Contribution for L=           2  read in
    real space projection operators read in
    PAW grid and wavefunctions read in
 
   number of l-projection  operators is LMAX  =           5
   number of lm-projection operators is LMMAX =          13
 
 POTCAR:    PAW_PBE Mn_pv 02Aug2007               
   VRHFIN =Mn: 3p4s3d                                                           
   LEXCH  = PE                                                                  
   EATOM  =  2025.2664 eV,  148.8529 Ry                                         
                                                                                
   TITEL  = PAW_PBE Mn_pv 02Aug2007                                             
   LULTRA =        F    use ultrasoft PP ?                                      
   IUNSCR =        1    unscreen: 0-lin 1-nonlin 2-no                           
   RPACOR =    2.080    partial core radius                                     
   POMASS =   54.938; ZVAL   =   13.000    mass and valenz                      
   RCORE  =    2.300    outmost cutoff radius                                   
   RWIGS  =    2.500; RWIGS  =    1.323    wigner-seitz radius (au A)           
   ENMAX  =  269.864; ENMIN  =  202.398 eV                                      
   ICORE  =        3    local potential                                         
   LCOR   =        T    correct aug charges                                     
   LPAW   =        T    paw PP                                                  
   EAUG   =  569.085                                                            
   DEXC   =    0.000                                                            
   RMAX   =    2.343    core radius for proj-oper                               
   RAUG   =    1.300    factor for augmentation sphere                          
   RDEP   =    2.338    radius for radial grids                                 
   RDEPT  =    1.798    core radius for aug-charge                              
                                                                                
   Atomic configuration                                                         
    8 entries                                                                   
     n  l   j            E        occ.                                          
     1  0  0.50     -6424.8287   2.0000                                         
     2  0  0.50      -739.1154   2.0000                                         
     2  1  1.50      -625.3949   6.0000                                         
     3  0  0.50       -81.6100   2.0000                                         
     3  1  1.50       -50.4667   6.0000                                         
     3  2  2.50        -3.3745   6.0000                                         
     4  0  0.50        -4.1331   1.0000                                         
     4  3  2.50        -1.3606   0.0000                                         
   Description                                                                  
     l       E           TYP  RCUT    TYP  RCUT                                 
     1    -50.4666628     23  2.000                                             
     1     -1.3605826     23  2.000                                             
     2     -3.3744729     23  2.300                                             
     2     -4.7350555     23  2.300                                             
     0     -4.1331431     23  2.300                                             
     0      7.6656591     23  2.300                                             
     3      9.5240782     23  2.300                                             
  local pseudopotential read in
  partial core-charges read in
  partial kinetic energy density read in
  atomic valenz-charges read in
  non local Contribution for L=           1  read in
    real space projection operators read in
  non local Contribution for L=           1  read in
    real space projection operators read in
  non local Contribution for L=           2  read in
    real space projection operators read in
  non local Contribution for L=           2  read in
    real space projection operators read in
  non local Contribution for L=           0  read in
    real space projection operators read in
  non local Contribution for L=           0  read in
    real space projection operators read in
    PAW grid and wavefunctions read in
 
   number of l-projection  operators is LMAX  =           6
   number of lm-projection operators is LMMAX =          18
 
 POTCAR:    PAW_PBE O 08Apr2002                   
   VRHFIN =O: s2p4                                                              
   LEXCH  = PE                                                                  
   EATOM  =   432.3788 eV,   31.7789 Ry                                         
                                                                                
   TITEL  = PAW_PBE O 08Apr2002                                                 
   LULTRA =        F    use ultrasoft PP ?                                      
   IUNSCR =        1    unscreen: 0-lin 1-nonlin 2-no                           
   RPACOR =    1.200    partial core radius                                     
   POMASS =   16.000; ZVAL   =    6.000    mass and valenz                      
   RCORE  =    1.520    outmost cutoff radius                                   
   RWIGS  =    1.550; RWIGS  =    0.820    wigner-seitz radius (au A)           
   ENMAX  =  400.000; ENMIN  =  300.000 eV                                      
   ICORE  =        2    local potential                                         
   LCOR   =        T    correct aug charges                                     
   LPAW   =        T    paw PP                                                  
   EAUG   =  605.392                                                            
   DEXC   =    0.000                                                            
   RMAX   =    1.553    core radius for proj-oper                               
   RAUG   =    1.300    factor for augmentation sphere                          
   RDEP   =    1.550    radius for radial grids                                 
   RDEPT  =    1.329    core radius for aug-charge                              
                                                                                
   Atomic configuration                                                         
    4 entries                                                                   
     n  l   j            E        occ.                                          
     1  0  0.50      -514.6923   2.0000                                         
     2  0  0.50       -23.9615   2.0000                                         
     2  1  0.50        -9.0305   4.0000                                         
     3  2  1.50        -9.5241   0.0000                                         
   Description                                                                  
     l       E           TYP  RCUT    TYP  RCUT                                 
     0    -23.9615318     23  1.200                                             
     0     -9.5240782     23  1.200                                             
     1     -9.0304911     23  1.520                                             
     1      8.1634956     23  1.520                                             
     2     -9.5240782      7  1.500                                             
  local pseudopotential read in
  partial core-charges read in
  partial kinetic energy density read in
  kinetic energy density of atom read in
  atomic valenz-charges read in
  non local Contribution for L=           0  read in
    real space projection operators read in
  non local Contribution for L=           0  read in
    real space projection operators read in
  non local Contribution for L=           1  read in
    real space projection operators read in
  non local Contribution for L=           1  read in
    real space projection operators read in
    PAW grid and wavefunctions read in
 
   number of l-projection  operators is LMAX  =           4
   number of lm-projection operators is LMMAX =           8
 
 Optimization of the real space projectors (new method)

 maximal supplied QI-value         = 17.01
 optimisation between [QCUT,QGAM] = [ 10.20, 20.41] = [ 29.16,116.64] Ry 
 Optimized for a Real-space Cutoff    1.30 Angstroem

   l    n(q)    QCUT    max X(q) W(low)/X(q) W(high)/X(q)  e(spline) 
   1      7    10.205     4.940    0.23E-03    0.84E-03    0.11E-06
   1      7    10.205     6.253    0.40E-03    0.13E-02    0.18E-06
   0      8    10.205    37.438    0.23E-03    0.37E-03    0.42E-07
   0      8    10.205     9.606    0.16E-03    0.26E-03    0.31E-07
 Optimization of the real space projectors (new method)

 maximal supplied QI-value         = 18.90
 optimisation between [QCUT,QGAM] = [ 10.20, 20.41] = [ 29.16,116.64] Ry 
 Optimized for a Real-space Cutoff    1.26 Angstroem

   l    n(q)    QCUT    max X(q) W(low)/X(q) W(high)/X(q)  e(spline) 
   1      7    10.205     2.974    0.63E-04    0.14E-03    0.13E-06
   1      7    10.205     4.279    0.11E-03    0.45E-03    0.24E-06
   0      8    10.205    16.381    0.44E-03    0.15E-03    0.55E-07
   0      8    10.205     5.611    0.31E-03    0.11E-03    0.40E-07
   2      7    10.205     4.652    0.50E-03    0.47E-03    0.57E-07
 Optimization of the real space projectors (new method)

 maximal supplied QI-value         = 16.25
 optimisation between [QCUT,QGAM] = [ 10.24, 20.48] = [ 29.35,117.42] Ry 
 Optimized for a Real-space Cutoff    1.34 Angstroem

   l    n(q)    QCUT    max X(q) W(low)/X(q) W(high)/X(q)  e(spline) 
   1      8    10.239     3.658    0.23E-03    0.30E-03    0.98E-07
   1      8    10.239     5.612    0.32E-03    0.65E-03    0.21E-06
   2      7    10.239    55.373    0.42E-03    0.45E-03    0.65E-07
   2      7    10.239    50.863    0.43E-03    0.48E-03    0.67E-07
   0      8    10.239    79.536    0.11E-03    0.21E-03    0.56E-07
   0      8    10.239    38.668    0.96E-04    0.19E-03    0.52E-07
 Optimization of the real space projectors (new method)

 maximal supplied QI-value         = 24.76
 optimisation between [QCUT,QGAM] = [ 10.15, 20.30] = [ 28.85,115.39] Ry 
 Optimized for a Real-space Cutoff    1.38 Angstroem

   l    n(q)    QCUT    max X(q) W(low)/X(q) W(high)/X(q)  e(spline) 
   0      8    10.150    20.381    0.22E-03    0.32E-03    0.29E-06
   0      8    10.150    15.268    0.23E-03    0.35E-03    0.30E-06
   1      8    10.150     5.964    0.46E-03    0.53E-03    0.21E-06
   1      8    10.150     5.382    0.38E-03    0.45E-03    0.19E-06
  PAW_PBE Na_pv 19Sep2006               :
 energy of atom  1       EATOM= -766.0439
 kinetic energy error for atom=    0.0103 (will be added to EATOM!!)
  PAW_PBE Mg_pv 13Apr2007               :
 energy of atom  2       EATOM=-1056.7344
 kinetic energy error for atom=    0.0820 (will be added to EATOM!!)
  PAW_PBE Mn_pv 02Aug2007               :
 energy of atom  3       EATOM=-2025.2664
 kinetic energy error for atom=    0.0284 (will be added to EATOM!!)
  PAW_PBE O 08Apr2002                   :
 energy of atom  4       EATOM= -432.3788
 kinetic energy error for atom=    0.1156 (will be added to EATOM!!)
 
 
 POSCAR: Na Mg Mn  O                             
  positions in cartesian coordinates
  No initial velocities read in

 METAGGA = SCAN     LMAXTAU =  6    LMIXTAU =  F

 exchange correlation table for  LEXCH =        8
   RHO(1)=    0.500       N(1)  =     2000
   RHO(2)=  100.500       N(2)  =     4000

 VTST: version 3.2, (02/03/18)

 CHAIN: initializing optimizer
 
 OPT: Using VASP Dynamics algorithm
 CHAIN: Read ICHAIN            0
 
 POSCAR: Na Mg Mn  O                             
  positions in cartesian coordinates
  No initial velocities read in
 


--------------------------------------------------------------------------------------------------------


 ion  position               nearest neighbor table
   1  0.469  0.943  0.253-  42 2.35  62 2.35  88 2.36  31 2.80  29 2.88
   2  0.845  0.597  0.755-  73 2.18  70 2.21  34 2.84
   3  0.290  0.898  0.750-  81 2.29  84 2.33
   4  0.485  0.438  0.754-  71 2.33  85 2.37  35 2.83  33 2.85
   5  0.296  0.176  0.249-  41 2.29  43 2.33  50 2.33  52 2.35
   6  0.798  0.199  0.251-  64 2.26  53 2.29  62 2.32  55 2.33
   7  0.002  0.327  0.747-  83 2.20  80 2.22
   8  0.646  0.103  0.747-  56 2.27  57 2.30  59 2.35
   9  0.507  0.635  0.245-  79 2.34  65 2.36  74 2.37
  10  0.173  0.451  0.242-  78 2.20  87 2.29  77 2.30
  11  0.634  0.421  0.267-  75 2.23  52 2.26
  12  0.147  0.101  0.759-  47 2.27  61 2.29
  13  0.304  0.619  0.749-  84 2.27  81 2.29  82 2.37  38 2.86  40 2.87
  14  0.784  0.901  0.756-  59 2.30  72 2.32  69 2.37
  15  0.061  0.689  0.245-  86 2.28  67 2.28  77 2.32  76 2.38
  16  0.885  0.876  0.253-  63 2.20  54 2.20  76 2.32  67 2.37  27 2.89  25 2.96
  17  0.642  0.266  0.995-  43 2.01  71 2.01  66 2.02  49 2.05  60 2.05  53 2.07  29 2.83  37 2.85

  18  0.632  0.271  0.501-  52 1.96  62 2.04  68 2.05  57 2.12  75 2.12  46 2.18  35 2.82
  19  0.148  0.269  0.004-  55 2.03  83 2.04  61 2.07  78 2.11  48 2.12  41 2.15  33 2.80  38 2.84

  20  0.136  0.263  0.490-  50 1.93  87 2.01  64 2.04  58 2.05  45 2.06  80 2.12  28 2.80  27 2.86

  21  0.148  0.760  0.986-  73 1.99  84 2.04  47 2.04  77 2.07  42 2.08  38 2.83
  22  0.129  0.767  0.503-  44 1.98  81 2.02  70 2.04  76 2.05  51 2.08  86 2.10  36 2.84
  23  0.646  0.771  0.990-  72 1.93  54 1.97  59 1.98  85 2.08  79 2.17  30 2.77  25 2.84  34 2.85

  24  0.645  0.774  0.504-  74 2.00  56 2.04  69 2.06  63 2.07  82 2.09  88 2.17  27 2.78  36 2.79
                            32 2.85
  25  0.972  0.930  0.998-  41 1.88  67 1.94  54 1.94  72 1.94  47 1.95  61 1.99  30 2.83  23 2.84
                            34 2.87  26 2.88  16 2.96
  26  0.304  0.091  0.990-  41 1.81  48 1.88  49 1.92  43 1.94  47 1.95  42 2.00  29 2.85  25 2.88
                            33 2.92
  27  0.966  0.934  0.502-  69 1.85  63 1.85  50 1.88  76 1.97  44 1.97  58 2.01  24 2.78  36 2.82
                            32 2.85  20 2.86  28 2.89  16 2.89
  28  0.299  0.105  0.511-  44 1.83  51 1.89  46 1.94  45 1.94  50 1.95  52 2.03  20 2.80  35 2.89
                            27 2.89  31 2.89
  29  0.481  0.940  0.997-  84 1.85  49 1.87  53 1.88  42 1.91  59 1.95  79 1.96  30 2.83  17 2.83
                            26 2.85   1 2.88  38 2.98
  30  0.806  0.090  0.991-  60 1.88  54 1.90  59 1.91  53 1.94  55 1.97  61 1.99  23 2.77  29 2.83
                            25 2.83  37 2.92
  31  0.462  0.935  0.503-  51 1.90  81 1.93  62 1.93  46 1.94  88 1.95  56 2.04   1 2.80  28 2.89
                            40 2.92  32 2.99
  32  0.806  0.103  0.510-  63 1.88  58 1.89  57 1.89  56 1.92  64 1.95  62 2.06  24 2.85  27 2.85
                            39 2.86  31 2.99
  33  0.470  0.427  0.007-  85 1.82  78 1.90  48 1.92  71 1.93  65 1.95  43 1.96  19 2.80   4 2.85
                            34 2.87  38 2.87  26 2.92
  34  0.801  0.599  0.005-  65 1.84  66 1.85  72 1.90  67 1.91  71 1.93  73 2.04   2 2.84  23 2.85
                            33 2.87  25 2.87  37 2.97
  35  0.473  0.437  0.502-  45 1.85  52 1.88  68 1.88  74 1.97  87 2.01  82 2.03  18 2.82   4 2.83
                            36 2.86  28 2.89  40 2.97
  36  0.802  0.610  0.492-  76 1.85  74 1.86  75 1.89  68 1.90  69 1.92  70 2.00  24 2.79  27 2.82
                            22 2.84  35 2.86  39 2.97
  37  0.970  0.426  1.000-  73 1.87  66 1.94  55 1.94  77 1.95  60 1.96  83 1.98  17 2.85  30 2.92
                            38 2.93  34 2.97
  38  0.308  0.596  0.003-  85 1.91  79 1.92  78 1.94  77 1.94  83 1.95  84 1.98  21 2.83  19 2.84
                            13 2.86  33 2.87  37 2.93  29 2.98
  39  0.965  0.432  0.500-  80 1.85  70 1.86  64 1.87  86 1.99  57 2.00  75 2.01  40 2.84  32 2.86
                            36 2.97
  40  0.292  0.598  0.494-  80 1.86  86 1.89  87 1.91  81 1.93  88 2.00  82 2.00  39 2.84  13 2.87
                            31 2.92  35 2.97
  41  0.148  0.074  0.082-  26 1.81  25 1.88  19 2.15   5 2.29
  42  0.318  0.933  0.090-  29 1.91  26 2.00  21 2.08   1 2.35
  43  0.464  0.250  0.088-  26 1.94  33 1.96  17 2.01   5 2.33
  44  0.141  0.944  0.591-  28 1.83  27 1.97  22 1.98
  45  0.316  0.284  0.592-  35 1.85  28 1.94  20 2.06
  46  0.450  0.085  0.605-  28 1.94  31 1.94  18 2.18
  47  0.133  0.931  0.899-  26 1.95  25 1.95  21 2.04  12 2.27
  48  0.325  0.263  0.906-  26 1.88  33 1.92  19 2.12
  49  0.467  0.087  0.903-  29 1.87  26 1.92  17 2.05
  50  0.130  0.088  0.413-  27 1.88  20 1.93  28 1.95   5 2.33
  51  0.309  0.954  0.416-  28 1.89  31 1.90  22 2.08
  52  0.467  0.277  0.411-  35 1.88  18 1.96  28 2.03  11 2.26   5 2.35
  53  0.645  0.089  0.088-  29 1.88  30 1.94  17 2.07   6 2.29
  54  0.809  0.935  0.087-  30 1.90  25 1.94  23 1.97  16 2.20
  55  0.964  0.257  0.090-  37 1.94  30 1.97  19 2.03   6 2.33
  56  0.639  0.944  0.600-  32 1.92  24 2.04  31 2.04   8 2.27
  57  0.806  0.262  0.601-  32 1.89  39 2.00  18 2.12   8 2.30
  58  0.967  0.104  0.598-  32 1.89  27 2.01  20 2.05
  59  0.641  0.938  0.898-  30 1.91  29 1.95  23 1.98  14 2.30   8 2.35
  60  0.815  0.254  0.905-  30 1.88  37 1.96  17 2.05
  61  0.979  0.098  0.899-  30 1.99  25 1.99  19 2.07  12 2.29
  62  0.629  0.093  0.410-  31 1.93  18 2.04  32 2.06   6 2.32   1 2.35
  63  0.823  0.958  0.414-  27 1.85  32 1.88  24 2.07  16 2.20
  64  0.956  0.270  0.410-  39 1.87  32 1.95  20 2.04   6 2.26
  65  0.644  0.577  0.102-  34 1.84  33 1.95   9 2.36
  66  0.812  0.444  0.086-  34 1.85  37 1.94  17 2.02
  67  0.957  0.764  0.097-  34 1.91  25 1.94  15 2.28  16 2.37
  68  0.643  0.456  0.588-  35 1.88  36 1.90  18 2.05
  69  0.824  0.773  0.594-  27 1.85  36 1.92  24 2.06  14 2.37
  70  0.955  0.583  0.589-  39 1.86  36 2.00  22 2.04   2 2.21
  71  0.636  0.441  0.911-  34 1.93  33 1.93  17 2.01   4 2.33
  72  0.809  0.760  0.909-  34 1.90  23 1.93  25 1.94  14 2.32
  73  0.967  0.582  0.911-  37 1.87  21 1.99  34 2.04   2 2.18
  74  0.639  0.603  0.408-  36 1.86  35 1.97  24 2.00   9 2.37
  75  0.810  0.454  0.403-  36 1.89  39 2.01  18 2.12  11 2.23
  76  0.957  0.767  0.404-  36 1.85  27 1.97  22 2.05  16 2.32  15 2.38
  77  0.138  0.587  0.092-  38 1.94  37 1.95  21 2.07  10 2.30  15 2.32
  78  0.326  0.448  0.103-  33 1.90  38 1.94  19 2.11  10 2.20
  79  0.461  0.768  0.094-  38 1.92  29 1.96  23 2.17   9 2.34
  80  0.131  0.445  0.583-  39 1.85  40 1.86  20 2.12   7 2.22
  81  0.303  0.763  0.590-  31 1.93  40 1.93  22 2.02  13 2.29   3 2.29
  82  0.457  0.602  0.596-  40 2.00  35 2.03  24 2.09  13 2.37
  83  0.144  0.438  0.906-  38 1.95  37 1.98  19 2.04   7 2.20
  84  0.338  0.775  0.907-  29 1.85  38 1.98  21 2.04  13 2.27   3 2.33
  85  0.461  0.573  0.918-  33 1.82  38 1.91  23 2.08   4 2.37
  86  0.133  0.593  0.401-  40 1.89  39 1.99  22 2.10  15 2.28
  87  0.308  0.444  0.405-  40 1.91  20 2.01  35 2.01  10 2.29
  88  0.460  0.774  0.404-  31 1.95  40 2.00  24 2.17   1 2.36
 
  LATTYP: Found a hexagonal cell.
 ALAT       =    10.0190000534
 C/A-ratio  =     1.1196726572
  
  Lattice vectors:
  
 A1 = (  10.0190000534,   0.0000000000,   0.0000000000)
 A2 = (  -5.0095000267,   8.6767085668,   0.0000000000)
 A3 = (   0.0000000000,   0.0000000000,  11.2180004120)


Analysis of symmetry for initial positions (statically):
=====================================================================
 Subroutine PRICEL returns:
 Original cell was already a primitive cell.
 

 Routine SETGRP: Setting up the symmetry group for a 
 hexagonal supercell.


 Subroutine GETGRP returns: Found  1 space group operations
 (whereof  1 operations were pure point group operations)
 out of a pool of 24 trial point group operations.


The static configuration has the point symmetry C_1 .


Analysis of symmetry for dynamics (positions and initial velocities):
=====================================================================
 Subroutine PRICEL returns:
 Original cell was already a primitive cell.
 

 Routine SETGRP: Setting up the symmetry group for a 
 hexagonal supercell.


 Subroutine GETGRP returns: Found  1 space group operations
 (whereof  1 operations were pure point group operations)
 out of a pool of 24 trial point group operations.


The dynamic configuration has the point symmetry C_1 .


Analysis of structural, dynamic, and magnetic symmetry:
=====================================================================
 Subroutine PRICEL returns:
 Original cell was already a primitive cell.
 

 Routine SETGRP: Setting up the symmetry group for a 
 hexagonal supercell.


 Subroutine GETGRP returns: Found  1 space group operations
 (whereof  1 operations were pure point group operations)
 out of a pool of 24 trial point group operations.


The magnetic configuration has the point symmetry C_1 .


 Subroutine INISYM returns: Found  1 space group operations
 (whereof  1 operations are pure point group operations),
 and found     1 'primitive' translations

 
 

Automatic generation of k-mesh.
 generate k-points for:    2    2    2
Space group operators:
 irot       det(A)        alpha          n_x          n_y          n_z        tau_x        tau_y        tau_z
    1     1.000000     0.000000     1.000000     0.000000     0.000000     0.000000     0.000000     0.000000
 
 Subroutine IBZKPT returns following result:
 ===========================================
 
 Found      8 irreducible k-points:
 
 Following reciprocal coordinates:
            Coordinates               Weight
  0.000000  0.000000  0.000000      1.000000
  0.500000 -0.000000 -0.000000      1.000000
  0.000000  0.500000  0.000000      1.000000
  0.500000  0.500000 -0.000000      1.000000
  0.000000  0.000000  0.500000      1.000000
  0.500000 -0.000000  0.500000      1.000000
  0.000000  0.500000  0.500000      1.000000
  0.500000  0.500000  0.500000      1.000000
 
 Following cartesian coordinates:
            Coordinates               Weight
  0.000000  0.000000  0.000000      1.000000
  0.049905  0.028813 -0.000000      1.000000
  0.000000  0.057626  0.000000      1.000000
  0.049905  0.086438 -0.000000      1.000000
  0.000000  0.000000  0.044571      1.000000
  0.049905  0.028813  0.044571      1.000000
  0.000000  0.057626  0.044571      1.000000
  0.049905  0.086438  0.044571      1.000000
 


--------------------------------------------------------------------------------------------------------




 Dimension of arrays:
   k-points           NKPTS =      8   k-points in BZ     NKDIM =      8   number of bands    NBANDS=    480
   number of dos      NEDOS =    301   number of ions     NIONS =     88
   non local maximal  LDIM  =      6   non local SUM 2l+1 LMDIM =     18
   total plane-waves  NPLWV = 140000
   max r-space proj   IRMAX =   1632   max aug-charges    IRDMAX=   4555
   dimension x,y,z NGX =    50 NGY =   50 NGZ =   56
   dimension x,y,z NGXF=   100 NGYF=  100 NGZF=  112
   support grid    NGXF=   100 NGYF=  100 NGZF=  112
   ions per type =              16   8  16  48
   NGX,Y,Z   is equivalent  to a cutoff of   8.30,  8.30,  8.30 a.u.
   NGXF,Y,Z  is equivalent  to a cutoff of  16.59, 16.59, 16.60 a.u.

 SYSTEM =  unknown system                          
 POSCAR =  Na Mg Mn  O                             

 Startparameter for this run:
   NWRITE =      2    write-flag & timer
   PREC   = normal    normal or accurate (medium, high low for compatibility)
   ISTART =      0    job   : 0-new  1-cont  2-samecut
   ICHARG =      1    charge: 1-file 2-atom 10-const
   ISPIN  =      2    spin polarized calculation?
   LNONCOLLINEAR =      F non collinear calculations
   LSORBIT =      F    spin-orbit coupling
   INIWAV =      1    electr: 0-lowe 1-rand  2-diag
   LASPH  =      T    aspherical Exc in radial PAW
   METAGGA=      F    non-selfconsistent MetaGGA calc.

 Electronic Relaxation 1
   ENCUT  =  400.0 eV  29.40 Ry    5.42 a.u.  16.34 16.34 18.29*2*pi/ulx,y,z
   ENINI  =  400.0     initial cutoff
   ENAUG  =  758.8 eV  augmentation charge cutoff
   NELM   =    200;   NELMIN=  6; NELMDL=-12     # of ELM steps 
   EDIFF  = 0.1E-04   stopping-criterion for ELM
   LREAL  =      T    real-space projection
   NLSPLINE    = F    spline interpolate recip. space projectors
   LCOMPAT=      F    compatible to vasp.4.4
   GGA_COMPAT  = T    GGA compatible to vasp.4.4-vasp.4.6
   LMAXPAW     = -100 max onsite density
   LMAXMIX     =    4 max onsite mixed and CHGCAR
   VOSKOWN=      0    Vosko Wilk Nusair interpolation
   ROPT   =   -0.00050  -0.00050  -0.00050  -0.00050
 Ionic relaxation
   EDIFFG = 0.1E-03   stopping-criterion for IOM
   NSW    =      1    number of steps for IOM
   NBLOCK =      1;   KBLOCK =      1    inner block; outer block 
   IBRION =     -1    ionic relax: 0-MD 1-quasi-New 2-CG
   NFREE  =      0    steps in history (QN), initial steepest desc. (CG)
   ISIF   =      2    stress and relaxation
   IWAVPR =     10    prediction:  0-non 1-charg 2-wave 3-comb
   ISYM   =      2    0-nonsym 1-usesym 2-fastsym
   LCORR  =      T    Harris-Foulkes like correction to forces

   POTIM  = 0.5000    time-step for ionic-motion
   TEIN   =    0.0    initial temperature
   TEBEG  =    0.0;   TEEND  =   0.0 temperature during run
   SMASS  =  -3.00    Nose mass-parameter (am)
   estimated Nose-frequenzy (Omega)   =  0.10E-29 period in steps =****** mass=  -0.229E-26a.u.
   SCALEE = 1.0000    scale energy and forces
   NPACO  =    256;   APACO  = 16.0  distance and # of slots for P.C.
   PSTRESS=    0.0 pullay stress

  Mass of Ions in am
   POMASS =  22.99 24.30 54.94 16.00
  Ionic Valenz
   ZVAL   =   7.00  8.00 13.00  6.00
  Atomic Wigner-Seitz radii
   RWIGS  =  -1.00 -1.00 -1.00 -1.00
  virtual crystal weights 
   VCA    =   1.00  1.00  1.00  1.00
   NELECT =     672.0000    total number of electrons
   NUPDOWN=      48.0000    fix difference up-down

 DOS related values:
   EMIN   =  10.00;   EMAX   =-10.00  energy-range for DOS
   EFERMI =   0.00
   ISMEAR =     0;   SIGMA  =   0.05  broadening in eV -4-tet -1-fermi 0-gaus

 Electronic relaxation 2 (details)
   IALGO  =     48    algorithm
   LDIAG  =      T    sub-space diagonalisation (order eigenvalues)
   LSUBROT=      F    optimize rotation matrix (better conditioning)
   TURBO    =      0    0=normal 1=particle mesh
   IRESTART =      0    0=no restart 2=restart with 2 vectors
   NREBOOT  =      0    no. of reboots
   NMIN     =      0    reboot dimension
   EREF     =   0.00    reference energy to select bands
   IMIX   =      4    mixing-type and parameters
     AMIX     =   0.40;   BMIX     =  1.00
     AMIX_MAG =   1.60;   BMIX_MAG =  1.00
     AMIN     =   0.10
     WC   =   100.;   INIMIX=   1;  MIXPRE=   1;  MAXMIX= -45

 Intra band minimization:
   WEIMIN = 0.0000     energy-eigenvalue tresh-hold
   EBREAK =  0.52E-08  absolut break condition
   DEPER  =   0.30     relativ break condition  

   TIME   =   0.40     timestep for ELM

  volume/ion in A,a.u.               =      11.08        74.78
  Fermi-wavevector in a.u.,A,eV,Ry     =   1.445993  2.732531 28.448379  2.090897
  Thomas-Fermi vector in A             =   2.564112
 
 Write flags
   LWAVE        =      F    write WAVECAR
   LDOWNSAMPLE  =      F    k-point downsampling of WAVECAR
   LCHARG       =      F    write CHGCAR
   LVTOT        =      F    write LOCPOT, total local potential
   LVHAR        =      F    write LOCPOT, Hartree potential only
   LELF         =      F    write electronic localiz. function (ELF)
   LORBIT       =     11    0 simple, 1 ext, 2 COOP (PROOUT), +10 PAW based schemes


 Dipole corrections
   LMONO  =      F    monopole corrections only (constant potential shift)
   LDIPOL =      F    correct potential (dipole corrections)
   IDIPOL =      0    1-x, 2-y, 3-z, 4-all directions 
   EPSILON=  1.0000000 bulk dielectric constant

 Exchange correlation treatment:
   GGA     =    --    GGA type
   LEXCH   =     8    internal setting for exchange type
   VOSKOWN=      0    Vosko Wilk Nusair interpolation
   LHFCALC =     F    Hartree Fock is set to
   LHFONE  =     F    Hartree Fock one center treatment
   AEXX    =    0.0000 exact exchange contribution

 Linear response parameters
   LEPSILON=     F    determine dielectric tensor
   LRPA    =     F    only Hartree local field effects (RPA)
   LNABLA  =     F    use nabla operator in PAW spheres
   LVEL    =     F    velocity operator in full k-point grid
   LINTERFAST=   F  fast interpolation
   KINTER  =     0    interpolate to denser k-point grid
   CSHIFT  =0.1000    complex shift for real part using Kramers Kronig
   OMEGAMAX=  -1.0    maximum frequency
   DEG_THRESHOLD= 0.2000000E-02 threshold for treating states as degnerate
   RTIME   =   -0.100 relaxation time in fs
  (WPLASMAI=    0.000 imaginary part of plasma frequency in eV, 0.658/RTIME)
   DFIELD  = 0.0000000 0.0000000 0.0000000 field for delta impulse in time
 
 Orbital magnetization related:
   ORBITALMAG=     F  switch on orbital magnetization
   LCHIMAG   =     F  perturbation theory with respect to B field
   DQ        =  0.001000  dq finite difference perturbation B field
   LLRAUG    =     F  two centre corrections for induced B field



--------------------------------------------------------------------------------------------------------


 Static calculation
 charge density and potential will be updated during run
 spin polarized calculation
 RMM-DIIS sequential band-by-band
 perform sub-space diagonalisation
    before iterative eigenvector-optimisation
 modified Broyden-mixing scheme, WC =      100.0
 initial mixing is a Kerker type mixing with AMIX =  0.4000 and BMIX =      1.0000
 Hartree-type preconditioning will be used
 using additional bands          144
 real space projection scheme for non local part
 use partial core corrections
 calculate Harris-corrections to forces 
   (improved forces if not selfconsistent)
 use gradient corrections 
 use of overlap-Matrix (Vanderbilt PP)
 Gauss-broadening in eV      SIGMA  =   0.05


--------------------------------------------------------------------------------------------------------


  energy-cutoff  :      400.00
  volume of cell :      975.20
      direct lattice vectors                 reciprocal lattice vectors
    10.019000053  0.000000000  0.000000000     0.099810360  0.057625538 -0.000000000
    -5.009500027  8.676708567  0.000000000     0.000000000  0.115251076  0.000000000
     0.000000000  0.000000000 11.218000412     0.000000000  0.000000000  0.089142446

  length of vectors
    10.019000053 10.019000053 11.218000412     0.115251076  0.115251076  0.089142446


 
 k-points in units of 2pi/SCALE and weight: read from INCAR                         
   0.00000000  0.00000000  0.00000000       0.125
   0.04990518  0.02881277 -0.00000000       0.125
   0.00000000  0.05762554  0.00000000       0.125
   0.04990518  0.08643831 -0.00000000       0.125
   0.00000000  0.00000000  0.04457122       0.125
   0.04990518  0.02881277  0.04457122       0.125
   0.00000000  0.05762554  0.04457122       0.125
   0.04990518  0.08643831  0.04457122       0.125
 
 k-points in reciprocal lattice and weights: read from INCAR                         
   0.00000000  0.00000000  0.00000000       0.125
   0.50000000 -0.00000000 -0.00000000       0.125
   0.00000000  0.50000000  0.00000000       0.125
   0.50000000  0.50000000 -0.00000000       0.125
   0.00000000  0.00000000  0.50000000       0.125
   0.50000000 -0.00000000  0.50000000       0.125
   0.00000000  0.50000000  0.50000000       0.125
   0.50000000  0.50000000  0.50000000       0.125
 
 position of ions in fractional coordinates (direct lattice) 
   0.46868654  0.94318802  0.25349527
   0.84460037  0.59671047  0.75515062
   0.28992225  0.89807985  0.75046708
   0.48456281  0.43839402  0.75353447
   0.29594073  0.17644479  0.24946870
   0.79780782  0.19904915  0.25093955
   0.00238270  0.32745235  0.74680065
   0.64609768  0.10307348  0.74733729
   0.50717839  0.63541277  0.24472632
   0.17340826  0.45063928  0.24245587
   0.63353727  0.42096213  0.26685861
   0.14680295  0.10144301  0.75875109
   0.30393006  0.61935830  0.74911301
   0.78423551  0.90107901  0.75558118
   0.06094368  0.68924737  0.24521750
   0.88511132  0.87592184  0.25276608
   0.64215082  0.26581278  0.99523897
   0.63157654  0.27071671  0.50066053
   0.14774472  0.26907323  0.00402567
   0.13637493  0.26331068  0.48950792
   0.14754677  0.76025372  0.98645923
   0.12931192  0.76702588  0.50280975
   0.64562129  0.77121064  0.99031646
   0.64541340  0.77449184  0.50398465
   0.97224985  0.92997131  0.99781131
   0.30384482  0.09099338  0.98974015
   0.96630485  0.93447417  0.50180422
   0.29873442  0.10469511  0.51057673
   0.48093856  0.93973999  0.99702261
   0.80616550  0.08988166  0.99126400
   0.46161294  0.93491442  0.50280619
   0.80618816  0.10267476  0.50981991
   0.47015856  0.42673094  0.00731128
   0.80099427  0.59883652  0.00472155
   0.47258074  0.43703093  0.50168477
   0.80203478  0.61002625  0.49199321
   0.97039880  0.42581008  0.99984369
   0.30833186  0.59614311  0.00322339
   0.96528608  0.43159223  0.50008378
   0.29192917  0.59810007  0.49367711
   0.14786716  0.07360637  0.08238055
   0.31775544  0.93348872  0.09001961
   0.46355470  0.25026541  0.08795676
   0.14095828  0.94445774  0.59069707
   0.31641144  0.28432901  0.59157067
   0.45005272  0.08511592  0.60543410
   0.13273465  0.93100679  0.89886786
   0.32548785  0.26327034  0.90627560
   0.46712854  0.08650181  0.90337847
   0.13038129  0.08833718  0.41276518
   0.30871363  0.95407763  0.41621321
   0.46664177  0.27655533  0.41123996
   0.64535527  0.08863050  0.08768069
   0.80931742  0.93511952  0.08738001
   0.96412189  0.25743633  0.08988411
   0.63877317  0.94441129  0.59950613
   0.80627624  0.26224806  0.60056692
   0.96726741  0.10395094  0.59800586
   0.64075168  0.93788624  0.89827060
   0.81457860  0.25432340  0.90509891
   0.97925096  0.09806276  0.89883220
   0.62903172  0.09254592  0.41040113
   0.82303806  0.95759625  0.41356747
   0.95633498  0.26953193  0.41027900
   0.64373635  0.57712437  0.10222945
   0.81235643  0.44397826  0.08583259
   0.95667912  0.76403396  0.09673471
   0.64258121  0.45636314  0.58753697
   0.82369780  0.77310076  0.59389550
   0.95458648  0.58255155  0.58865660
   0.63630309  0.44067286  0.91140129
   0.80946980  0.75963828  0.90894987
   0.96663597  0.58181970  0.91142803
   0.63897887  0.60290834  0.40764662
   0.80952027  0.45371467  0.40283828
   0.95714593  0.76717340  0.40366998
   0.13785970  0.58652886  0.09245498
   0.32589652  0.44802819  0.10295061
   0.46132369  0.76779460  0.09350062
   0.13125370  0.44509389  0.58286591
   0.30349565  0.76312924  0.59040914
   0.45713018  0.60172817  0.59606701
   0.14394643  0.43815117  0.90592794
   0.33781774  0.77502084  0.90748793
   0.46056564  0.57336604  0.91842571
   0.13262329  0.59301980  0.40062042
   0.30789596  0.44423527  0.40495007
   0.46007673  0.77435008  0.40406310
 
 position of ions in cartesian coordinates  (Angst):
  -0.02912997  8.18376757  2.84371000
   5.47283005  5.17748287  8.47128000
  -1.59419995  7.79237713  8.41874000
   2.65869995  3.80381713  8.45315000
   2.08113000  1.53096000  2.79854000
   6.99609992  1.72709143  2.81504000
  -1.61650024  2.84120857  8.37761000
   5.95690603  0.89433857  8.38363000
   1.89832003  5.51329143  2.74534000
  -0.52010011  3.91006573  2.71987000
   4.23860011  3.65256573  2.99362000
   0.96264003  0.88019143  8.51167000
  -0.05760008  5.37399143  8.40355000
   3.34330032  7.81840000  8.47611000
  -2.84218997  5.98039857  2.75085000
   4.47999987  7.60011857  2.83553000
   5.10212000  2.30638000 11.16459121
   4.97161000  2.34893000  5.61641000
   0.13233200  2.33467000  0.04516000
   0.04728560  2.28467000  5.49130000
  -2.33022000  6.59650000 11.06610000
  -2.54684000  6.65526000  5.64052000
   2.60510000  6.69157000 11.10937041
   2.58658000  6.72004000  5.65370000
   5.08228000  8.06909000 11.19344771
   2.58839000  0.78952300 11.10290541
   5.00016000  8.10816000  5.62924000
   2.46855000  0.90840900  5.72765000
   0.11089600  8.15385000 11.18460000
   7.62671000  0.77987700 11.12000000
  -0.05855380  8.11198000  5.64048000
   7.56285000  0.89087900  5.71916000
   2.57281000  3.70262000  0.08201790
   5.02529000  5.19593000  0.05296640
   2.54548000  3.79199000  5.62790000
   4.97966000  5.29302000  5.51918000
   7.58933000  3.69463000 11.21624697
   0.10279800  5.17256000  0.03616000
   7.50914000  3.74480000  5.60994000
  -0.07134390  5.18954000  5.53807000
   1.11275000  0.63866100  0.92414500
  -1.49272003  8.09960957  1.00984000
   3.39065000  2.17148000  0.98669900
  -3.31900003  8.19478457  6.62644000
   1.74578000  2.46704000  6.63624000
   4.08269000  0.73852600  6.79176000
  -3.33401003  8.07807457 10.08350000
   1.94221000  2.28432000 10.16660000
   4.24683000  0.75055100 10.13410000
   0.86376500  0.76647600  4.63040000
  -1.68645003  8.27825357  4.66908000
   3.28988000  2.39959000  4.61329000
   6.02182000  0.76902100  0.98360200
   3.42406997  8.11375957  0.98022900
   8.36991000  2.23370000  1.00832000
   1.66883997  8.19438157  6.72526000
   6.76435000  2.27545000  6.73716000
   9.17031000  0.90195200  6.70843000
   1.72134997  8.13776557 10.07680000
   6.88723000  2.20669000 10.15340000
   9.31987000  0.85086200 10.08310000
   5.83866000  0.80299400  4.60388000
   3.44893997  8.30878357  4.63940000
   8.23130000  2.33865000  4.60251000
   3.55849000  5.00754000  1.14681000
   5.91489000  3.85227000  0.96287000
   5.75754000  6.62930000  1.08517000
   4.15187000  3.95973000  6.59099000
   4.37978000  6.70797000  6.66232000
   6.64571000  5.05463000  6.60355000
   4.16757000  3.82359000 10.22410000
   4.30467000  6.59116000 10.19660000
   6.77010000  5.04828000 10.22440000
   3.38166000  5.23126000  4.57298000
   5.83770000  3.93675000  4.51904000
   5.74649000  6.65654000  4.52837000
  -1.55700000  5.08914000  1.03716000
   1.02076000  3.88741000  1.15490000
   0.77573500  6.66193000  1.04889000
  -0.91466700  3.86195000  6.53859000
  -0.78217300  6.62145000  6.62321000
   1.56563000  5.22102000  6.68668000
  -0.75271900  3.80171000 10.16270000
  -0.49787100  6.72463000 10.18020000
   1.74213000  4.97493000 10.30290000
  -1.64198000  5.14546000  4.49416000
   0.85941300  3.85450000  4.54273000
   0.73040200  6.71881000  4.53278000
 


--------------------------------------------------------------------------------------------------------


 k-point  1 :   0.0000 0.0000 0.0000  plane waves:   17725
 k-point  2 :   0.5000-0.0000-0.0000  plane waves:   17736
 k-point  3 :   0.0000 0.5000 0.0000  plane waves:   17736
 k-point  4 :   0.5000 0.5000-0.0000  plane waves:   17736
 k-point  5 :   0.0000 0.0000 0.5000  plane waves:   17676
 k-point  6 :   0.5000-0.0000 0.5000  plane waves:   17700
 k-point  7 :   0.0000 0.5000 0.5000  plane waves:   17700
 k-point  8 :   0.5000 0.5000 0.5000  plane waves:   17700

 maximum and minimum number of plane-waves per node :     17736    17676

 maximum number of plane-waves:     17736
 maximum index in each direction: 
   IXMAX=   16   IYMAX=   16   IZMAX=   18
   IXMIN=  -16   IYMIN=  -16   IZMIN=  -18


 serial   3D FFT for wavefunctions
 parallel 3D FFT for charge:
    minimum data exchange during FFTs selected (reduces bandwidth)


 total amount of memory used by VASP MPI-rank0    94427. kBytes
=======================================================================

   base      :      30000. kBytes
   nonlr-proj:      13668. kBytes
   fftplans  :       1275. kBytes
   grid      :      22786. kBytes
   one-center:       2737. kBytes
   wavefun   :      23961. kBytes
 
     INWAV:  cpu time    0.0000: real time    0.0001
 Broyden mixing: mesh for mixing (old mesh)
   NGX = 33   NGY = 33   NGZ = 37
  (NGX  =100   NGY  =100   NGZ  =112)
  gives a total of  40293 points

 initial charge density was supplied:
 charge density of overlapping atoms calculated
 number of electron     672.0000000 magnetization      48.0000000
 keeping initial charge density in first step


--------------------------------------------------------------------------------------------------------


 Maximum index for non-local projection operator         1548
 Maximum index for augmentation-charges          558 (set IRDMAX)


--------------------------------------------------------------------------------------------------------


 First call to EWALD:  gamma=   0.179
 Maximum number of real-space cells 3x 3x 2
 Maximum number of reciprocal cells 3x 3x 3

    FEWALD:  cpu time    0.0027: real time    0.0027


--------------------------------------- Iteration      1(   1)  ---------------------------------------


    POTLOK:  cpu time    0.1962: real time    0.1970
    SETDIJ:  cpu time    4.6312: real time    4.6327
    EDDIAG:  cpu time    4.4317: real time    4.8275
  RMM-DIIS:  cpu time    9.1770: real time    9.1808
    ORTHCH:  cpu time    1.1773: real time    1.2575
       DOS:  cpu time    0.0020: real time    0.0020
    --------------------------------------------
      LOOP:  cpu time   19.6154: real time   20.0976

 eigenvalue-minimisations  :  7680
 total energy-change (2. order) : 0.1501428E+04  (-0.3499670E+05)
 number of electron     672.0000000 magnetization      48.0000000
 augmentation part      672.0000000 magnetization      48.0000000

 Free energy of the ion-electron system (eV)
  ---------------------------------------------------
  alpha Z        PSCENC =      2652.81237852
  Ewald energy   TEWEN  =    -41775.11849500
  -Hartree energ DENC   =    -25833.22574717
  -exchange      EXHF   =         0.00000000
  -V(xc)+E(xc)   XCENC  =      3606.28167696
  PAW double counting   =     55594.23204139   -59034.67079123
  entropy T*S    EENTRO =        -0.04633877
  eigenvalues    EBANDS =     -7571.03533820
  atomic energy  EATOM  =     73862.19814772
  Solvation  Ediel_sol  =         0.00000000
  ---------------------------------------------------
  free energy    TOTEN  =      1501.42753422 eV

  energy without entropy =     1501.47387299  energy(sigma->0) =     1501.45070361


--------------------------------------------------------------------------------------------------------




--------------------------------------- Iteration      1(   2)  ---------------------------------------


    EDDIAG:  cpu time    4.4335: real time    4.8334
  RMM-DIIS:  cpu time    9.1428: real time    9.1671
    ORTHCH:  cpu time    1.1755: real time    1.2557
       DOS:  cpu time    0.0018: real time    0.0018
    --------------------------------------------
      LOOP:  cpu time   14.7536: real time   15.2581

 eigenvalue-minimisations  :  7680
 total energy-change (2. order) :-0.2217761E+04  (-0.8005272E+04)
 number of electron     672.0000000 magnetization      48.0000000
 augmentation part      672.0000000 magnetization      48.0000000

 Free energy of the ion-electron system (eV)
  ---------------------------------------------------
  alpha Z        PSCENC =      2652.81237852
  Ewald energy   TEWEN  =    -41775.11849500
  -Hartree energ DENC   =    -25833.22574717
  -exchange      EXHF   =         0.00000000
  -V(xc)+E(xc)   XCENC  =      3606.28167696
  PAW double counting   =     55594.23204139   -59034.67079123
  entropy T*S    EENTRO =        -0.05828699
  eigenvalues    EBANDS =     -9788.78462325
  atomic energy  EATOM  =     73862.19814772
  Solvation  Ediel_sol  =         0.00000000
  ---------------------------------------------------
  free energy    TOTEN  =      -716.33369905 eV

  energy without entropy =     -716.27541206  energy(sigma->0) =     -716.30455555


--------------------------------------------------------------------------------------------------------




--------------------------------------- Iteration      1(   3)  ---------------------------------------


    EDDIAG:  cpu time    4.4113: real time    4.8391
  RMM-DIIS:  cpu time    9.1651: real time    9.1727
    ORTHCH:  cpu time    1.1791: real time    1.2578
       DOS:  cpu time    0.0021: real time    0.0021
    --------------------------------------------
      LOOP:  cpu time   14.7576: real time   15.2718

 eigenvalue-minimisations  :  7680
 total energy-change (2. order) : 0.7173163E+02  (-0.1419876E+04)
 number of electron     672.0000000 magnetization      48.0000000
 augmentation part      672.0000000 magnetization      48.0000000

 Free energy of the ion-electron system (eV)
  ---------------------------------------------------
  alpha Z        PSCENC =      2652.81237852
  Ewald energy   TEWEN  =    -41775.11849500
  -Hartree energ DENC   =    -25833.22574717
  -exchange      EXHF   =         0.00000000
  -V(xc)+E(xc)   XCENC  =      3606.28167696
  PAW double counting   =     55594.23204139   -59034.67079123
  entropy T*S    EENTRO =        -0.02959996
  eigenvalues    EBANDS =     -9717.08167974
  atomic energy  EATOM  =     73862.19814772
  Solvation  Ediel_sol  =         0.00000000
  ---------------------------------------------------
  free energy    TOTEN  =      -644.60206851 eV

  energy without entropy =     -644.57246855  energy(sigma->0) =     -644.58726853


--------------------------------------------------------------------------------------------------------




--------------------------------------- Iteration      1(   4)  ---------------------------------------


    EDDIAG:  cpu time    4.4905: real time    4.9156
  RMM-DIIS:  cpu time    9.1683: real time    9.1754
    ORTHCH:  cpu time    1.1776: real time    1.2591
       DOS:  cpu time    0.0017: real time    0.0017
    --------------------------------------------
      LOOP:  cpu time   14.8382: real time   15.3517

 eigenvalue-minimisations  :  7680
 total energy-change (2. order) :-0.4667566E+03  (-0.4294870E+03)
 number of electron     672.0000000 magnetization      48.0000000
 augmentation part      672.0000000 magnetization      48.0000000

 Free energy of the ion-electron system (eV)
  ---------------------------------------------------
  alpha Z        PSCENC =      2652.81237852
  Ewald energy   TEWEN  =    -41775.11849500
  -Hartree energ DENC   =    -25833.22574717
  -exchange      EXHF   =         0.00000000
  -V(xc)+E(xc)   XCENC  =      3606.28167696
  PAW double counting   =     55594.23204139   -59034.67079123
  entropy T*S    EENTRO =        -0.00000000
  eigenvalues    EBANDS =    -10183.86788148
  atomic energy  EATOM  =     73862.19814772
  Solvation  Ediel_sol  =         0.00000000
  ---------------------------------------------------
  free energy    TOTEN  =     -1111.35867028 eV

  energy without entropy =    -1111.35867028  energy(sigma->0) =    -1111.35867028


--------------------------------------------------------------------------------------------------------




--------------------------------------- Iteration      1(   5)  ---------------------------------------


    EDDIAG:  cpu time    4.4321: real time    4.8462
  RMM-DIIS:  cpu time    9.1685: real time    9.1734
    ORTHCH:  cpu time    1.1834: real time    1.2653
       DOS:  cpu time    0.0017: real time    0.0017
    --------------------------------------------
      LOOP:  cpu time   14.7857: real time   15.2867

 eigenvalue-minimisations  :  7680
 total energy-change (2. order) :-0.1043342E+03  (-0.1599609E+03)
 number of electron     672.0000000 magnetization      48.0000000
 augmentation part      672.0000000 magnetization      48.0000000

 Free energy of the ion-electron system (eV)
  ---------------------------------------------------
  alpha Z        PSCENC =      2652.81237852
  Ewald energy   TEWEN  =    -41775.11849500
  -Hartree energ DENC   =    -25833.22574717
  -exchange      EXHF   =         0.00000000
  -V(xc)+E(xc)   XCENC  =      3606.28167696
  PAW double counting   =     55594.23204139   -59034.67079123
  entropy T*S    EENTRO =        -0.00000000
  eigenvalues    EBANDS =    -10288.20205334
  atomic energy  EATOM  =     73862.19814772
  Solvation  Ediel_sol  =         0.00000000
  ---------------------------------------------------
  free energy    TOTEN  =     -1215.69284214 eV

  energy without entropy =    -1215.69284214  energy(sigma->0) =    -1215.69284214


--------------------------------------------------------------------------------------------------------




--------------------------------------- Iteration      1(   6)  ---------------------------------------


    EDDIAG:  cpu time    4.4364: real time    4.8552
  RMM-DIIS:  cpu time    9.1682: real time    9.1753
    ORTHCH:  cpu time    1.1769: real time    1.2573
       DOS:  cpu time    0.0010: real time    0.0010
    --------------------------------------------
      LOOP:  cpu time   14.7825: real time   15.2888

 eigenvalue-minimisations  :  7680
 total energy-change (2. order) :-0.9001243E+01  (-0.7948766E+02)
 number of electron     672.0000000 magnetization      48.0000000
 augmentation part      672.0000000 magnetization      48.0000000

 Free energy of the ion-electron system (eV)
  ---------------------------------------------------
  alpha Z        PSCENC =      2652.81237852
  Ewald energy   TEWEN  =    -41775.11849500
  -Hartree energ DENC   =    -25833.22574717
  -exchange      EXHF   =         0.00000000
  -V(xc)+E(xc)   XCENC  =      3606.28167696
  PAW double counting   =     55594.23204139   -59034.67079123
  entropy T*S    EENTRO =        -0.00000000
  eigenvalues    EBANDS =    -10297.20329597
  atomic energy  EATOM  =     73862.19814772
  Solvation  Ediel_sol  =         0.00000000
  ---------------------------------------------------
  free energy    TOTEN  =     -1224.69408478 eV

  energy without entropy =    -1224.69408478  energy(sigma->0) =    -1224.69408478


--------------------------------------------------------------------------------------------------------




--------------------------------------- Iteration      1(   7)  ---------------------------------------


    EDDIAG:  cpu time    4.4217: real time    4.8401
  RMM-DIIS:  cpu time    9.1520: real time    9.1845
    ORTHCH:  cpu time    1.1681: real time    1.2545
       DOS:  cpu time    0.0016: real time    0.0016
    --------------------------------------------
      LOOP:  cpu time   14.7435: real time   15.2807

 eigenvalue-minimisations  :  7680
 total energy-change (2. order) :-0.1823213E+01  (-0.4854894E+02)
 number of electron     672.0000000 magnetization      48.0000000
 augmentation part      672.0000000 magnetization      48.0000000

 Free energy of the ion-electron system (eV)
  ---------------------------------------------------
  alpha Z        PSCENC =      2652.81237852
  Ewald energy   TEWEN  =    -41775.11849500
  -Hartree energ DENC   =    -25833.22574717
  -exchange      EXHF   =         0.00000000
  -V(xc)+E(xc)   XCENC  =      3606.28167696
  PAW double counting   =     55594.23204139   -59034.67079123
  entropy T*S    EENTRO =        -0.00000000
  eigenvalues    EBANDS =    -10299.02650885
  atomic energy  EATOM  =     73862.19814772
  Solvation  Ediel_sol  =         0.00000000
  ---------------------------------------------------
  free energy    TOTEN  =     -1226.51729765 eV

  energy without entropy =    -1226.51729765  energy(sigma->0) =    -1226.51729765


--------------------------------------------------------------------------------------------------------




--------------------------------------- Iteration      1(   8)  ---------------------------------------


    EDDIAG:  cpu time    4.4351: real time    4.8549
  RMM-DIIS:  cpu time    9.1574: real time    9.1697
    ORTHCH:  cpu time    1.1764: real time    1.2563
       DOS:  cpu time    0.0014: real time    0.0014
    --------------------------------------------
      LOOP:  cpu time   14.7702: real time   15.2823

 eigenvalue-minimisations  :  7680
 total energy-change (2. order) : 0.4999595E+01  (-0.3020258E+02)
 number of electron     672.0000000 magnetization      48.0000000
 augmentation part      672.0000000 magnetization      48.0000000

 Free energy of the ion-electron system (eV)
  ---------------------------------------------------
  alpha Z        PSCENC =      2652.81237852
  Ewald energy   TEWEN  =    -41775.11849500
  -Hartree energ DENC   =    -25833.22574717
  -exchange      EXHF   =         0.00000000
  -V(xc)+E(xc)   XCENC  =      3606.28167696
  PAW double counting   =     55594.23204139   -59034.67079123
  entropy T*S    EENTRO =        -0.00000000
  eigenvalues    EBANDS =    -10294.02691350
  atomic energy  EATOM  =     73862.19814772
  Solvation  Ediel_sol  =         0.00000000
  ---------------------------------------------------
  free energy    TOTEN  =     -1221.51770231 eV

  energy without entropy =    -1221.51770231  energy(sigma->0) =    -1221.51770231


--------------------------------------------------------------------------------------------------------




--------------------------------------- Iteration      1(   9)  ---------------------------------------


    EDDIAG:  cpu time    4.4782: real time    4.9029
  RMM-DIIS:  cpu time   19.3642: real time   19.4001
    ORTHCH:  cpu time    1.2557: real time    1.3403
       DOS:  cpu time    0.0014: real time    0.0014
    --------------------------------------------
      LOOP:  cpu time   25.0996: real time   25.6447

 eigenvalue-minimisations  : 21770
 total energy-change (2. order) : 0.9360399E+01  (-0.1334027E+02)
 number of electron     672.0000000 magnetization      48.0000000
 augmentation part      672.0000000 magnetization      48.0000000

 Free energy of the ion-electron system (eV)
  ---------------------------------------------------
  alpha Z        PSCENC =      2652.81237852
  Ewald energy   TEWEN  =    -41775.11849500
  -Hartree energ DENC   =    -25833.22574717
  -exchange      EXHF   =         0.00000000
  -V(xc)+E(xc)   XCENC  =      3606.28167696
  PAW double counting   =     55594.23204139   -59034.67079123
  entropy T*S    EENTRO =        -0.00000000
  eigenvalues    EBANDS =    -10284.66651485
  atomic energy  EATOM  =     73862.19814772
  Solvation  Ediel_sol  =         0.00000000
  ---------------------------------------------------
  free energy    TOTEN  =     -1212.15730365 eV

  energy without entropy =    -1212.15730365  energy(sigma->0) =    -1212.15730365


--------------------------------------------------------------------------------------------------------




--------------------------------------- Iteration      1(  10)  ---------------------------------------


    EDDIAG:  cpu time    4.5088: real time    4.9399
  RMM-DIIS:  cpu time   17.9429: real time   18.0460
    ORTHCH:  cpu time    1.1889: real time    1.2715
       DOS:  cpu time    0.0018: real time    0.0018
    --------------------------------------------
      LOOP:  cpu time   23.6424: real time   24.2592

 eigenvalue-minimisations  : 19704
 total energy-change (2. order) :-0.1904206E+01  (-0.5312968E+00)
 number of electron     672.0000000 magnetization      48.0000000
 augmentation part      672.0000000 magnetization      48.0000000

 Free energy of the ion-electron system (eV)
  ---------------------------------------------------
  alpha Z        PSCENC =      2652.81237852
  Ewald energy   TEWEN  =    -41775.11849500
  -Hartree energ DENC   =    -25833.22574717
  -exchange      EXHF   =         0.00000000
  -V(xc)+E(xc)   XCENC  =      3606.28167696
  PAW double counting   =     55594.23204139   -59034.67079123
  entropy T*S    EENTRO =        -0.00000001
  eigenvalues    EBANDS =    -10286.57072112
  atomic energy  EATOM  =     73862.19814772
  Solvation  Ediel_sol  =         0.00000000
  ---------------------------------------------------
  free energy    TOTEN  =     -1214.06150993 eV

  energy without entropy =    -1214.06150993  energy(sigma->0) =    -1214.06150993


--------------------------------------------------------------------------------------------------------




--------------------------------------- Iteration      1(  11)  ---------------------------------------


    EDDIAG:  cpu time    4.4595: real time    4.8586
  RMM-DIIS:  cpu time   19.7650: real time   19.7863
    ORTHCH:  cpu time    1.1721: real time    1.2547
       DOS:  cpu time    0.0017: real time    0.0017
    --------------------------------------------
      LOOP:  cpu time   25.3984: real time   25.9013

 eigenvalue-minimisations  : 22618
 total energy-change (2. order) : 0.6969394E-01  (-0.4357143E-01)
 number of electron     672.0000000 magnetization      48.0000000
 augmentation part      672.0000000 magnetization      48.0000000

 Free energy of the ion-electron system (eV)
  ---------------------------------------------------
  alpha Z        PSCENC =      2652.81237852
  Ewald energy   TEWEN  =    -41775.11849500
  -Hartree energ DENC   =    -25833.22574717
  -exchange      EXHF   =         0.00000000
  -V(xc)+E(xc)   XCENC  =      3606.28167696
  PAW double counting   =     55594.23204139   -59034.67079123
  entropy T*S    EENTRO =        -0.00000001
  eigenvalues    EBANDS =    -10286.50102718
  atomic energy  EATOM  =     73862.19814772
  Solvation  Ediel_sol  =         0.00000000
  ---------------------------------------------------
  free energy    TOTEN  =     -1213.99181599 eV

  energy without entropy =    -1213.99181599  energy(sigma->0) =    -1213.99181599


--------------------------------------------------------------------------------------------------------




--------------------------------------- Iteration      1(  12)  ---------------------------------------


    EDDIAG:  cpu time    4.4457: real time    4.8808
  RMM-DIIS:  cpu time   21.9246: real time   21.9399
    ORTHCH:  cpu time    1.1697: real time    1.2548
       DOS:  cpu time    0.0014: real time    0.0014
    CHARGE:  cpu time    1.7941: real time    1.7955
    MIXING:  cpu time    0.0009: real time    0.0011
    --------------------------------------------
      LOOP:  cpu time   29.3364: real time   29.8736

 eigenvalue-minimisations  : 24413
 total energy-change (2. order) :-0.6906648E-03  (-0.4252832E-02)
 number of electron     671.9999622 magnetization      47.9999971
 augmentation part      239.1026455 magnetization      29.0371125

 Broyden mixing:
  rms(total) = 0.12600E+02    rms(broyden)= 0.12591E+02
  rms(prec ) = 0.14446E+02
  weight for this iteration     100.00

 Free energy of the ion-electron system (eV)
  ---------------------------------------------------
  alpha Z        PSCENC =      2652.81237852
  Ewald energy   TEWEN  =    -41775.11849500
  -Hartree energ DENC   =    -25833.22574717
  -exchange      EXHF   =         0.00000000
  -V(xc)+E(xc)   XCENC  =      3606.28167696
  PAW double counting   =     55594.23204139   -59034.67079123
  entropy T*S    EENTRO =        -0.00000001
  eigenvalues    EBANDS =    -10286.50171785
  atomic energy  EATOM  =     73862.19814772
  Solvation  Ediel_sol  =         0.00000000
  ---------------------------------------------------
  free energy    TOTEN  =     -1213.99250666 eV

  energy without entropy =    -1213.99250665  energy(sigma->0) =    -1213.99250665


--------------------------------------------------------------------------------------------------------




--------------------------------------- Iteration      1(  13)  ---------------------------------------


    POTLOK:  cpu time    0.1708: real time    0.1710
    SETDIJ:  cpu time    4.9894: real time    4.9985
    EDDIAG:  cpu time    4.4098: real time    4.8345
  RMM-DIIS:  cpu time   17.2847: real time   17.3185
    ORTHCH:  cpu time    1.1682: real time    1.2520
       DOS:  cpu time    0.0020: real time    0.0020
    CHARGE:  cpu time    1.7757: real time    1.7966
    MIXING:  cpu time    0.0009: real time    0.0009
    --------------------------------------------
      LOOP:  cpu time   29.8015: real time   30.3740

 eigenvalue-minimisations  : 18792
 total energy-change (2. order) : 0.2284862E+03  (-0.1217528E+03)
 number of electron     671.9999729 magnetization      47.9999964
 augmentation part      269.1507730 magnetization      26.3048199

 Broyden mixing:
  rms(total) = 0.13987E+02    rms(broyden)= 0.13984E+02
  rms(prec ) = 0.15751E+02
  weight for this iteration     100.00

 eigenvalues of (default mixing * dielectric matrix)
  average eigenvalue GAMMA=   0.3189
  0.3189

 Free energy of the ion-electron system (eV)
  ---------------------------------------------------
  alpha Z        PSCENC =      2652.81237852
  Ewald energy   TEWEN  =    -41775.11849500
  -Hartree energ DENC   =    -25166.18299392
  -exchange      EXHF   =         0.00000000
  -V(xc)+E(xc)   XCENC  =      3696.59374798
  PAW double counting   =     59929.74513975   -63355.17990197
  entropy T*S    EENTRO =        -0.08776739
  eigenvalues    EBANDS =    -10830.28659143
  atomic energy  EATOM  =     73862.19814772
  Solvation  Ediel_sol  =         0.00000000
  ---------------------------------------------------
  free energy    TOTEN  =      -985.50633573 eV

  energy without entropy =     -985.41856833  energy(sigma->0) =     -985.46245203


--------------------------------------------------------------------------------------------------------




--------------------------------------- Iteration      1(  14)  ---------------------------------------


    POTLOK:  cpu time    0.1751: real time    0.1752
    SETDIJ:  cpu time    4.9726: real time    4.9734
    EDDIAG:  cpu time    4.4182: real time    4.8302
  RMM-DIIS:  cpu time   17.9495: real time   17.9562
    ORTHCH:  cpu time    1.1738: real time    1.2524
       DOS:  cpu time    0.0016: real time    0.0016
    CHARGE:  cpu time    1.7397: real time    1.8231
    MIXING:  cpu time    0.0012: real time    0.0011
    --------------------------------------------
      LOOP:  cpu time   30.4317: real time   31.0133

 eigenvalue-minimisations  : 19359
 total energy-change (2. order) : 0.6973839E+02  (-0.1805886E+02)
 number of electron     671.9999664 magnetization      47.9999941
 augmentation part      246.5302575 magnetization      32.1478191

 Broyden mixing:
  rms(total) = 0.53075E+01    rms(broyden)= 0.53033E+01
  rms(prec ) = 0.57449E+01
  weight for this iteration     100.00

 eigenvalues of (default mixing * dielectric matrix)
  average eigenvalue GAMMA=   0.7321
  1.1077  0.3565

 Free energy of the ion-electron system (eV)
  ---------------------------------------------------
  alpha Z        PSCENC =      2652.81237852
  Ewald energy   TEWEN  =    -41775.11849500
  -Hartree energ DENC   =    -25782.76567948
  -exchange      EXHF   =         0.00000000
  -V(xc)+E(xc)   XCENC  =      3673.87217346
  PAW double counting   =     63336.83419106   -66819.65390715
  entropy T*S    EENTRO =        -0.00000000
  eigenvalues    EBANDS =    -10063.94675220
  atomic energy  EATOM  =     73862.19814772
  Solvation  Ediel_sol  =         0.00000000
  ---------------------------------------------------
  free energy    TOTEN  =      -915.76794307 eV

  energy without entropy =     -915.76794307  energy(sigma->0) =     -915.76794307


--------------------------------------------------------------------------------------------------------




--------------------------------------- Iteration      1(  15)  ---------------------------------------


    POTLOK:  cpu time    0.1680: real time    0.1681
    SETDIJ:  cpu time    4.9834: real time    4.9842
    EDDIAG:  cpu time    4.4012: real time    4.8303
  RMM-DIIS:  cpu time   18.2860: real time   18.2941
    ORTHCH:  cpu time    1.1978: real time    1.2850
       DOS:  cpu time    0.0012: real time    0.0012
    CHARGE:  cpu time    1.7905: real time    1.7910
    MIXING:  cpu time    0.0014: real time    0.0014
    --------------------------------------------
      LOOP:  cpu time   30.8294: real time   31.3553

 eigenvalue-minimisations  : 20272
 total energy-change (2. order) : 0.1465498E+02  (-0.2003184E+01)
 number of electron     671.9999681 magnetization      47.9999927
 augmentation part      249.6759697 magnetization      33.8086298

 Broyden mixing:
  rms(total) = 0.21444E+01    rms(broyden)= 0.21441E+01
  rms(prec ) = 0.22254E+01
  weight for this iteration     100.00

 eigenvalues of (default mixing * dielectric matrix)
  average eigenvalue GAMMA=   0.9544
  0.3815  0.7570  1.7248

 Free energy of the ion-electron system (eV)
  ---------------------------------------------------
  alpha Z        PSCENC =      2652.81237852
  Ewald energy   TEWEN  =    -41775.11849500
  -Hartree energ DENC   =    -25703.14578719
  -exchange      EXHF   =         0.00000000
  -V(xc)+E(xc)   XCENC  =      3707.36616228
  PAW double counting   =     67466.74229312   -70990.04579826
  entropy T*S    EENTRO =        -0.00000000
  eigenvalues    EBANDS =    -10121.92186293
  atomic energy  EATOM  =     73862.19814772
  Solvation  Ediel_sol  =         0.00000000
  ---------------------------------------------------
  free energy    TOTEN  =      -901.11296173 eV

  energy without entropy =     -901.11296173  energy(sigma->0) =     -901.11296173


--------------------------------------------------------------------------------------------------------




--------------------------------------- Iteration      1(  16)  ---------------------------------------


    POTLOK:  cpu time    0.1702: real time    0.1704
    SETDIJ:  cpu time    5.0410: real time    5.0420
    EDDIAG:  cpu time    4.4125: real time    4.8301
  RMM-DIIS:  cpu time   17.5412: real time   17.5497
    ORTHCH:  cpu time    1.1957: real time    1.2881
       DOS:  cpu time    0.0011: real time    0.0011
    CHARGE:  cpu time    1.7872: real time    1.7878
    MIXING:  cpu time    0.0009: real time    0.0009
    --------------------------------------------
      LOOP:  cpu time   30.1498: real time   30.6702

 eigenvalue-minimisations  : 19089
 total energy-change (2. order) :-0.1653558E+01  (-0.6566794E+00)
 number of electron     671.9999689 magnetization      47.9999924
 augmentation part      251.2208181 magnetization      33.8927808

 Broyden mixing:
  rms(total) = 0.14196E+01    rms(broyden)= 0.14191E+01
  rms(prec ) = 0.15124E+01
  weight for this iteration     100.00

 eigenvalues of (default mixing * dielectric matrix)
  average eigenvalue GAMMA=   0.9765
  2.0800  0.9070  0.3883  0.5308

 Free energy of the ion-electron system (eV)
  ---------------------------------------------------
  alpha Z        PSCENC =      2652.81237852
  Ewald energy   TEWEN  =    -41775.11849500
  -Hartree energ DENC   =    -25650.78017066
  -exchange      EXHF   =         0.00000000
  -V(xc)+E(xc)   XCENC  =      3708.37015022
  PAW double counting   =     70421.52832762   -73974.59733934
  entropy T*S    EENTRO =        -0.00000000
  eigenvalues    EBANDS =    -10147.17951872
  atomic energy  EATOM  =     73862.19814772
  Solvation  Ediel_sol  =         0.00000000
  ---------------------------------------------------
  free energy    TOTEN  =      -902.76651964 eV

  energy without entropy =     -902.76651964  energy(sigma->0) =     -902.76651964


--------------------------------------------------------------------------------------------------------




--------------------------------------- Iteration      1(  17)  ---------------------------------------


    POTLOK:  cpu time    0.1745: real time    0.1746
    SETDIJ:  cpu time    5.0512: real time    5.0522
    EDDIAG:  cpu time    4.4336: real time    4.8392
  RMM-DIIS:  cpu time   18.6111: real time   18.6328
    ORTHCH:  cpu time    1.1715: real time    1.2510
       DOS:  cpu time    0.0025: real time    0.0025
    CHARGE:  cpu time    1.7956: real time    1.8125
    MIXING:  cpu time    0.0016: real time    0.0016
    --------------------------------------------
      LOOP:  cpu time   31.2417: real time   31.7664

 eigenvalue-minimisations  : 20508
 total energy-change (2. order) : 0.1716967E+00  (-0.6074531E-01)
 number of electron     671.9999689 magnetization      47.9999922
 augmentation part      251.1311025 magnetization      33.8919007

 Broyden mixing:
  rms(total) = 0.77087E+00    rms(broyden)= 0.77076E+00
  rms(prec ) = 0.86946E+00
  weight for this iteration     100.00

 eigenvalues of (default mixing * dielectric matrix)
  average eigenvalue GAMMA=   1.0035
  2.2347  1.1397  0.3793  0.6949  0.5689

 Free energy of the ion-electron system (eV)
  ---------------------------------------------------
  alpha Z        PSCENC =      2652.81237852
  Ewald energy   TEWEN  =    -41775.11849500
  -Hartree energ DENC   =    -25642.45128262
  -exchange      EXHF   =         0.00000000
  -V(xc)+E(xc)   XCENC  =      3705.36866873
  PAW double counting   =     71259.27202111   -74820.45510136
  entropy T*S    EENTRO =        -0.00000000
  eigenvalues    EBANDS =    -10144.22116002
  atomic energy  EATOM  =     73862.19814772
  Solvation  Ediel_sol  =         0.00000000
  ---------------------------------------------------
  free energy    TOTEN  =      -902.59482291 eV

  energy without entropy =     -902.59482291  energy(sigma->0) =     -902.59482291


--------------------------------------------------------------------------------------------------------




--------------------------------------- Iteration      1(  18)  ---------------------------------------


    POTLOK:  cpu time    0.1691: real time    0.1692
    SETDIJ:  cpu time    5.0171: real time    5.0184
    EDDIAG:  cpu time    4.4284: real time    4.8314
  RMM-DIIS:  cpu time   17.5223: real time   17.6143
    ORTHCH:  cpu time    1.1728: real time    1.2530
       DOS:  cpu time    0.0023: real time    0.0023
    CHARGE:  cpu time    1.7931: real time    1.7940
    MIXING:  cpu time    0.0011: real time    0.0011
    --------------------------------------------
      LOOP:  cpu time   30.1062: real time   30.6838

 eigenvalue-minimisations  : 19052
 total energy-change (2. order) : 0.4042183E+00  (-0.7062104E-01)
 number of electron     671.9999685 magnetization      47.9999922
 augmentation part      250.6237872 magnetization      33.8574047

 Broyden mixing:
  rms(total) = 0.28245E+00    rms(broyden)= 0.28216E+00
  rms(prec ) = 0.29739E+00
  weight for this iteration     100.00

 eigenvalues of (default mixing * dielectric matrix)
  average eigenvalue GAMMA=   1.0195
  2.4583  1.3714  0.8469  0.3806  0.5903  0.4696

[...]
   4      -0.972    -0.886     1.858     0.114     0.010     0.047
   5      -1.116    -0.599     1.715     0.147    -0.021    -0.023
   6      -1.099    -0.575     1.674     0.068     0.054     0.075
   7      -1.016    -0.506     1.522     0.144     0.008    -0.036
   8      -0.620    -1.020     1.640     0.208    -0.026    -0.034
   9      -0.530    -0.763     1.292    -0.059     0.061     0.058
  10      -0.658    -0.980     1.638     0.165    -0.027    -0.022
  11      -0.716    -0.874     1.589     0.173    -0.044     0.057
  12      -0.645    -0.947     1.593     0.234     0.006    -0.088
  13      -1.009    -0.785     1.794     0.064     0.102    -0.007
  14      -0.662    -0.755     1.417    -0.182    -0.025     0.070
  15      -0.380    -0.553     0.933    -0.085    -0.020     0.008
  16      -1.157    -0.640     1.797    -0.180     0.051    -0.033
  17       1.443     1.591    -3.033    -0.006    -0.005     0.184
  18       1.502     1.394    -2.896    -0.163     0.075    -0.130
  19       1.422     1.450    -2.872    -0.063     0.019     0.133
  20       1.477     1.557    -3.034    -0.135     0.029    -0.037
  21       1.289     1.559    -2.848     0.069     0.082    -0.115
  22       1.388     1.618    -3.005    -0.034     0.018     0.112
  23       1.456     1.535    -2.992     0.226     0.019     0.007
  24       1.427     1.435    -2.862     0.005    -0.047     0.141
  25      -0.958    -0.168     1.126    -2.413     0.185     1.364
  26      -0.474    -0.134     0.608    -1.438     0.889     1.271
  27       0.638    -0.726     0.088     0.357    -0.392     1.866
  28       0.467    -2.616     2.149    -0.173     0.292     0.248
  29       1.037    -0.755    -0.281    -0.852     0.024    -0.706
  30       0.535    -0.982     0.446    -0.423    -0.366     0.805
  31      -1.129     0.498     0.631     0.555     0.895     0.432
  32      -1.016     0.497     0.519     0.010     0.773    -0.478
  33       0.100     0.888    -0.988     1.761     0.101    -0.620
  34       0.479    -0.962     0.483    -0.130     0.097     1.285
  35      -1.684    -0.093     1.776    -1.559     0.389     0.080
  36      -0.072    -0.270     0.342    -0.006     0.612     0.511
  37      -0.836    -1.842     2.678     1.548    -0.668    -0.341
  38       0.004    -0.150     0.146     0.750     0.769    -0.242
  39      -0.839     0.096     0.743     1.555     0.430    -0.017
  40      -0.272    -0.483     0.754    -0.198     0.127    -0.365
  41      -3.445     3.821    -0.376    -6.547     2.443    -3.083
  42      -5.340     5.014     0.326     2.572     2.740     5.072
  43       3.644    -5.119     1.475     0.145    -5.004    -1.418
  44      -1.008    -1.621     2.629    -6.161    -1.935     5.775
  45       3.724    -6.853     3.129    -1.616     5.792     1.562
  46      -3.133     2.952     0.181     5.246    -2.206    -4.358
  47      -1.438     0.959     0.479    -4.256     3.169    -4.236
  48       6.890    -6.914     0.024     1.480    -3.879    -0.380
  49      -3.648     2.080     1.569     5.344    -0.240     4.729
  50      -3.632     2.586     1.046    -5.077    -3.478     3.609
  51      -4.273     4.808    -0.535     5.024    -2.108    -4.260
  52       4.017    -4.026     0.010     1.115     4.529    -2.153
  53      -4.854     4.409     0.445    -3.533     2.286    -3.555
  54      -5.259     3.041     2.218     3.364     2.005     4.972
  55       4.224    -5.296     1.072     0.968    -5.021    -0.443
  56      -2.212     0.742     1.470    -5.420    -1.184     3.515
  57       4.571    -6.384     1.813     0.756     5.445    -0.116
  58      -3.828     1.576     2.252     3.354    -3.042    -4.521
  59      -2.116     0.505     1.611    -3.892     0.157    -4.983
  60       5.097    -6.585     1.488     1.248    -4.931    -0.251
  61      -3.566     1.227     2.339     2.773     1.676     4.663
  62      -2.463     2.329     0.134    -3.911    -1.301     4.283
  63      -3.655     3.735    -0.080     5.559    -3.169    -2.593
  64       5.905    -5.506    -0.398     1.066     3.779     0.310
  65      -3.391     4.428    -1.037    -6.152     3.132    -2.691
  66      -4.653     1.877     2.775     5.491     4.405     5.023
  67       6.076    -6.896     0.820    -0.313    -5.864     1.540
  68      -3.938     3.073     0.865    -4.838    -3.364     3.196
  69       7.057    -5.814    -1.243    -0.953     3.069     1.232
  70      -1.814     2.174    -0.360     6.103    -2.259    -3.997
  71      -2.463     2.217     0.246    -4.643     2.088    -3.219
  72       5.479    -4.806    -0.673    -1.121    -3.431    -0.088
  73      -1.552     0.204     1.348     4.992     1.158     5.649
  74      -3.374     1.365     2.009    -3.884    -2.981     3.818
  75      -1.364     0.839     0.525     6.478    -2.192    -3.688
  76       4.368    -6.149     1.781    -0.097     5.835    -0.841
  77      -3.003     2.032     0.970    -5.636     2.167    -3.900
  78      -2.436     3.236    -0.800     5.687     1.238     3.322
  79       6.508    -6.638     0.130    -1.531    -4.887    -1.501
  80      -3.915     2.597     1.317    -5.054    -1.951     4.035
  81       5.489    -5.476    -0.013    -0.888     3.930    -0.238
  82      -2.794     1.603     1.190     3.612    -2.403    -4.455
  83      -2.856     3.009    -0.153    -4.359     1.906    -4.036
  84       6.481    -5.821    -0.660     0.548    -3.200     0.614
  85      -2.921     3.393    -0.472     5.824     2.170     4.376
  86      -3.666     2.317     1.349    -3.463    -2.826     4.445
  87      -2.382     1.442     0.940     4.978    -1.006    -3.227
  88       4.269    -6.152     1.883     0.381     5.606    -0.736
 ---------------------------------------------------------------------


 Total hyperfine coupling parameters after diagonalization (MHz)
 (convention: |A_zz| > |A_xx| > |A_yy|)
 ----------------------------------------------------------------------
  ion      A_xx      A_yy      A_zz     asymmetry (A_yy - A_xx)/ A_zz 
 ----------------------------------------------------------------------
   1      -0.377    -0.314     2.475       0.026
   2       0.350    -0.123     2.832      -0.167
   3       2.531     2.203     4.537      -0.072
   4       0.332     0.090     3.000      -0.081
   5       1.765     1.171     4.041      -0.147
   6       1.593     1.054     3.840      -0.140
   7       1.927     1.342     3.919      -0.149
   8       2.459     1.882     4.631      -0.125
   9       1.934     1.671     3.746      -0.070
  10       1.883     1.422     4.110      -0.112
  11       2.412     2.031     4.609      -0.083
  12       1.630     1.072     3.745      -0.149
  13      -0.213     0.049     2.614       0.100
  14       1.639     1.265     3.582      -0.104
  15       1.610     1.368     2.889      -0.084
  16       1.488     0.859     3.871      -0.163
  17      15.533    11.049    15.688      -0.286
  18      13.292     9.114    13.639      -0.306
  19      13.367     9.117    13.495      -0.315
  20      15.355    10.944    15.637      -0.282
  21      13.943     9.815    14.245      -0.290
  22      15.298    10.907    15.540      -0.283
  23      14.652    10.393    15.110      -0.282
  24      13.262     8.968    13.275      -0.323
  25     100.290    96.336   102.153      -0.039
  26      98.752    95.347    99.426      -0.034
  27     100.103    97.059   100.979      -0.030
  28     100.668    97.595   102.444      -0.030
  29      93.044    91.553    94.442      -0.016
  30      94.609    93.065    95.646      -0.016
  31      97.743    96.040    99.035      -0.017
  32      96.065    94.490    96.993      -0.016
  33      98.086    97.120   101.131      -0.010
  34      95.914    93.698    96.658      -0.023
  35      97.705    94.192    98.688      -0.036
  36      94.995    94.415    96.100      -0.006
  37      97.328    94.281   100.142      -0.030
  38      99.201    97.761    99.947      -0.014
  39      98.434    95.708    99.103      -0.028
  40      94.624    94.201    95.734      -0.004
  41       8.319     2.877    19.481      -0.279
  42       4.115     0.332    15.988      -0.237
  43       3.332     0.012    13.310      -0.249
  44       6.586    -0.783    17.053      -0.432
  45       8.637     2.294    19.306      -0.329
  46       5.407     1.816    16.738      -0.215
  47       4.084     2.695    15.292      -0.091
  48       7.327     1.966    17.817      -0.301
  49       9.933     2.434    18.054      -0.415
  50       6.054     1.141    16.483      -0.298
  51       4.881     1.181    17.021      -0.217
  52       6.834     1.887    14.818      -0.334
  53       5.965     1.353    15.486      -0.298
  54       6.669     2.425    17.562      -0.242
  55       3.592     0.795    14.182      -0.197
  56       6.597     0.592    14.260      -0.421
  57       4.558     0.429    15.735      -0.262
  58       3.893     0.896    14.618      -0.205
  59       7.305     1.861    15.012      -0.363
  60       5.472     0.649    16.011      -0.301
  61       5.484     3.089    15.330      -0.156
  62       1.391    -1.275    10.918      -0.244
  63       8.959     3.288    18.767      -0.302
  64       7.150     3.703    17.073      -0.202
  65       6.376     1.293    17.748      -0.286
  66       3.849    -1.618    16.966      -0.322
  67       4.662     0.087    17.294      -0.265
  68       6.529     1.144    16.149      -0.333
  69       9.837     5.209    19.655      -0.235
  70       4.941     1.198    16.361      -0.229
  71       3.978     0.524    13.042      -0.265
  72       7.316     4.428    16.513      -0.175
  73       4.518    -1.087    14.260      -0.393
  74       5.750     2.079    15.380      -0.239
  75       5.514     0.233    15.698      -0.336
  76       5.249     1.769    17.121      -0.203
  77       5.731     0.752    15.793      -0.315
  78       6.218     2.200    16.383      -0.245
  79       4.576    -1.251    15.433      -0.378
  80       6.511     1.402    16.327      -0.313
  81       4.662     1.161    14.307      -0.245
  82      -1.069     0.965    11.376       0.179
  83       4.624     2.064    15.079      -0.170
  84       3.194    -1.038    12.645      -0.335
  85       6.003     2.451    18.164      -0.196
  86       3.670     0.908    14.307      -0.193
  87       5.550     0.310    12.979      -0.404
  88       3.272    -0.585    14.557      -0.265
 ---------------------------------------------------------------------



--------------------------------------------------------------------------------------------------------


 stress matrix after NEB project (eV)
    -42.58070     -1.53745     -0.51198
     -1.53955    -45.37917      0.12593
     -0.51044      0.12747    -54.91320
  FORCES: max atom, RMS     2.313454    1.140054
  FORCE total and by dimension   10.694652    2.173046
  Stress total and by dimension   83.024896   54.913198
     LOOP+:  cpu time  764.6845: real time  780.5256
    4ORBIT:  cpu time    0.0000: real time    0.0000
 


 total charge     
 
# of ion       s       p       d       tot
------------------------------------------
    1        0.050   5.993   0.000   6.043
    2        0.050   5.994   0.000   6.044
    3        0.052   5.993   0.000   6.045
    4        0.049   5.993   0.000   6.042
    5        0.048   5.991   0.000   6.039
    6        0.051   5.993   0.000   6.044
    7        0.053   5.996   0.000   6.049
    8        0.053   5.997   0.000   6.050
    9        0.049   5.990   0.000   6.039
   10        0.054   5.997   0.000   6.051
   11        0.053   5.995   0.000   6.048
   12        0.050   5.993   0.000   6.043
   13        0.052   5.995   0.000   6.047
   14        0.049   5.992   0.000   6.041
   15        0.048   5.990   0.000   6.038
   16        0.054   5.998   0.000   6.052
   17        0.151   6.133   0.089   6.372
   18        0.146   6.124   0.081   6.350
   19        0.145   6.121   0.078   6.344
   20        0.155   6.138   0.092   6.385
   21        0.148   6.124   0.080   6.352
   22        0.151   6.132   0.087   6.370
   23        0.153   6.133   0.088   6.374
   24        0.147   6.125   0.081   6.353
   25        0.366   6.436   4.811  11.613
   26        0.384   6.472   4.852  11.707
   27        0.381   6.469   4.858  11.708
   28        0.376   6.451   4.840  11.666
   29        0.391   6.487   4.866  11.743
   30        0.374   6.455   4.827  11.656
   31        0.363   6.427   4.800  11.590
   32        0.375   6.453   4.829  11.657
   33        0.385   6.476   4.858  11.719
   34        0.387   6.475   4.855  11.718
   35        0.376   6.449   4.834  11.659
   36        0.392   6.488   4.869  11.749
   37        0.367   6.436   4.803  11.606
   38        0.368   6.438   4.817  11.623
   39        0.375   6.457   4.831  11.663
   40        0.374   6.450   4.819  11.642
   41        1.603   3.524   0.000   5.127
   42        1.601   3.470   0.000   5.072
   43        1.598   3.503   0.000   5.101
   44        1.601   3.524   0.000   5.126
   45        1.600   3.512   0.000   5.112
   46        1.599   3.473   0.000   5.072
   47        1.597   3.506   0.000   5.103
   48        1.600   3.508   0.000   5.108
   49        1.600   3.515   0.000   5.115
   50        1.601   3.526   0.000   5.127
   51        1.603   3.491   0.000   5.093
   52        1.598   3.528   0.000   5.126
   53        1.600   3.515   0.000   5.115
   54        1.602   3.515   0.000   5.117
   55        1.596   3.499   0.000   5.095
   56        1.597   3.492   0.000   5.089
   57        1.599   3.491   0.000   5.090
   58        1.598   3.490   0.000   5.088
   59        1.599   3.524   0.000   5.124
   60        1.599   3.511   0.000   5.109
   61        1.596   3.484   0.000   5.080
   62        1.595   3.491   0.000   5.087
   63        1.604   3.524   0.000   5.128
   64        1.600   3.517   0.000   5.117
   65        1.601   3.493   0.000   5.094
   66        1.602   3.503   0.000   5.105
   67        1.600   3.481   0.000   5.081
   68        1.601   3.513   0.000   5.114
   69        1.600   3.524   0.000   5.124
   70        1.601   3.507   0.000   5.108
   71        1.600   3.508   0.000   5.108
   72        1.597   3.536   0.000   5.134
   73        1.599   3.512   0.000   5.111
   74        1.598   3.530   0.000   5.127
   75        1.598   3.490   0.000   5.087
   76        1.600   3.517   0.000   5.117
   77        1.598   3.502   0.000   5.101
   78        1.598   3.518   0.000   5.115
   79        1.598   3.485   0.000   5.083
   80        1.602   3.533   0.000   5.135
   81        1.597   3.526   0.000   5.123
   82        1.596   3.462   0.000   5.058
   83        1.597   3.504   0.000   5.100
   84        1.597   3.533   0.000   5.130
   85        1.603   3.527   0.000   5.129
   86        1.599   3.496   0.000   5.095
   87        1.595   3.508   0.000   5.103
   88        1.596   3.471   0.000   5.067
--------------------------------------------------
tot         84.804 416.563  78.044 579.411
 


 magnetization (x)
 
# of ion       s       p       d       tot
------------------------------------------
    1        0.000   0.000   0.000   0.001
    2        0.001   0.000   0.000   0.001
    3        0.002   0.000   0.000   0.003
    4        0.001   0.000   0.000   0.001
    5        0.002   0.001   0.000   0.002
    6        0.002   0.000   0.000   0.002
    7        0.002   0.000   0.000   0.002
    8        0.002   0.000   0.000   0.002
    9        0.002   0.000   0.000   0.002
   10        0.002  -0.000   0.000   0.002
   11        0.002   0.000   0.000   0.002
   12        0.001  -0.000   0.000   0.001
   13        0.001   0.000   0.000   0.001
   14        0.002  -0.000   0.000   0.002
   15        0.001   0.001   0.000   0.002
   16        0.001   0.001   0.000   0.002
   17        0.008   0.003   0.001   0.011
   18        0.007   0.002   0.001   0.010
   19        0.007   0.002   0.001   0.010
   20        0.008   0.003   0.001   0.012
   21        0.007   0.002   0.001   0.010
   22        0.008   0.003   0.001   0.011
   23        0.008   0.002   0.002   0.011
   24        0.007   0.002   0.001   0.009
   25        0.016   0.030   2.780   2.825
   26        0.016   0.031   2.737   2.784
   27        0.016   0.030   2.731   2.778
   28        0.016   0.031   2.756   2.802
   29        0.014   0.030   2.715   2.760
   30        0.015   0.029   2.763   2.806
   31        0.015   0.029   2.779   2.824
   32        0.015   0.030   2.756   2.800
   33        0.016   0.032   2.730   2.778
   34        0.015   0.031   2.727   2.772
   35        0.015   0.029   2.759   2.802
   36        0.016   0.031   2.718   2.765
   37        0.015   0.029   2.787   2.832
   38        0.016   0.031   2.766   2.813
   39        0.016   0.030   2.748   2.794
   40        0.015   0.029   2.762   2.806
   41        0.003   0.060   0.000   0.062
   42        0.002   0.019   0.000   0.021
   43        0.002   0.019   0.000   0.021
   44        0.002   0.039   0.000   0.041
   45        0.002   0.058   0.000   0.061
   46        0.002   0.031   0.000   0.034
   47        0.002   0.026   0.000   0.029
   48        0.002   0.044   0.000   0.046
   49        0.002   0.058   0.000   0.060
   50        0.002   0.038   0.000   0.040
   51        0.002   0.022   0.000   0.024
   52        0.002   0.032   0.000   0.034
   53        0.002   0.039   0.000   0.041
   54        0.002   0.043   0.000   0.045
   55        0.002   0.024   0.000   0.026
   56        0.002   0.025   0.000   0.027
   57        0.002   0.031   0.000   0.033
   58        0.002   0.023   0.000   0.025
   59        0.002   0.038   0.000   0.040
   60        0.002   0.034   0.000   0.036
   61        0.002   0.029   0.000   0.031
   62        0.001   0.005   0.000   0.007
   63        0.003   0.058   0.000   0.060
   64        0.002   0.044   0.000   0.046
   65        0.002   0.041   0.000   0.043
   66        0.002   0.031   0.000   0.033
   67        0.002   0.032   0.000   0.034
   68        0.002   0.039   0.000   0.041
   69        0.003   0.065   0.000   0.068
   70        0.002   0.035   0.000   0.037
   71        0.002   0.020   0.000   0.022
   72        0.002   0.042   0.000   0.044
   73        0.002   0.025   0.000   0.026
   74        0.002   0.043   0.000   0.045
   75        0.002   0.034   0.000   0.036
   76        0.002   0.041   0.000   0.043
   77        0.002   0.027   0.000   0.029
   78        0.002   0.037   0.000   0.039
   79        0.002   0.025   0.000   0.027
   80        0.002   0.047   0.000   0.049
   81        0.002   0.028   0.000   0.030
   82        0.001   0.000   0.000   0.001
   83        0.002   0.026   0.000   0.028
   84        0.001   0.022   0.000   0.023
   85        0.002   0.048   0.000   0.050
   86        0.002   0.022   0.000   0.024
   87        0.002   0.024   0.000   0.026
   88        0.002   0.023   0.000   0.025
--------------------------------------------------
tot          0.423   2.124  44.023  46.569
 

 total amount of memory used by VASP MPI-rank0    94427. kBytes
=======================================================================

   base      :      30000. kBytes
   nonlr-proj:      13668. kBytes
   fftplans  :       1275. kBytes
   grid      :      22786. kBytes
   one-center:       2737. kBytes
   wavefun   :      23961. kBytes
 
  
  
 General timing and accounting informations for this job:
 ========================================================
  
                  Total CPU time used (sec):      785.677
                            User time (sec):      777.470
                          System time (sec):        8.208
                         Elapsed time (sec):      804.036
  
                   Maximum memory used (kb):      195328.
                   Average memory used (kb):           0.
  
                          Minor page faults:       306296
                          Major page faults:            0
                 Voluntary context switches:       266441
