 vasp.5.4.4.18Apr17-6-g9f103f2a35 (build Dec 02 2020 12:53:39) complex          
  
 executed on             LinuxIFC date 2021.08.02  10:43:37
 running on   96 total cores
 distrk:  each k-point on   96 cores,    1 groups
 distr:  one band on NCORES_PER_BAND=   1 cores,   96 groups


--------------------------------------------------------------------------------------------------------


 INCAR:
 POTCAR:    PAW_PBE Na_pv 19Sep2006               
 POTCAR:    PAW_PBE Mg_pv 13Apr2007               
 POTCAR:    PAW_PBE Mn_pv 02Aug2007               
 POTCAR:    PAW_PBE O 08Apr2002                   

 ----------------------------------------------------------------------------- 
|                                                                             |
|           W    W    AA    RRRRR   N    N  II  N    N   GGGG   !!!           |
|           W    W   A  A   R    R  NN   N  II  NN   N  G    G  !!!           |
|           W    W  A    A  R    R  N N  N  II  N N  N  G       !!!           |
|           W WW W  AAAAAA  RRRRR   N  N N  II  N  N N  G  GGG   !            |
|           WW  WW  A    A  R   R   N   NN  II  N   NN  G    G                |
|           W    W  A    A  R    R  N    N  II  N    N   GGGG   !!!           |
|                                                                             |
|      For optimal performance we recommend to set                            |
|        NCORE= 4 - approx SQRT( number of cores)                             |
|      NCORE specifies how many cores store one orbital (NPAR=cpu/NCORE).     |
|      This setting can  greatly improve the performance of VASP for DFT.     |
|      The default,   NCORE=1            might be grossly inefficient         |
|      on modern multi-core architectures or massively parallel machines.     |
|      Do your own testing !!!!                                               |
|      Unfortunately you need to use the default for GW and RPA calculations. |
|      (for HF NCORE is supported but not extensively tested yet)             |
|                                                                             |
 ----------------------------------------------------------------------------- 

 POTCAR:    PAW_PBE Na_pv 19Sep2006               
   VRHFIN =Na: p6s1                                                             
   LEXCH  = PE                                                                  
   EATOM  =   766.0439 eV,   56.3026 Ry                                         
                                                                                
   TITEL  = PAW_PBE Na_pv 19Sep2006                                             
   LULTRA =        F    use ultrasoft PP ?                                      
   IUNSCR =        1    unscreen: 0-lin 1-nonlin 2-no                           
   RPACOR =    1.800    partial core radius                                     
   POMASS =   22.990; ZVAL   =    7.000    mass and valenz                      
   RCORE  =    2.200    outmost cutoff radius                                   
   RWIGS  =    2.200; RWIGS  =    1.164    wigner-seitz radius (au A)           
   ENMAX  =  259.561; ENMIN  =  194.671 eV                                      
   ICORE  =        2    local potential                                         
   LCOR   =        T    correct aug charges                                     
   LPAW   =        T    paw PP                                                  
   EAUG   =  368.056                                                            
   DEXC   =    0.000                                                            
   RMAX   =    2.245    core radius for proj-oper                               
   RAUG   =    1.300    factor for augmentation sphere                          
   RDEP   =    2.259    radius for radial grids                                 
   RDEPT  =    1.738    core radius for aug-charge                              
                                                                                
   Atomic configuration                                                         
    5 entries                                                                   
     n  l   j            E        occ.                                          
     1  0  0.50     -1033.6933   2.0000                                         
     2  0  0.50       -56.7526   2.0000                                         
     2  1  1.50       -28.6721   6.0000                                         
     3  0  0.50        -2.7440   1.0000                                         
     3  2  1.50        -1.3606   0.0000                                         
   Description                                                                  
     l       E           TYP  RCUT    TYP  RCUT                                 
     1    -28.6720912     23  2.000                                             
     1      6.8029130     23  2.000                                             
     0     -2.7439560     23  2.200                                             
     0     34.0145650     23  2.200                                             
     2     -1.3605826     23  2.200                                             
  local pseudopotential read in
  partial core-charges read in
  partial kinetic energy density read in
  atomic valenz-charges read in
  non local Contribution for L=           1  read in
    real space projection operators read in
  non local Contribution for L=           1  read in
    real space projection operators read in
  non local Contribution for L=           0  read in
    real space projection operators read in
  non local Contribution for L=           0  read in
    real space projection operators read in
    PAW grid and wavefunctions read in
 
   number of l-projection  operators is LMAX  =           4
   number of lm-projection operators is LMMAX =           8
 
 POTCAR:    PAW_PBE Mg_pv 13Apr2007               
   VRHFIN =Mg: p6s2                                                             
   LEXCH  = PE                                                                  
   EATOM  =  1056.7344 eV,   77.6678 Ry                                         
                                                                                
   TITEL  = PAW_PBE Mg_pv 13Apr2007                                             
   LULTRA =        F    use ultrasoft PP ?                                      
   IUNSCR =        1    unscreen: 0-lin 1-nonlin 2-no                           
   RPACOR =    1.500    partial core radius                                     
   POMASS =   24.305; ZVAL   =    8.000    mass and valenz                      
   RCORE  =    2.000    outmost cutoff radius                                   
   RWIGS  =    2.000; RWIGS  =    1.058    wigner-seitz radius (au A)           
   ENMAX  =  403.929; ENMIN  =  302.947 eV                                      
   RCLOC  =    1.506    cutoff for local pot                                    
   LCOR   =        T    correct aug charges                                     
   LPAW   =        T    paw PP                                                  
   EAUG   =  758.780                                                            
   DEXC   =    0.000                                                            
   RMAX   =    2.045    core radius for proj-oper                               
   RAUG   =    1.300    factor for augmentation sphere                          
   RDEP   =    2.025    radius for radial grids                                 
   RDEPT  =    1.557    core radius for aug-charge                              
                                                                                
   Atomic configuration                                                         
    5 entries                                                                   
     n  l   j            E        occ.                                          
     1  0  0.50     -1259.6230   2.0000                                         
     2  0  0.50       -79.8442   2.0000                                         
     2  1  1.50       -46.6121   6.0000                                         
     3  0  0.50        -4.7055   2.0000                                         
     3  2  1.50        -1.3606   0.0000                                         
   Description                                                                  
     l       E           TYP  RCUT    TYP  RCUT                                 
     1    -46.6121073     23  1.600                                             
     1      2.7211652     23  1.600                                             
     0     -4.7054661     23  2.000                                             
     0     61.2262170     23  2.000                                             
     2     -1.3605826     23  2.000                                             
  local pseudopotential read in
  partial core-charges read in
  partial kinetic energy density read in
  atomic valenz-charges read in
  non local Contribution for L=           1  read in
    real space projection operators read in
  non local Contribution for L=           1  read in
    real space projection operators read in
  non local Contribution for L=           0  read in
    real space projection operators read in
  non local Contribution for L=           0  read in
    real space projection operators read in
  non local Contribution for L=           2  read in
    real space projection operators read in
    PAW grid and wavefunctions read in
 
   number of l-projection  operators is LMAX  =           5
   number of lm-projection operators is LMMAX =          13
 
 POTCAR:    PAW_PBE Mn_pv 02Aug2007               
   VRHFIN =Mn: 3p4s3d                                                           
   LEXCH  = PE                                                                  
   EATOM  =  2025.2664 eV,  148.8529 Ry                                         
                                                                                
   TITEL  = PAW_PBE Mn_pv 02Aug2007                                             
   LULTRA =        F    use ultrasoft PP ?                                      
   IUNSCR =        1    unscreen: 0-lin 1-nonlin 2-no                           
   RPACOR =    2.080    partial core radius                                     
   POMASS =   54.938; ZVAL   =   13.000    mass and valenz                      
   RCORE  =    2.300    outmost cutoff radius                                   
   RWIGS  =    2.500; RWIGS  =    1.323    wigner-seitz radius (au A)           
   ENMAX  =  269.864; ENMIN  =  202.398 eV                                      
   ICORE  =        3    local potential                                         
   LCOR   =        T    correct aug charges                                     
   LPAW   =        T    paw PP                                                  
   EAUG   =  569.085                                                            
   DEXC   =    0.000                                                            
   RMAX   =    2.343    core radius for proj-oper                               
   RAUG   =    1.300    factor for augmentation sphere                          
   RDEP   =    2.338    radius for radial grids                                 
   RDEPT  =    1.798    core radius for aug-charge                              
                                                                                
   Atomic configuration                                                         
    8 entries                                                                   
     n  l   j            E        occ.                                          
     1  0  0.50     -6424.8287   2.0000                                         
     2  0  0.50      -739.1154   2.0000                                         
     2  1  1.50      -625.3949   6.0000                                         
     3  0  0.50       -81.6100   2.0000                                         
     3  1  1.50       -50.4667   6.0000                                         
     3  2  2.50        -3.3745   6.0000                                         
     4  0  0.50        -4.1331   1.0000                                         
     4  3  2.50        -1.3606   0.0000                                         
   Description                                                                  
     l       E           TYP  RCUT    TYP  RCUT                                 
     1    -50.4666628     23  2.000                                             
     1     -1.3605826     23  2.000                                             
     2     -3.3744729     23  2.300                                             
     2     -4.7350555     23  2.300                                             
     0     -4.1331431     23  2.300                                             
     0      7.6656591     23  2.300                                             
     3      9.5240782     23  2.300                                             
  local pseudopotential read in
  partial core-charges read in
  partial kinetic energy density read in
  atomic valenz-charges read in
  non local Contribution for L=           1  read in
    real space projection operators read in
  non local Contribution for L=           1  read in
    real space projection operators read in
  non local Contribution for L=           2  read in
    real space projection operators read in
  non local Contribution for L=           2  read in
    real space projection operators read in
  non local Contribution for L=           0  read in
    real space projection operators read in
  non local Contribution for L=           0  read in
    real space projection operators read in
    PAW grid and wavefunctions read in
 
   number of l-projection  operators is LMAX  =           6
   number of lm-projection operators is LMMAX =          18
 
 POTCAR:    PAW_PBE O 08Apr2002                   
   VRHFIN =O: s2p4                                                              
   LEXCH  = PE                                                                  
   EATOM  =   432.3788 eV,   31.7789 Ry                                         
                                                                                
   TITEL  = PAW_PBE O 08Apr2002                                                 
   LULTRA =        F    use ultrasoft PP ?                                      
   IUNSCR =        1    unscreen: 0-lin 1-nonlin 2-no                           
   RPACOR =    1.200    partial core radius                                     
   POMASS =   16.000; ZVAL   =    6.000    mass and valenz                      
   RCORE  =    1.520    outmost cutoff radius                                   
   RWIGS  =    1.550; RWIGS  =    0.820    wigner-seitz radius (au A)           
   ENMAX  =  400.000; ENMIN  =  300.000 eV                                      
   ICORE  =        2    local potential                                         
   LCOR   =        T    correct aug charges                                     
   LPAW   =        T    paw PP                                                  
   EAUG   =  605.392                                                            
   DEXC   =    0.000                                                            
   RMAX   =    1.553    core radius for proj-oper                               
   RAUG   =    1.300    factor for augmentation sphere                          
   RDEP   =    1.550    radius for radial grids                                 
   RDEPT  =    1.329    core radius for aug-charge                              
                                                                                
   Atomic configuration                                                         
    4 entries                                                                   
     n  l   j            E        occ.                                          
     1  0  0.50      -514.6923   2.0000                                         
     2  0  0.50       -23.9615   2.0000                                         
     2  1  0.50        -9.0305   4.0000                                         
     3  2  1.50        -9.5241   0.0000                                         
   Description                                                                  
     l       E           TYP  RCUT    TYP  RCUT                                 
     0    -23.9615318     23  1.200                                             
     0     -9.5240782     23  1.200                                             
     1     -9.0304911     23  1.520                                             
     1      8.1634956     23  1.520                                             
     2     -9.5240782      7  1.500                                             
  local pseudopotential read in
  partial core-charges read in
  partial kinetic energy density read in
  kinetic energy density of atom read in
  atomic valenz-charges read in
  non local Contribution for L=           0  read in
    real space projection operators read in
  non local Contribution for L=           0  read in
    real space projection operators read in
  non local Contribution for L=           1  read in
    real space projection operators read in
  non local Contribution for L=           1  read in
    real space projection operators read in
    PAW grid and wavefunctions read in
 
   number of l-projection  operators is LMAX  =           4
   number of lm-projection operators is LMMAX =           8
 
 Optimization of the real space projectors (new method)

 maximal supplied QI-value         = 17.01
 optimisation between [QCUT,QGAM] = [ 10.20, 20.41] = [ 29.16,116.64] Ry 
 Optimized for a Real-space Cutoff    1.30 Angstroem

   l    n(q)    QCUT    max X(q) W(low)/X(q) W(high)/X(q)  e(spline) 
   1      7    10.205     4.940    0.23E-03    0.84E-03    0.11E-06
   1      7    10.205     6.253    0.40E-03    0.13E-02    0.18E-06
   0      8    10.205    37.438    0.23E-03    0.37E-03    0.42E-07
   0      8    10.205     9.606    0.16E-03    0.26E-03    0.31E-07
 Optimization of the real space projectors (new method)

 maximal supplied QI-value         = 18.90
 optimisation between [QCUT,QGAM] = [ 10.20, 20.41] = [ 29.16,116.64] Ry 
 Optimized for a Real-space Cutoff    1.26 Angstroem

   l    n(q)    QCUT    max X(q) W(low)/X(q) W(high)/X(q)  e(spline) 
   1      7    10.205     2.974    0.63E-04    0.14E-03    0.13E-06
   1      7    10.205     4.279    0.11E-03    0.45E-03    0.24E-06
   0      8    10.205    16.381    0.44E-03    0.15E-03    0.55E-07
   0      8    10.205     5.611    0.31E-03    0.11E-03    0.40E-07
   2      7    10.205     4.652    0.50E-03    0.47E-03    0.57E-07
 Optimization of the real space projectors (new method)

 maximal supplied QI-value         = 16.25
 optimisation between [QCUT,QGAM] = [ 10.24, 20.48] = [ 29.35,117.42] Ry 
 Optimized for a Real-space Cutoff    1.34 Angstroem

   l    n(q)    QCUT    max X(q) W(low)/X(q) W(high)/X(q)  e(spline) 
   1      8    10.239     3.658    0.23E-03    0.30E-03    0.98E-07
   1      8    10.239     5.612    0.32E-03    0.65E-03    0.21E-06
   2      7    10.239    55.373    0.42E-03    0.45E-03    0.65E-07
   2      7    10.239    50.863    0.43E-03    0.48E-03    0.67E-07
   0      8    10.239    79.536    0.11E-03    0.21E-03    0.56E-07
   0      8    10.239    38.668    0.96E-04    0.19E-03    0.52E-07
 Optimization of the real space projectors (new method)

 maximal supplied QI-value         = 24.76
 optimisation between [QCUT,QGAM] = [ 10.15, 20.30] = [ 28.85,115.39] Ry 
 Optimized for a Real-space Cutoff    1.38 Angstroem

   l    n(q)    QCUT    max X(q) W(low)/X(q) W(high)/X(q)  e(spline) 
   0      8    10.150    20.381    0.22E-03    0.32E-03    0.29E-06
   0      8    10.150    15.268    0.23E-03    0.35E-03    0.30E-06
   1      8    10.150     5.964    0.46E-03    0.53E-03    0.21E-06
   1      8    10.150     5.382    0.38E-03    0.45E-03    0.19E-06
  PAW_PBE Na_pv 19Sep2006               :
 energy of atom  1       EATOM= -766.0439
 kinetic energy error for atom=    0.0103 (will be added to EATOM!!)
  PAW_PBE Mg_pv 13Apr2007               :
 energy of atom  2       EATOM=-1056.7344
 kinetic energy error for atom=    0.0820 (will be added to EATOM!!)
  PAW_PBE Mn_pv 02Aug2007               :
 energy of atom  3       EATOM=-2025.2664
 kinetic energy error for atom=    0.0284 (will be added to EATOM!!)
  PAW_PBE O 08Apr2002                   :
 energy of atom  4       EATOM= -432.3788
 kinetic energy error for atom=    0.1156 (will be added to EATOM!!)
 
 
 POSCAR: Na Mg Mn  O                             
  positions in cartesian coordinates
  No initial velocities read in

 METAGGA = SCAN     LMAXTAU =  6    LMIXTAU =  F

 exchange correlation table for  LEXCH =        8
   RHO(1)=    0.500       N(1)  =     2000
   RHO(2)=  100.500       N(2)  =     4000

 VTST: version 3.2, (02/03/18)

 CHAIN: initializing optimizer
 
 OPT: Using VASP Dynamics algorithm
 CHAIN: Read ICHAIN            0
 
 POSCAR: Na Mg Mn  O                             
  positions in cartesian coordinates
  No initial velocities read in
 


--------------------------------------------------------------------------------------------------------


 ion  position               nearest neighbor table
   1  0.492  0.650  0.265-  74 2.20  88 2.37
   2  0.942  0.248  0.749-  58 2.36
   3  0.746  0.903  0.743-  69 2.19  56 2.33
   4  0.254  0.601  0.756-  84 2.28  80 2.36  38 2.77  40 2.90
   5  0.115  0.466  0.261-  87 2.29  86 2.29  77 2.29
   6  0.088  0.922  0.256-  50 2.28  41 2.36  76 2.37
   7  0.938  0.775  0.751-  47 2.36
   8  0.242  0.100  0.753-  48 2.24  44 2.28  47 2.30  26 2.81  28 2.89
   9  0.913  0.079  0.259-  63 2.00  54 2.32
  10  0.300  0.297  0.246-  43 2.24  78 2.28  52 2.30
  11  0.429  0.955  0.257-  51 2.24  42 2.27  62 2.33  31 2.77  29 2.88
  12  0.443  0.953  0.753-  49 2.24  46 2.30  59 2.35  81 2.38  31 2.80  29 2.81
  13  0.508  0.519  0.757-  85 2.16  71 2.20  68 2.30  82 2.36  33 2.86
  14  0.770  0.412  0.744-  57 2.28  73 2.31  70 2.34
  15  0.762  0.587  0.240-  66 2.30  67 2.34  75 2.37  34 2.76  36 2.96
  16  0.707  0.258  0.234-  53 2.21  66 2.25
  17  0.588  0.258  0.985-  71 1.96  49 2.00  53 2.08  60 2.09  66 2.09  43 2.12  34 2.80  33 2.81

  18  0.601  0.267  0.498-  62 1.99  57 2.02  52 2.04  68 2.10  75 2.11  46 2.17
  19  0.097  0.250  0.989-  48 1.91  61 2.00  83 2.01  41 2.08  78 2.20  55 2.23  26 2.83  33 2.83

  20  0.114  0.271  0.500-  45 1.92  87 1.99  58 2.01  50 2.08  80 2.17  64 2.25  35 2.76  28 2.77
                            27 2.85
  21  0.101  0.755  0.998-  47 2.03  77 2.04  84 2.05  42 2.06  67 2.07  73 2.19  29 2.83  37 2.84

  22  0.094  0.773  0.506-  76 1.93  86 2.02  70 2.05  44 2.09  51 2.11  81 2.12  28 2.81  36 2.84

  23  0.586  0.756  0.992-  85 1.98  79 2.00  59 2.03  72 2.05  65 2.09  54 2.18  38 2.78  29 2.80

  24  0.604  0.777  0.494-  69 2.02  63 2.10  56 2.11  88 2.13  74 2.16  82 2.21  32 2.83  27 2.85

  25  0.929  0.913  0.003-  67 1.84  41 1.89  54 1.92  72 1.95  61 2.01  47 2.03  26 2.87  34 2.89
                            30 3.03
  26  0.259  0.087  0.002-  43 1.84  47 1.90  48 1.91  49 1.93  42 2.03  41 2.07   8 2.81  19 2.83
                            33 2.85  25 2.87  29 2.92
  27  0.932  0.943  0.501-  58 1.84  44 1.89  76 1.91  69 1.94  63 1.96  50 1.98  32 2.78  28 2.84
                            24 2.85  20 2.85  36 2.97
  28  0.259  0.096  0.496-  51 1.88  50 1.90  44 1.93  52 1.93  46 1.95  45 1.96  20 2.77  22 2.81
                            27 2.84   8 2.89  31 2.90  35 2.94
  29  0.428  0.919  0.002-  84 1.82  59 1.83  42 1.91  49 1.91  53 1.96  79 1.96  23 2.80  12 2.81
                            21 2.83  38 2.87  30 2.88  11 2.88  26 2.92
  30  0.759  0.092  0.004-  53 1.87  60 1.87  59 1.94  55 1.95  61 1.99  54 2.02  29 2.88  37 2.91
                            25 3.03
  31  0.429  0.932  0.504-  46 1.87  88 1.90  81 1.92  51 1.92  62 1.95  56 2.05  11 2.77  12 2.80
                            40 2.89  28 2.90  32 2.97
  32  0.772  0.103  0.493-  63 1.83  58 1.83  56 1.87  62 1.93  57 1.97  64 1.97  27 2.78  24 2.83
                            39 2.90  31 2.97
  33  0.422  0.415  0.997-  43 1.86  65 1.87  85 1.87  48 1.90  78 1.94  71 2.05  17 2.81  19 2.83
                            34 2.83  26 2.85  13 2.86  38 2.86
  34  0.748  0.580  0.994-  65 1.86  71 1.86  66 1.88  72 1.88  73 1.96  67 1.97  15 2.76  17 2.80
                            33 2.83  25 2.89  37 2.93
  35  0.432  0.434  0.499-  68 1.89  45 1.90  74 1.96  82 1.98  52 1.98  87 2.01  20 2.76  36 2.90
                            40 2.93  28 2.94
  36  0.766  0.600  0.504-  75 1.88  70 1.90  74 1.91  68 1.94  76 1.96  69 2.02  22 2.84  39 2.86
                            35 2.90  15 2.96  27 2.97
  37  0.933  0.428  1.000-  77 1.83  83 1.88  73 1.90  60 1.96  66 1.99  55 2.00  21 2.84  38 2.89
                            30 2.91  34 2.93
  38  0.266  0.589  0.003-  78 1.89  85 1.89  84 1.92  77 1.93  79 1.94  83 1.96   4 2.77  23 2.78
                            33 2.86  29 2.87  37 2.89
  39  0.931  0.437  0.503-  57 1.86  64 1.91  75 1.92  80 1.92  86 1.92  70 1.98  40 2.85  36 2.86
                            32 2.90
  40  0.260  0.600  0.498-  86 1.77  88 1.87  82 1.88  80 1.89  87 1.92  81 2.09  39 2.85  31 2.89
                             4 2.90  35 2.93
  41  0.078  0.074  0.100-  25 1.89  26 2.07  19 2.08   6 2.36
  42  0.275  0.925  0.100-  29 1.91  26 2.03  21 2.06  11 2.27
  43  0.407  0.252  0.087-  26 1.84  33 1.86  17 2.12  10 2.24
  44  0.093  0.955  0.597-  27 1.89  28 1.93  22 2.09   8 2.28
  45  0.277  0.269  0.590-  35 1.90  20 1.92  28 1.96
  46  0.411  0.080  0.594-  31 1.87  28 1.95  18 2.17  12 2.30
  47  0.106  0.930  0.904-  26 1.90  25 2.03  21 2.03   8 2.30   7 2.36
  48  0.265  0.249  0.909-  33 1.90  26 1.91  19 1.91   8 2.24
  49  0.414  0.072  0.910-  29 1.91  26 1.93  17 2.00  12 2.24
  50  0.101  0.091  0.398-  28 1.90  27 1.98  20 2.08   6 2.28
  51  0.278  0.947  0.408-  28 1.88  31 1.92  22 2.11  11 2.24
  52  0.422  0.262  0.406-  28 1.93  35 1.98  18 2.04  10 2.30
  53  0.597  0.090  0.088-  30 1.87  29 1.96  17 2.08  16 2.21
  54  0.778  0.930  0.097-  25 1.92  30 2.02  23 2.18   9 2.32
  55  0.917  0.257  0.102-  30 1.95  37 2.00  19 2.23
  56  0.619  0.962  0.595-  32 1.87  31 2.05  24 2.11   3 2.33
  57  0.778  0.271  0.587-  39 1.86  32 1.97  18 2.02  14 2.28
  58  0.926  0.101  0.580-  32 1.83  27 1.84  20 2.01   2 2.36
  59  0.589  0.938  0.911-  29 1.83  30 1.94  23 2.03  12 2.35
  60  0.776  0.253  0.908-  30 1.87  37 1.96  17 2.09
  61  0.917  0.076  0.907-  30 1.99  19 2.00  25 2.01
  62  0.598  0.094  0.411-  32 1.93  31 1.95  18 1.99  11 2.33
  63  0.783  0.960  0.399-  32 1.83  27 1.96   9 2.00  24 2.10
  64  0.924  0.282  0.401-  39 1.91  32 1.97  20 2.25
  65  0.587  0.573  0.081-  34 1.86  33 1.87  23 2.09
  66  0.763  0.433  0.088-  34 1.88  37 1.99  17 2.09  16 2.25  15 2.30
  67  0.916  0.748  0.086-  25 1.84  34 1.97  21 2.07  15 2.34
  68  0.593  0.444  0.594-  35 1.89  36 1.94  18 2.10  13 2.30
  69  0.771  0.777  0.594-  27 1.94  36 2.02  24 2.02   3 2.19
  70  0.920  0.596  0.600-  36 1.90  39 1.98  22 2.05  14 2.34
  71  0.600  0.432  0.895-  34 1.86  17 1.96  33 2.05  13 2.20
  72  0.766  0.750  0.909-  34 1.88  25 1.95  23 2.05
  73  0.908  0.569  0.902-  37 1.90  34 1.96  21 2.19  14 2.31
  74  0.606  0.587  0.404-  36 1.91  35 1.96  24 2.16   1 2.20
  75  0.782  0.455  0.409-  36 1.88  39 1.92  18 2.11  15 2.37
  76  0.930  0.775  0.418-  27 1.91  22 1.93  36 1.96   6 2.37
  77  0.093  0.575  0.089-  37 1.83  38 1.93  21 2.04   5 2.29
  78  0.276  0.438  0.096-  38 1.89  33 1.94  19 2.20  10 2.28
  79  0.425  0.754  0.098-  38 1.94  29 1.96  23 2.00
  80  0.100  0.452  0.596-  40 1.89  39 1.92  20 2.17   4 2.36
  81  0.276  0.778  0.605-  31 1.92  40 2.09  22 2.12  12 2.38
  82  0.410  0.590  0.592-  40 1.88  35 1.98  24 2.21  13 2.36
  83  0.093  0.428  0.912-  37 1.88  38 1.96  19 2.01
  84  0.285  0.761  0.912-  29 1.82  38 1.92  21 2.05   4 2.28
  85  0.417  0.574  0.912-  33 1.87  38 1.89  23 1.98  13 2.16
  86  0.106  0.601  0.423-  40 1.77  39 1.92  22 2.02   5 2.29
  87  0.270  0.446  0.402-  40 1.92  20 1.99  35 2.01   5 2.29
  88  0.408  0.765  0.409-  40 1.87  31 1.90  24 2.13   1 2.37
 
  LATTYP: Found a hexagonal cell.
 ALAT       =    10.0190000534
 C/A-ratio  =     1.1196726572
  
  Lattice vectors:
  
 A1 = (  10.0190000534,   0.0000000000,   0.0000000000)
 A2 = (  -5.0095000267,   8.6767085668,   0.0000000000)
 A3 = (   0.0000000000,   0.0000000000,  11.2180004120)


Analysis of symmetry for initial positions (statically):
=====================================================================
 Subroutine PRICEL returns:
 Original cell was already a primitive cell.
 

 Routine SETGRP: Setting up the symmetry group for a 
 hexagonal supercell.


 Subroutine GETGRP returns: Found  1 space group operations
 (whereof  1 operations were pure point group operations)
 out of a pool of 24 trial point group operations.


The static configuration has the point symmetry C_1 .


Analysis of symmetry for dynamics (positions and initial velocities):
=====================================================================
 Subroutine PRICEL returns:
 Original cell was already a primitive cell.
 

 Routine SETGRP: Setting up the symmetry group for a 
 hexagonal supercell.


 Subroutine GETGRP returns: Found  1 space group operations
 (whereof  1 operations were pure point group operations)
 out of a pool of 24 trial point group operations.


The dynamic configuration has the point symmetry C_1 .


Analysis of structural, dynamic, and magnetic symmetry:
=====================================================================
 Subroutine PRICEL returns:
 Original cell was already a primitive cell.
 

 Routine SETGRP: Setting up the symmetry group for a 
 hexagonal supercell.


 Subroutine GETGRP returns: Found  1 space group operations
 (whereof  1 operations were pure point group operations)
 out of a pool of 24 trial point group operations.


The magnetic configuration has the point symmetry C_1 .


 Subroutine INISYM returns: Found  1 space group operations
 (whereof  1 operations are pure point group operations),
 and found     1 'primitive' translations

 
 

Automatic generation of k-mesh.
 generate k-points for:    2    2    2
Space group operators:
 irot       det(A)        alpha          n_x          n_y          n_z        tau_x        tau_y        tau_z
    1     1.000000     0.000000     1.000000     0.000000     0.000000     0.000000     0.000000     0.000000
 
 Subroutine IBZKPT returns following result:
 ===========================================
 
 Found      8 irreducible k-points:
 
 Following reciprocal coordinates:
            Coordinates               Weight
  0.000000  0.000000  0.000000      1.000000
  0.500000 -0.000000 -0.000000      1.000000
  0.000000  0.500000  0.000000      1.000000
  0.500000  0.500000 -0.000000      1.000000
  0.000000  0.000000  0.500000      1.000000
  0.500000 -0.000000  0.500000      1.000000
  0.000000  0.500000  0.500000      1.000000
  0.500000  0.500000  0.500000      1.000000
 
 Following cartesian coordinates:
            Coordinates               Weight
  0.000000  0.000000  0.000000      1.000000
  0.049905  0.028813 -0.000000      1.000000
  0.000000  0.057626  0.000000      1.000000
  0.049905  0.086438 -0.000000      1.000000
  0.000000  0.000000  0.044571      1.000000
  0.049905  0.028813  0.044571      1.000000
  0.000000  0.057626  0.044571      1.000000
  0.049905  0.086438  0.044571      1.000000
 


--------------------------------------------------------------------------------------------------------




 Dimension of arrays:
   k-points           NKPTS =      8   k-points in BZ     NKDIM =      8   number of bands    NBANDS=    480
   number of dos      NEDOS =    301   number of ions     NIONS =     88
   non local maximal  LDIM  =      6   non local SUM 2l+1 LMDIM =     18
   total plane-waves  NPLWV = 140000
   max r-space proj   IRMAX =   1632   max aug-charges    IRDMAX=   4555
   dimension x,y,z NGX =    50 NGY =   50 NGZ =   56
   dimension x,y,z NGXF=   100 NGYF=  100 NGZF=  112
   support grid    NGXF=   100 NGYF=  100 NGZF=  112
   ions per type =              16   8  16  48
   NGX,Y,Z   is equivalent  to a cutoff of   8.30,  8.30,  8.30 a.u.
   NGXF,Y,Z  is equivalent  to a cutoff of  16.59, 16.59, 16.60 a.u.

 SYSTEM =  unknown system                          
 POSCAR =  Na Mg Mn  O                             

 Startparameter for this run:
   NWRITE =      2    write-flag & timer
   PREC   = normal    normal or accurate (medium, high low for compatibility)
   ISTART =      0    job   : 0-new  1-cont  2-samecut
   ICHARG =      1    charge: 1-file 2-atom 10-const
   ISPIN  =      2    spin polarized calculation?
   LNONCOLLINEAR =      F non collinear calculations
   LSORBIT =      F    spin-orbit coupling
   INIWAV =      1    electr: 0-lowe 1-rand  2-diag
   LASPH  =      T    aspherical Exc in radial PAW
   METAGGA=      F    non-selfconsistent MetaGGA calc.

 Electronic Relaxation 1
   ENCUT  =  400.0 eV  29.40 Ry    5.42 a.u.  16.34 16.34 18.29*2*pi/ulx,y,z
   ENINI  =  400.0     initial cutoff
   ENAUG  =  758.8 eV  augmentation charge cutoff
   NELM   =    200;   NELMIN=  6; NELMDL=  0     # of ELM steps 
   EDIFF  = 0.1E-04   stopping-criterion for ELM
   LREAL  =      T    real-space projection
   NLSPLINE    = F    spline interpolate recip. space projectors
   LCOMPAT=      F    compatible to vasp.4.4
   GGA_COMPAT  = T    GGA compatible to vasp.4.4-vasp.4.6
   LMAXPAW     = -100 max onsite density
   LMAXMIX     =    4 max onsite mixed and CHGCAR
   VOSKOWN=      0    Vosko Wilk Nusair interpolation
   ROPT   =   -0.00050  -0.00050  -0.00050  -0.00050
 Ionic relaxation
   EDIFFG = 0.1E-03   stopping-criterion for IOM
   NSW    =      1    number of steps for IOM
   NBLOCK =      1;   KBLOCK =      1    inner block; outer block 
   IBRION =     -1    ionic relax: 0-MD 1-quasi-New 2-CG
   NFREE  =      0    steps in history (QN), initial steepest desc. (CG)
   ISIF   =      2    stress and relaxation
   IWAVPR =     10    prediction:  0-non 1-charg 2-wave 3-comb
   ISYM   =      2    0-nonsym 1-usesym 2-fastsym
   LCORR  =      T    Harris-Foulkes like correction to forces

   POTIM  = 0.5000    time-step for ionic-motion
   TEIN   =    0.0    initial temperature
   TEBEG  =    0.0;   TEEND  =   0.0 temperature during run
   SMASS  =  -3.00    Nose mass-parameter (am)
   estimated Nose-frequenzy (Omega)   =  0.10E-29 period in steps =****** mass=  -0.229E-26a.u.
   SCALEE = 1.0000    scale energy and forces
   NPACO  =    256;   APACO  = 16.0  distance and # of slots for P.C.
   PSTRESS=    0.0 pullay stress

  Mass of Ions in am
   POMASS =  22.99 24.30 54.94 16.00
  Ionic Valenz
   ZVAL   =   7.00  8.00 13.00  6.00
  Atomic Wigner-Seitz radii
   RWIGS  =  -1.00 -1.00 -1.00 -1.00
  virtual crystal weights 
   VCA    =   1.00  1.00  1.00  1.00
   NELECT =     672.0000    total number of electrons
   NUPDOWN=      48.0000    fix difference up-down

 DOS related values:
   EMIN   =  10.00;   EMAX   =-10.00  energy-range for DOS
   EFERMI =   0.00
   ISMEAR =     0;   SIGMA  =   0.05  broadening in eV -4-tet -1-fermi 0-gaus

 Electronic relaxation 2 (details)
   IALGO  =     48    algorithm
   LDIAG  =      T    sub-space diagonalisation (order eigenvalues)
   LSUBROT=      F    optimize rotation matrix (better conditioning)
   TURBO    =      0    0=normal 1=particle mesh
   IRESTART =      0    0=no restart 2=restart with 2 vectors
   NREBOOT  =      0    no. of reboots
   NMIN     =      0    reboot dimension
   EREF     =   0.00    reference energy to select bands
   IMIX   =      4    mixing-type and parameters
     AMIX     =   0.40;   BMIX     =  1.00
     AMIX_MAG =   1.60;   BMIX_MAG =  1.00
     AMIN     =   0.10
     WC   =   100.;   INIMIX=   1;  MIXPRE=   1;  MAXMIX= -45

 Intra band minimization:
   WEIMIN = 0.0000     energy-eigenvalue tresh-hold
   EBREAK =  0.52E-08  absolut break condition
   DEPER  =   0.30     relativ break condition  

   TIME   =   0.40     timestep for ELM

  volume/ion in A,a.u.               =      11.08        74.78
  Fermi-wavevector in a.u.,A,eV,Ry     =   1.445993  2.732531 28.448379  2.090897
  Thomas-Fermi vector in A             =   2.564112
 
 Write flags
   LWAVE        =      F    write WAVECAR
   LDOWNSAMPLE  =      F    k-point downsampling of WAVECAR
   LCHARG       =      F    write CHGCAR
   LVTOT        =      F    write LOCPOT, total local potential
   LVHAR        =      F    write LOCPOT, Hartree potential only
   LELF         =      F    write electronic localiz. function (ELF)
   LORBIT       =     11    0 simple, 1 ext, 2 COOP (PROOUT), +10 PAW based schemes


 Dipole corrections
   LMONO  =      F    monopole corrections only (constant potential shift)
   LDIPOL =      F    correct potential (dipole corrections)
   IDIPOL =      0    1-x, 2-y, 3-z, 4-all directions 
   EPSILON=  1.0000000 bulk dielectric constant

 Exchange correlation treatment:
   GGA     =    --    GGA type
   LEXCH   =     8    internal setting for exchange type
   VOSKOWN=      0    Vosko Wilk Nusair interpolation
   LHFCALC =     F    Hartree Fock is set to
   LHFONE  =     F    Hartree Fock one center treatment
   AEXX    =    0.0000 exact exchange contribution

 Linear response parameters
   LEPSILON=     F    determine dielectric tensor
   LRPA    =     F    only Hartree local field effects (RPA)
   LNABLA  =     F    use nabla operator in PAW spheres
   LVEL    =     F    velocity operator in full k-point grid
   LINTERFAST=   F  fast interpolation
   KINTER  =     0    interpolate to denser k-point grid
   CSHIFT  =0.1000    complex shift for real part using Kramers Kronig
   OMEGAMAX=  -1.0    maximum frequency
   DEG_THRESHOLD= 0.2000000E-02 threshold for treating states as degnerate
   RTIME   =   -0.100 relaxation time in fs
  (WPLASMAI=    0.000 imaginary part of plasma frequency in eV, 0.658/RTIME)
   DFIELD  = 0.0000000 0.0000000 0.0000000 field for delta impulse in time
 
 Orbital magnetization related:
   ORBITALMAG=     F  switch on orbital magnetization
   LCHIMAG   =     F  perturbation theory with respect to B field
   DQ        =  0.001000  dq finite difference perturbation B field
   LLRAUG    =     F  two centre corrections for induced B field



--------------------------------------------------------------------------------------------------------


 Static calculation
 charge density and potential will be updated during run
 spin polarized calculation
 RMM-DIIS sequential band-by-band
 perform sub-space diagonalisation
    before iterative eigenvector-optimisation
 modified Broyden-mixing scheme, WC =      100.0
 initial mixing is a Kerker type mixing with AMIX =  0.4000 and BMIX =      1.0000
 Hartree-type preconditioning will be used
 using additional bands          144
 real space projection scheme for non local part
 use partial core corrections
 calculate Harris-corrections to forces 
   (improved forces if not selfconsistent)
 use gradient corrections 
 use of overlap-Matrix (Vanderbilt PP)
 Gauss-broadening in eV      SIGMA  =   0.05


--------------------------------------------------------------------------------------------------------


  energy-cutoff  :      400.00
  volume of cell :      975.20
      direct lattice vectors                 reciprocal lattice vectors
    10.019000053  0.000000000  0.000000000     0.099810360  0.057625538 -0.000000000
    -5.009500027  8.676708567  0.000000000     0.000000000  0.115251076  0.000000000
     0.000000000  0.000000000 11.218000412     0.000000000  0.000000000  0.089142446

  length of vectors
    10.019000053 10.019000053 11.218000412     0.115251076  0.115251076  0.089142446


 
 k-points in units of 2pi/SCALE and weight: read from INCAR                         
   0.00000000  0.00000000  0.00000000       0.125
   0.04990518  0.02881277 -0.00000000       0.125
   0.00000000  0.05762554  0.00000000       0.125
   0.04990518  0.08643831 -0.00000000       0.125
   0.00000000  0.00000000  0.04457122       0.125
   0.04990518  0.02881277  0.04457122       0.125
   0.00000000  0.05762554  0.04457122       0.125
   0.04990518  0.08643831  0.04457122       0.125
 
 k-points in reciprocal lattice and weights: read from INCAR                         
   0.00000000  0.00000000  0.00000000       0.125
   0.50000000 -0.00000000 -0.00000000       0.125
   0.00000000  0.50000000  0.00000000       0.125
   0.50000000  0.50000000 -0.00000000       0.125
   0.00000000  0.00000000  0.50000000       0.125
   0.50000000 -0.00000000  0.50000000       0.125
   0.00000000  0.50000000  0.50000000       0.125
   0.50000000  0.50000000  0.50000000       0.125
 
 position of ions in fractional coordinates (direct lattice) 
   0.49167463  0.64978903  0.26504189
   0.94154886  0.24791856  0.74901227
   0.74589112  0.90340017  0.74294435
   0.25421533  0.60112854  0.75649133
   0.11527813  0.46580929  0.26136387
   0.08815883  0.92150381  0.25611605
   0.93791033  0.77529168  0.75109553
   0.24201003  0.09974618  0.75253786
   0.91319014  0.07929175  0.25942235
   0.29955011  0.29679260  0.24554643
   0.42931767  0.95469283  0.25721161
   0.44324233  0.95276912  0.75257441
   0.50801929  0.51919260  0.75739166
   0.76989378  0.41230974  0.74368780
   0.76206522  0.58699579  0.24003387
   0.70650639  0.25842650  0.23382509
   0.58847046  0.25843210  0.98531084
   0.60057914  0.26743436  0.49839096
   0.09677060  0.24953241  0.98932706
   0.11437937  0.27093799  0.49979228
   0.10148446  0.75522762  0.99830626
   0.09357282  0.77322408  0.50642359
   0.58648958  0.75568402  0.99209768
   0.60383655  0.77707923  0.49366819
   0.92900586  0.91317692  0.00323197
   0.25911305  0.08669601  0.00237993
   0.93226432  0.94282987  0.50128096
   0.25895202  0.09622923  0.49555177
   0.42802910  0.91911120  0.00205024
   0.75931332  0.09246237  0.00403812
   0.42939059  0.93217952  0.50358797
   0.77177954  0.10262486  0.49266980
   0.42230688  0.41524156  0.99701410
   0.74837917  0.58038944  0.99429609
   0.43220720  0.43447927  0.49917720
   0.76586740  0.60041431  0.50389729
   0.93303092  0.42789037  0.99964309
   0.26595713  0.58885348  0.00251300
   0.93139039  0.43663446  0.50331073
   0.26034562  0.59973087  0.49783739
   0.07783309  0.07402450  0.09966036
   0.27498098  0.92505130  0.09984667
   0.40705149  0.25204488  0.08718791
   0.09316845  0.95489465  0.59705739
   0.27654555  0.26933024  0.58962647
   0.41116196  0.07969093  0.59382954
   0.10600624  0.93042350  0.90395789
   0.26516248  0.24878789  0.90927970
   0.41367895  0.07207295  0.91020678
   0.10132408  0.09140851  0.39774914
   0.27844875  0.94734167  0.40798358
   0.42232114  0.26162801  0.40600997
   0.59673950  0.09012738  0.08801738
   0.77811446  0.92985704  0.09682118
   0.91677495  0.25675981  0.10158851
   0.61934694  0.96174010  0.59506149
   0.77787072  0.27129988  0.58690852
   0.92570108  0.10125545  0.57950613
   0.58895015  0.93807398  0.91140129
   0.77574282  0.25340600  0.90830804
   0.91662645  0.07628515  0.90715811
   0.59806383  0.09371226  0.41115795
   0.78295256  0.95985263  0.39858084
   0.92437141  0.28159641  0.40073006
   0.58706213  0.57302835  0.08121153
   0.76284185  0.43297985  0.08790649
   0.91598915  0.74832524  0.08568506
   0.59270793  0.44389874  0.59390620
   0.77146318  0.77740885  0.59365393
   0.91957246  0.59570746  0.59986805
   0.59967475  0.43151040  0.89546262
   0.76561927  0.75018654  0.90869136
   0.90817750  0.56925849  0.90175607
   0.60560737  0.58727223  0.40432339
   0.78193002  0.45500088  0.40864235
   0.93023682  0.77543921  0.41752896
   0.09284276  0.57456465  0.08857916
   0.27639741  0.43782386  0.09639953
   0.42499001  0.75366482  0.09761009
   0.10040908  0.45222448  0.59567122
   0.27627196  0.77800354  0.60541271
   0.40991892  0.58958532  0.59229272
   0.09270760  0.42818195  0.91182026
   0.28484443  0.76063866  0.91248882
   0.41721849  0.57385009  0.91227488
   0.10561164  0.60078311  0.42253430
   0.26963043  0.44615536  0.40214921
   0.40761378  0.76527867  0.40877873
 
 position of ions in cartesian coordinates  (Angst):
   1.67097005  5.63803000  2.97324000
   8.19143000  2.15111713  8.40242000
   2.94749995  7.83854000  8.33435000
  -0.46437005  5.21581713  8.48632000
  -1.17850008  4.04169143  2.93198000
  -3.73301005  7.99562000  2.87311000
   5.51309989  6.72698000  8.42579000
   1.92501997  0.86546857  8.44197000
   8.75204003  0.68799143  2.91020000
   1.51441000  2.57518287  2.75454000
  -0.48120003  8.28359143  2.88540000
  -0.33205200  8.26690000  8.44238000
   2.48895000  4.50488287  8.49642000
   5.64810019  3.57749143  8.34269000
   4.69457603  5.09319143  2.69270000
   5.78389997  2.24229143  2.62305000
   4.60127000  2.24234000 11.05321741
   4.67749000  2.32045000  5.59095000
  -0.28048800  2.16512000 11.09827141
  -0.21129700  2.35085000  5.60667000
  -2.76654000  6.55289000 11.19900000
  -2.93596000  6.70904000  5.68106000
   2.09044000  6.55685000 11.12935221
   2.15706000  6.74249000  5.53797000
   4.73315000  7.92337000  0.03625620
   2.16175000  0.75223600  0.02669810
   4.61725000  8.18066000  5.62337000
   2.11238000  0.83495300  5.55910000
  -0.31586400  7.97486000  0.02299959
   7.14437000  0.80226900  0.04529959
  -0.36768900  8.08825000  5.64925000
   7.21836000  0.89044600  5.52677000
   2.15094000  3.60293000 11.18450461
   4.59055000  5.03587000 11.15401391
   2.15376000  3.76985000  5.59977000
   4.66545000  5.20962000  5.65272000
   7.20452000  3.71268000 11.21399655
  -0.28523700  5.10931000  0.02819080
   7.14428000  3.78855000  5.64614000
  -0.39594900  5.20369000  5.58474000
   0.40898400  0.64228900  1.11799000
  -1.87901003  8.02640057  1.12008000
   2.81563000  2.18692000  0.97807400
  -3.85009003  8.28534257  6.69779000
   1.42150000  2.33690000  6.61443000
   3.72022000  0.69145500  6.66158000
  -3.59888003  8.07301357 10.14060000
   1.41036000  2.15866000 10.20030000
   3.78360000  0.62535600 10.21070000
   0.55725500  0.79312500  4.46195000
  -1.95593003  8.21980757  4.57676000
   2.92061000  2.27007000  4.55462000
   5.52724000  0.78200900  0.98737900
   3.13780997  8.06809857  1.08614000
   7.89893000  2.22783000  1.13962000
   1.38739997  8.34473857  6.67540000
   6.43441000  2.35399000  6.58394000
   8.76736000  0.87856400  6.50090000
   1.20140997  8.13939457 10.22410000
   6.50273000  2.19873000 10.18940000
   8.80153000  0.66190400 10.17650000
   5.52255000  0.81311400  4.61237000
   3.03601997  8.32836157  4.47128000
   7.85062000  2.44333000  4.49539000
   3.01119000  4.97200000  0.91103100
   5.47390000  3.75684000  0.98613500
   5.42856000  6.49300000  0.96121500
   3.71463000  3.85158000  6.66244000
   3.83486000  6.74535000  6.65961000
   6.22900000  5.16878000  6.72932000
   3.84649000  3.74409000 10.04530000
   3.91268000  6.50915000 10.19370000
   6.24733000  4.93929000 10.11590000
   3.12564000  5.09559000  4.53570000
   5.55483000  3.94791000  4.58415000
   5.43548000  6.72826000  4.68384000
  -1.94809000  4.98533000  0.99368100
   0.57594700  3.79887000  1.08141000
   0.48249100  6.53933000  1.09499000
  -1.25942000  3.92382000  6.68224000
  -1.12944000  6.75051000  6.79152000
   1.15345000  5.11566000  6.64434000
  -1.21614000  3.71521000 10.22880000
  -0.95656300  6.59984000 10.23630000
   1.30541000  4.97913000 10.23390000
  -1.95150000  5.21282000  4.73999000
   0.46641200  3.87116000  4.51131000
   0.25021900  6.64010000  4.58568000
 


--------------------------------------------------------------------------------------------------------


 k-point  1 :   0.0000 0.0000 0.0000  plane waves:   17725
 k-point  2 :   0.5000-0.0000-0.0000  plane waves:   17736
 k-point  3 :   0.0000 0.5000 0.0000  plane waves:   17736
 k-point  4 :   0.5000 0.5000-0.0000  plane waves:   17736
 k-point  5 :   0.0000 0.0000 0.5000  plane waves:   17676
 k-point  6 :   0.5000-0.0000 0.5000  plane waves:   17700
 k-point  7 :   0.0000 0.5000 0.5000  plane waves:   17700
 k-point  8 :   0.5000 0.5000 0.5000  plane waves:   17700

 maximum and minimum number of plane-waves per node :     17736    17676

 maximum number of plane-waves:     17736
 maximum index in each direction: 
   IXMAX=   16   IYMAX=   16   IZMAX=   18
   IXMIN=  -16   IYMIN=  -16   IZMIN=  -18


 serial   3D FFT for wavefunctions
 parallel 3D FFT for charge:
    minimum data exchange during FFTs selected (reduces bandwidth)


 total amount of memory used by VASP MPI-rank0    94426. kBytes
=======================================================================

   base      :      30000. kBytes
   nonlr-proj:      13667. kBytes
   fftplans  :       1275. kBytes
   grid      :      22786. kBytes
   one-center:       2737. kBytes
   wavefun   :      23961. kBytes
 
     INWAV:  cpu time    0.0000: real time    0.0001
 Broyden mixing: mesh for mixing (old mesh)
   NGX = 33   NGY = 33   NGZ = 37
  (NGX  =100   NGY  =100   NGZ  =112)
  gives a total of  40293 points

 initial charge density was supplied:
 charge density of overlapping atoms calculated
 number of electron     672.0000000 magnetization      48.0000000
 keeping initial charge density in first step


--------------------------------------------------------------------------------------------------------


 Maximum index for non-local projection operator         1548
 Maximum index for augmentation-charges          451 (set IRDMAX)


--------------------------------------------------------------------------------------------------------


 First call to EWALD:  gamma=   0.179
 Maximum number of real-space cells 3x 3x 2
 Maximum number of reciprocal cells 3x 3x 3

    FEWALD:  cpu time    0.0028: real time    0.0028


--------------------------------------- Iteration      1(   1)  ---------------------------------------


    POTLOK:  cpu time    0.2368: real time    0.2385
    SETDIJ:  cpu time    4.6010: real time    4.6031
    EDDIAG:  cpu time    4.4400: real time    4.8175
  RMM-DIIS:  cpu time    8.9942: real time    9.0026
    ORTHCH:  cpu time    1.1942: real time    1.2695
       DOS:  cpu time    0.0020: real time    0.0021
    --------------------------------------------
      LOOP:  cpu time   19.4682: real time   19.9334

 eigenvalue-minimisations  :  7680
 total energy-change (2. order) : 0.1591956E+04  (-0.3496974E+05)
 number of electron     672.0000000 magnetization      48.0000000
 augmentation part      672.0000000 magnetization      48.0000000

 Free energy of the ion-electron system (eV)
  ---------------------------------------------------
  alpha Z        PSCENC =      2652.81237852
  Ewald energy   TEWEN  =    -41682.62225255
  -Hartree energ DENC   =    -25915.99225338
  -exchange      EXHF   =         0.00000000
  -V(xc)+E(xc)   XCENC  =      3606.70989839
  PAW double counting   =     55594.23204139   -59034.67079123
  entropy T*S    EENTRO =        -0.05303049
  eigenvalues    EBANDS =     -7490.65768164
  atomic energy  EATOM  =     73862.19814772
  Solvation  Ediel_sol  =         0.00000000
  ---------------------------------------------------
  free energy    TOTEN  =      1591.95645674 eV

  energy without entropy =     1592.00948722  energy(sigma->0) =     1591.98297198


--------------------------------------------------------------------------------------------------------




--------------------------------------- Iteration      1(   2)  ---------------------------------------


    EDDIAG:  cpu time    4.4472: real time    4.8328
  RMM-DIIS:  cpu time    8.9064: real time    9.0221
    ORTHCH:  cpu time    1.1604: real time    1.2398
       DOS:  cpu time    0.0022: real time    0.0022
    --------------------------------------------
      LOOP:  cpu time   14.5162: real time   15.0968

 eigenvalue-minimisations  :  7680
 total energy-change (2. order) :-0.2319257E+04  (-0.8042576E+04)
 number of electron     672.0000000 magnetization      48.0000000
 augmentation part      672.0000000 magnetization      48.0000000

 Free energy of the ion-electron system (eV)
  ---------------------------------------------------
  alpha Z        PSCENC =      2652.81237852
  Ewald energy   TEWEN  =    -41682.62225255
  -Hartree energ DENC   =    -25915.99225338
  -exchange      EXHF   =         0.00000000
  -V(xc)+E(xc)   XCENC  =      3606.70989839
  PAW double counting   =     55594.23204139   -59034.67079123
  entropy T*S    EENTRO =        -0.03062522
  eigenvalues    EBANDS =     -9809.93675483
  atomic energy  EATOM  =     73862.19814772
  Solvation  Ediel_sol  =         0.00000000
  ---------------------------------------------------
  free energy    TOTEN  =      -727.30021118 eV

  energy without entropy =     -727.26958597  energy(sigma->0) =     -727.28489858


--------------------------------------------------------------------------------------------------------




--------------------------------------- Iteration      1(   3)  ---------------------------------------


    EDDIAG:  cpu time    4.3786: real time    4.7799
  RMM-DIIS:  cpu time    8.9823: real time    8.9935
    ORTHCH:  cpu time    1.2283: real time    1.3097
       DOS:  cpu time    0.0023: real time    0.0023
    --------------------------------------------
      LOOP:  cpu time   14.5916: real time   15.0854

 eigenvalue-minimisations  :  7680
 total energy-change (2. order) : 0.8375749E+02  (-0.1420305E+04)
 number of electron     672.0000000 magnetization      48.0000000
 augmentation part      672.0000000 magnetization      48.0000000

 Free energy of the ion-electron system (eV)
  ---------------------------------------------------
  alpha Z        PSCENC =      2652.81237852
  Ewald energy   TEWEN  =    -41682.62225255
  -Hartree energ DENC   =    -25915.99225338
  -exchange      EXHF   =         0.00000000
  -V(xc)+E(xc)   XCENC  =      3606.70989839
  PAW double counting   =     55594.23204139   -59034.67079123
  entropy T*S    EENTRO =        -0.03007936
  eigenvalues    EBANDS =     -9726.17981229
  atomic energy  EATOM  =     73862.19814772
  Solvation  Ediel_sol  =         0.00000000
  ---------------------------------------------------
  free energy    TOTEN  =      -643.54272279 eV

  energy without entropy =     -643.51264343  energy(sigma->0) =     -643.52768311


--------------------------------------------------------------------------------------------------------




--------------------------------------- Iteration      1(   4)  ---------------------------------------


    EDDIAG:  cpu time    4.4184: real time    4.8112
  RMM-DIIS:  cpu time    8.9613: real time    8.9988
    ORTHCH:  cpu time    1.1659: real time    1.2436
       DOS:  cpu time    0.0013: real time    0.0013
    --------------------------------------------
      LOOP:  cpu time   14.5469: real time   15.0550

 eigenvalue-minimisations  :  7680
 total energy-change (2. order) :-0.4667803E+03  (-0.4299892E+03)
 number of electron     672.0000000 magnetization      48.0000000
 augmentation part      672.0000000 magnetization      48.0000000

 Free energy of the ion-electron system (eV)
  ---------------------------------------------------
  alpha Z        PSCENC =      2652.81237852
  Ewald energy   TEWEN  =    -41682.62225255
  -Hartree energ DENC   =    -25915.99225338
  -exchange      EXHF   =         0.00000000
  -V(xc)+E(xc)   XCENC  =      3606.70989839
  PAW double counting   =     55594.23204139   -59034.67079123
  entropy T*S    EENTRO =        -0.00000000
  eigenvalues    EBANDS =    -10192.99018355
  atomic energy  EATOM  =     73862.19814772
  Solvation  Ediel_sol  =         0.00000000
  ---------------------------------------------------
  free energy    TOTEN  =     -1110.32301468 eV

  energy without entropy =    -1110.32301468  energy(sigma->0) =    -1110.32301468


--------------------------------------------------------------------------------------------------------




--------------------------------------- Iteration      1(   5)  ---------------------------------------


    EDDIAG:  cpu time    4.3750: real time    4.7849
  RMM-DIIS:  cpu time    8.9919: real time    8.9971
    ORTHCH:  cpu time    1.1875: real time    1.2640
       DOS:  cpu time    0.0012: real time    0.0012
    --------------------------------------------
      LOOP:  cpu time   14.5555: real time   15.0472

 eigenvalue-minimisations  :  7680
 total energy-change (2. order) :-0.1044005E+03  (-0.1599554E+03)
 number of electron     672.0000000 magnetization      48.0000000
 augmentation part      672.0000000 magnetization      48.0000000

 Free energy of the ion-electron system (eV)
  ---------------------------------------------------
  alpha Z        PSCENC =      2652.81237852
  Ewald energy   TEWEN  =    -41682.62225255
  -Hartree energ DENC   =    -25915.99225338
  -exchange      EXHF   =         0.00000000
  -V(xc)+E(xc)   XCENC  =      3606.70989839
  PAW double counting   =     55594.23204139   -59034.67079123
  entropy T*S    EENTRO =        -0.00000000
  eigenvalues    EBANDS =    -10297.39066131
  atomic energy  EATOM  =     73862.19814772
  Solvation  Ediel_sol  =         0.00000000
  ---------------------------------------------------
  free energy    TOTEN  =     -1214.72349245 eV

  energy without entropy =    -1214.72349245  energy(sigma->0) =    -1214.72349245


--------------------------------------------------------------------------------------------------------




--------------------------------------- Iteration      1(   6)  ---------------------------------------


    EDDIAG:  cpu time    4.4067: real time    4.8003
  RMM-DIIS:  cpu time    8.9797: real time    9.0143
    ORTHCH:  cpu time    1.1600: real time    1.2424
       DOS:  cpu time    0.0020: real time    0.0020
    --------------------------------------------
      LOOP:  cpu time   14.5483: real time   15.0590

 eigenvalue-minimisations  :  7680
 total energy-change (2. order) :-0.8924242E+01  (-0.7960496E+02)
 number of electron     672.0000000 magnetization      48.0000000
 augmentation part      672.0000000 magnetization      48.0000000

 Free energy of the ion-electron system (eV)
  ---------------------------------------------------
  alpha Z        PSCENC =      2652.81237852
  Ewald energy   TEWEN  =    -41682.62225255
  -Hartree energ DENC   =    -25915.99225338
  -exchange      EXHF   =         0.00000000
  -V(xc)+E(xc)   XCENC  =      3606.70989839
  PAW double counting   =     55594.23204139   -59034.67079123
  entropy T*S    EENTRO =        -0.00000000
  eigenvalues    EBANDS =    -10306.31490300
  atomic energy  EATOM  =     73862.19814772
  Solvation  Ediel_sol  =         0.00000000
  ---------------------------------------------------
  free energy    TOTEN  =     -1223.64773414 eV

  energy without entropy =    -1223.64773414  energy(sigma->0) =    -1223.64773414


--------------------------------------------------------------------------------------------------------




--------------------------------------- Iteration      1(   7)  ---------------------------------------


    EDDIAG:  cpu time    4.3739: real time    4.7793
  RMM-DIIS:  cpu time    8.9920: real time    9.0021
    ORTHCH:  cpu time    1.2132: real time    1.2926
       DOS:  cpu time    0.0016: real time    0.0016
    --------------------------------------------
      LOOP:  cpu time   14.5805: real time   15.0755

 eigenvalue-minimisations  :  7680
 total energy-change (2. order) :-0.1719088E+01  (-0.4857929E+02)
 number of electron     672.0000000 magnetization      48.0000000
 augmentation part      672.0000000 magnetization      48.0000000

 Free energy of the ion-electron system (eV)
  ---------------------------------------------------
  alpha Z        PSCENC =      2652.81237852
  Ewald energy   TEWEN  =    -41682.62225255
  -Hartree energ DENC   =    -25915.99225338
  -exchange      EXHF   =         0.00000000
  -V(xc)+E(xc)   XCENC  =      3606.70989839
  PAW double counting   =     55594.23204139   -59034.67079123
  entropy T*S    EENTRO =        -0.00000000
  eigenvalues    EBANDS =    -10308.03399125
  atomic energy  EATOM  =     73862.19814772
  Solvation  Ediel_sol  =         0.00000000
  ---------------------------------------------------
  free energy    TOTEN  =     -1225.36682239 eV

  energy without entropy =    -1225.36682239  energy(sigma->0) =    -1225.36682239


--------------------------------------------------------------------------------------------------------




--------------------------------------- Iteration      1(   8)  ---------------------------------------


    EDDIAG:  cpu time    4.4203: real time    4.8017
  RMM-DIIS:  cpu time    8.9585: real time    8.9959
    ORTHCH:  cpu time    1.1651: real time    1.2435
       DOS:  cpu time    0.0013: real time    0.0013
    --------------------------------------------
      LOOP:  cpu time   14.5453: real time   15.0425

 eigenvalue-minimisations  :  7680
 total energy-change (2. order) : 0.5099513E+01  (-0.3023294E+02)
 number of electron     672.0000000 magnetization      48.0000000
 augmentation part      672.0000000 magnetization      48.0000000

 Free energy of the ion-electron system (eV)
  ---------------------------------------------------
  alpha Z        PSCENC =      2652.81237852
  Ewald energy   TEWEN  =    -41682.62225255
  -Hartree energ DENC   =    -25915.99225338
  -exchange      EXHF   =         0.00000000
  -V(xc)+E(xc)   XCENC  =      3606.70989839
  PAW double counting   =     55594.23204139   -59034.67079123
  entropy T*S    EENTRO =        -0.00000000
  eigenvalues    EBANDS =    -10302.93447850
  atomic energy  EATOM  =     73862.19814772
  Solvation  Ediel_sol  =         0.00000000
  ---------------------------------------------------
  free energy    TOTEN  =     -1220.26730964 eV

  energy without entropy =    -1220.26730964  energy(sigma->0) =    -1220.26730964


--------------------------------------------------------------------------------------------------------




--------------------------------------- Iteration      1(   9)  ---------------------------------------


    EDDIAG:  cpu time    4.4011: real time    4.7789
  RMM-DIIS:  cpu time   18.8531: real time   18.9626
    ORTHCH:  cpu time    1.1769: real time    1.2559
       DOS:  cpu time    0.0014: real time    0.0014
    --------------------------------------------
      LOOP:  cpu time   24.4325: real time   24.9988

 eigenvalue-minimisations  : 21796
 total energy-change (2. order) : 0.9400527E+01  (-0.1336134E+02)
 number of electron     672.0000000 magnetization      48.0000000
 augmentation part      672.0000000 magnetization      48.0000000

 Free energy of the ion-electron system (eV)
  ---------------------------------------------------
  alpha Z        PSCENC =      2652.81237852
  Ewald energy   TEWEN  =    -41682.62225255
  -Hartree energ DENC   =    -25915.99225338
  -exchange      EXHF   =         0.00000000
  -V(xc)+E(xc)   XCENC  =      3606.70989839
  PAW double counting   =     55594.23204139   -59034.67079123
  entropy T*S    EENTRO =        -0.00000000
  eigenvalues    EBANDS =    -10293.53395111
  atomic energy  EATOM  =     73862.19814772
  Solvation  Ediel_sol  =         0.00000000
  ---------------------------------------------------
  free energy    TOTEN  =     -1210.86678225 eV

  energy without entropy =    -1210.86678225  energy(sigma->0) =    -1210.86678225


--------------------------------------------------------------------------------------------------------




--------------------------------------- Iteration      1(  10)  ---------------------------------------


    EDDIAG:  cpu time    4.4266: real time    4.7883
  RMM-DIIS:  cpu time   17.8727: real time   17.8801
    ORTHCH:  cpu time    1.1631: real time    1.2415
       DOS:  cpu time    0.0013: real time    0.0013
    --------------------------------------------
      LOOP:  cpu time   23.4636: real time   23.9112

 eigenvalue-minimisations  : 19594
 total energy-change (2. order) :-0.1924999E+01  (-0.5346331E+00)
 number of electron     672.0000000 magnetization      48.0000000
 augmentation part      672.0000000 magnetization      48.0000000

 Free energy of the ion-electron system (eV)
  ---------------------------------------------------
  alpha Z        PSCENC =      2652.81237852
  Ewald energy   TEWEN  =    -41682.62225255
  -Hartree energ DENC   =    -25915.99225338
  -exchange      EXHF   =         0.00000000
  -V(xc)+E(xc)   XCENC  =      3606.70989839
  PAW double counting   =     55594.23204139   -59034.67079123
  entropy T*S    EENTRO =        -0.00000001
  eigenvalues    EBANDS =    -10295.45894966
  atomic energy  EATOM  =     73862.19814772
  Solvation  Ediel_sol  =         0.00000000
  ---------------------------------------------------
  free energy    TOTEN  =     -1212.79178081 eV

  energy without entropy =    -1212.79178080  energy(sigma->0) =    -1212.79178080


--------------------------------------------------------------------------------------------------------




--------------------------------------- Iteration      1(  11)  ---------------------------------------


    EDDIAG:  cpu time    4.4368: real time    4.8282
  RMM-DIIS:  cpu time   19.6269: real time   19.6394
    ORTHCH:  cpu time    1.1912: real time    1.2683
       DOS:  cpu time    0.0015: real time    0.0015
    --------------------------------------------
      LOOP:  cpu time   25.2564: real time   25.7374

 eigenvalue-minimisations  : 22542
 total energy-change (2. order) : 0.7278964E-01  (-0.4296859E-01)
 number of electron     672.0000000 magnetization      48.0000000
 augmentation part      672.0000000 magnetization      48.0000000

 Free energy of the ion-electron system (eV)
  ---------------------------------------------------
  alpha Z        PSCENC =      2652.81237852
  Ewald energy   TEWEN  =    -41682.62225255
  -Hartree energ DENC   =    -25915.99225338
  -exchange      EXHF   =         0.00000000
  -V(xc)+E(xc)   XCENC  =      3606.70989839
  PAW double counting   =     55594.23204139   -59034.67079123
  entropy T*S    EENTRO =        -0.00000001
  eigenvalues    EBANDS =    -10295.38616002
  atomic energy  EATOM  =     73862.19814772
  Solvation  Ediel_sol  =         0.00000000
  ---------------------------------------------------
  free energy    TOTEN  =     -1212.71899117 eV

  energy without entropy =    -1212.71899116  energy(sigma->0) =    -1212.71899117


--------------------------------------------------------------------------------------------------------




--------------------------------------- Iteration      1(  12)  ---------------------------------------


    EDDIAG:  cpu time    4.5086: real time    4.8725
  RMM-DIIS:  cpu time   21.8782: real time   21.9327
    ORTHCH:  cpu time    1.1679: real time    1.2429
       DOS:  cpu time    0.0013: real time    0.0013
    CHARGE:  cpu time    1.7700: real time    1.7724
    MIXING:  cpu time    0.0017: real time    0.0019
    --------------------------------------------
      LOOP:  cpu time   29.3276: real time   29.8237

 eigenvalue-minimisations  : 24489
 total energy-change (2. order) :-0.1049112E-02  (-0.4328533E-02)
 number of electron     672.0000559 magnetization      48.0000034
 augmentation part      239.1762588 magnetization      29.0610325

 Broyden mixing:
  rms(total) = 0.12710E+02    rms(broyden)= 0.12701E+02
  rms(prec ) = 0.14533E+02
  weight for this iteration     100.00

 Free energy of the ion-electron system (eV)
  ---------------------------------------------------
  alpha Z        PSCENC =      2652.81237852
  Ewald energy   TEWEN  =    -41682.62225255
  -Hartree energ DENC   =    -25915.99225338
  -exchange      EXHF   =         0.00000000
  -V(xc)+E(xc)   XCENC  =      3606.70989839
  PAW double counting   =     55594.23204139   -59034.67079123
  entropy T*S    EENTRO =        -0.00000001
  eigenvalues    EBANDS =    -10295.38720914
  atomic energy  EATOM  =     73862.19814772
  Solvation  Ediel_sol  =         0.00000000
  ---------------------------------------------------
  free energy    TOTEN  =     -1212.72004028 eV

  energy without entropy =    -1212.72004027  energy(sigma->0) =    -1212.72004028


--------------------------------------------------------------------------------------------------------




--------------------------------------- Iteration      1(  13)  ---------------------------------------


    POTLOK:  cpu time    0.1743: real time    0.1750
    SETDIJ:  cpu time    4.9551: real time    4.9559
    EDDIAG:  cpu time    4.4190: real time    4.8085
  RMM-DIIS:  cpu time   17.4496: real time   17.4608
    ORTHCH:  cpu time    1.1587: real time    1.2374
       DOS:  cpu time    0.0021: real time    0.0021
    CHARGE:  cpu time    1.7700: real time    1.7707
    MIXING:  cpu time    0.0008: real time    0.0009
    --------------------------------------------
      LOOP:  cpu time   29.9297: real time   30.4113

 eigenvalue-minimisations  : 18773
 total energy-change (2. order) : 0.2280708E+03  (-0.1216871E+03)
 number of electron     672.0000478 magnetization      48.0000044
 augmentation part      268.9602890 magnetization      26.4135543

 Broyden mixing:
  rms(total) = 0.13976E+02    rms(broyden)= 0.13973E+02
  rms(prec ) = 0.15725E+02
  weight for this iteration     100.00

 eigenvalues of (default mixing * dielectric matrix)
  average eigenvalue GAMMA=   0.3205
  0.3205

 Free energy of the ion-electron system (eV)
  ---------------------------------------------------
  alpha Z        PSCENC =      2652.81237852
  Ewald energy   TEWEN  =    -41682.62225255
  -Hartree energ DENC   =    -25252.85761438
  -exchange      EXHF   =         0.00000000
  -V(xc)+E(xc)   XCENC  =      3697.30240361
  PAW double counting   =     60009.84786473   -63435.59348420
  entropy T*S    EENTRO =        -0.07044260
  eigenvalues    EBANDS =    -10835.66624202
  atomic energy  EATOM  =     73862.19814772
  Solvation  Ediel_sol  =         0.00000000
  ---------------------------------------------------
  free energy    TOTEN  =      -984.64924117 eV

  energy without entropy =     -984.57879857  energy(sigma->0) =     -984.61401987


--------------------------------------------------------------------------------------------------------




--------------------------------------- Iteration      1(  14)  ---------------------------------------


    POTLOK:  cpu time    0.1751: real time    0.1754
    SETDIJ:  cpu time    4.9422: real time    4.9428
    EDDIAG:  cpu time    4.4292: real time    4.8468
  RMM-DIIS:  cpu time   17.7369: real time   17.7435
    ORTHCH:  cpu time    1.1621: real time    1.2409
       DOS:  cpu time    0.0015: real time    0.0015
    CHARGE:  cpu time    1.7820: real time    1.7826
    MIXING:  cpu time    0.0009: real time    0.0009
    --------------------------------------------
      LOOP:  cpu time   30.2299: real time   30.7345

 eigenvalue-minimisations  : 19314
 total energy-change (2. order) : 0.6905138E+02  (-0.1798606E+02)
 number of electron     672.0000534 magnetization      48.0000070
 augmentation part      246.6086145 magnetization      32.1421995

 Broyden mixing:
  rms(total) = 0.53665E+01    rms(broyden)= 0.53624E+01
  rms(prec ) = 0.58065E+01
  weight for this iteration     100.00

 eigenvalues of (default mixing * dielectric matrix)
  average eigenvalue GAMMA=   0.7355
  1.1137  0.3574

 Free energy of the ion-electron system (eV)
  ---------------------------------------------------
  alpha Z        PSCENC =      2652.81237852
  Ewald energy   TEWEN  =    -41682.62225255
  -Hartree energ DENC   =    -25868.81712723
  -exchange      EXHF   =         0.00000000
  -V(xc)+E(xc)   XCENC  =      3674.92428839
  PAW double counting   =     63442.39462565   -66925.60629798
  entropy T*S    EENTRO =        -0.00000000
  eigenvalues    EBANDS =    -10070.88162334
  atomic energy  EATOM  =     73862.19814772
  Solvation  Ediel_sol  =         0.00000000
  ---------------------------------------------------
  free energy    TOTEN  =      -915.59786081 eV

  energy without entropy =     -915.59786081  energy(sigma->0) =     -915.59786081


--------------------------------------------------------------------------------------------------------




--------------------------------------- Iteration      1(  15)  ---------------------------------------


    POTLOK:  cpu time    0.1713: real time    0.1720
    SETDIJ:  cpu time    4.9327: real time    4.9448
    EDDIAG:  cpu time    4.3942: real time    4.7760
  RMM-DIIS:  cpu time   18.2438: real time   18.2560
    ORTHCH:  cpu time    1.1941: real time    1.2727
       DOS:  cpu time    0.0011: real time    0.0013
    CHARGE:  cpu time    1.7664: real time    1.7683
    MIXING:  cpu time    0.0010: real time    0.0010
    --------------------------------------------
      LOOP:  cpu time   30.7046: real time   31.1920

 eigenvalue-minimisations  : 20261
 total energy-change (2. order) : 0.1482049E+02  (-0.2093419E+01)
 number of electron     672.0000521 magnetization      48.0000086
 augmentation part      249.6050256 magnetization      33.7605179

 Broyden mixing:
  rms(total) = 0.22488E+01    rms(broyden)= 0.22484E+01
  rms(prec ) = 0.23436E+01
  weight for this iteration     100.00

 eigenvalues of (default mixing * dielectric matrix)
  average eigenvalue GAMMA=   0.9281
  1.6698  0.3855  0.7291

 Free energy of the ion-electron system (eV)
  ---------------------------------------------------
  alpha Z        PSCENC =      2652.81237852
  Ewald energy   TEWEN  =    -41682.62225255
  -Hartree energ DENC   =    -25793.85945853
  -exchange      EXHF   =         0.00000000
  -V(xc)+E(xc)   XCENC  =      3707.96335662
  PAW double counting   =     67605.39793098   -71129.27556580
  entropy T*S    EENTRO =        -0.00000000
  eigenvalues    EBANDS =    -10123.39191073
  atomic energy  EATOM  =     73862.19814772
  Solvation  Ediel_sol  =         0.00000000
  ---------------------------------------------------
  free energy    TOTEN  =      -900.77737376 eV

  energy without entropy =     -900.77737376  energy(sigma->0) =     -900.77737376


--------------------------------------------------------------------------------------------------------




--------------------------------------- Iteration      1(  16)  ---------------------------------------


    POTLOK:  cpu time    0.1727: real time    0.1743
    SETDIJ:  cpu time    4.9909: real time    5.0034
    EDDIAG:  cpu time    4.4004: real time    4.7765
  RMM-DIIS:  cpu time   17.6095: real time   17.6240
    ORTHCH:  cpu time    1.1633: real time    1.2454
       DOS:  cpu time    0.0021: real time    0.0022
    CHARGE:  cpu time    1.7683: real time    1.7701
    MIXING:  cpu time    0.0010: real time    0.0010
    --------------------------------------------
      LOOP:  cpu time   30.1084: real time   30.5969

 eigenvalue-minimisations  : 19213
 total energy-change (2. order) :-0.1335247E+01  (-0.6867796E+00)
 number of electron     672.0000511 magnetization      48.0000090
 augmentation part      251.0849182 magnetization      33.8402432

 Broyden mixing:
  rms(total) = 0.14809E+01    rms(broyden)= 0.14804E+01
  rms(prec ) = 0.15581E+01
  weight for this iteration     100.00

 eigenvalues of (default mixing * dielectric matrix)
  average eigenvalue GAMMA=   0.9703
  2.0862  0.8933  0.3915  0.5101

 Free energy of the ion-electron system (eV)
  ---------------------------------------------------
  alpha Z        PSCENC =      2652.81237852
  Ewald energy   TEWEN  =    -41682.62225255
  -Hartree energ DENC   =    -25742.22897237
  -exchange      EXHF   =         0.00000000
  -V(xc)+E(xc)   XCENC  =      3708.91077416
  PAW double counting   =     70500.44974967   -74053.18223157
  entropy T*S    EENTRO =        -0.00000000
  eigenvalues    EBANDS =    -10148.45021401
  atomic energy  EATOM  =     73862.19814772
  Solvation  Ediel_sol  =         0.00000000
  ---------------------------------------------------
  free energy    TOTEN  =      -902.11262043 eV

  energy without entropy =     -902.11262043  energy(sigma->0) =     -902.11262043


--------------------------------------------------------------------------------------------------------




--------------------------------------- Iteration      1(  17)  ---------------------------------------


    POTLOK:  cpu time    0.1709: real time    0.1742
    SETDIJ:  cpu time    5.0031: real time    5.0125
    EDDIAG:  cpu time    4.4104: real time    4.7769
  RMM-DIIS:  cpu time   18.4940: real time   18.5050
    ORTHCH:  cpu time    1.2438: real time    1.3231
       DOS:  cpu time    0.0011: real time    0.0011
    CHARGE:  cpu time    1.7625: real time    1.7632
    MIXING:  cpu time    0.0021: real time    0.0021
    --------------------------------------------
      LOOP:  cpu time   31.0879: real time   31.5582

 eigenvalue-minimisations  : 20397
 total energy-change (2. order) : 0.6610963E-01  (-0.7145446E-01)
 number of electron     672.0000512 magnetization      48.0000091
 augmentation part      251.1396556 magnetization      33.8436070

 Broyden mixing:
  rms(total) = 0.78745E+00    rms(broyden)= 0.78730E+00
  rms(prec ) = 0.88778E+00
  weight for this iteration     100.00

 eigenvalues of (default mixing * dielectric matrix)
  average eigenvalue GAMMA=   0.9951
  2.2319  1.1210  0.3805  0.6816  0.5605

 Free energy of the ion-electron system (eV)
  ---------------------------------------------------
  alpha Z        PSCENC =      2652.81237852
  Ewald energy   TEWEN  =    -41682.62225255
  -Hartree energ DENC   =    -25729.29326757
  -exchange      EXHF   =         0.00000000
  -V(xc)+E(xc)   XCENC  =      3706.19542808
  PAW double counting   =     71447.81722216   -75009.64248004
  entropy T*S    EENTRO =        -0.00000000
  eigenvalues    EBANDS =    -10149.51168712
  atomic energy  EATOM  =     73862.19814772
  Solvation  Ediel_sol  =         0.00000000
  ---------------------------------------------------
  free energy    TOTEN  =      -902.04651080 eV

  energy without entropy =     -902.04651080  energy(sigma->0) =     -902.04651080


--------------------------------------------------------------------------------------------------------




--------------------------------------- Iteration      1(  18)  ---------------------------------------


    POTLOK:  cpu time    0.1718: real time    0.1726
    SETDIJ:  cpu time    4.9865: real time    5.0014
    EDDIAG:  cpu time    4.4294: real time    4.8064
  RMM-DIIS:  cpu time   17.6295: real time   17.6468
    ORTHCH:  cpu time    1.1632: real time    1.2421
       DOS:  cpu time    0.0011: real time    0.0011
    CHARGE:  cpu time    1.7610: real time    1.7617
    MIXING:  cpu time    0.0011: real time    0.0011
    --------------------------------------------
      LOOP:  cpu time   30.1436: real time   30.6330

 eigenvalue-minimisations  : 19145
 total energy-change (2. order) : 0.4155507E+00  (-0.7042677E-01)
 number of electron     672.0000515 magnetization      48.0000092
 augmentation part      250.6514093 magnetization      33.8183184

 Broyden mixing:
  rms(total) = 0.28984E+00    rms(broyden)= 0.28961E+00
  rms(prec ) = 0.30551E+00
  weight for this iteration     100.00

 eigenvalues of (default mixing * dielectric matrix)
  average eigenvalue GAMMA=   1.0144
  2.4414  1.3608  0.8353  0.3825  0.5902  0.4761

[...]
   4      -0.984    -0.968     1.952     0.092     0.074    -0.011
   5      -0.778    -1.056     1.834     0.218    -0.061     0.067
   6      -0.731    -0.871     1.603     0.188     0.002     0.083
   7      -0.997    -0.562     1.558     0.020    -0.028    -0.042
   8      -1.012    -0.893     1.904     0.119     0.069     0.026
   9      -0.862    -1.122     1.985    -0.181    -0.189    -0.193
  10      -1.159    -0.609     1.768    -0.059    -0.099     0.005
  11      -0.858    -1.056     1.914    -0.070    -0.006    -0.009
  12      -0.831    -1.060     1.891     0.028     0.065    -0.030
  13      -0.648    -1.150     1.798     0.194     0.026    -0.116
  14      -0.741    -0.888     1.629    -0.217    -0.114    -0.042
  15      -0.924    -0.938     1.862     0.019     0.032    -0.042
  16      -0.665    -0.447     1.112    -0.018    -0.066     0.038
  17       1.467     1.495    -2.962    -0.103    -0.002    -0.168
  18       1.495     1.466    -2.961    -0.021     0.019     0.094
  19       1.542     1.367    -2.909    -0.087    -0.094    -0.108
  20       1.445     1.494    -2.939     0.139    -0.021    -0.036
  21       1.495     1.409    -2.904    -0.113     0.036    -0.085
  22       1.572     1.427    -2.999    -0.136    -0.053     0.010
  23       1.529     1.512    -3.041    -0.106    -0.057     0.013
  24       1.390     1.403    -2.792     0.124     0.064    -0.016
  25       0.689    -2.462     1.773     1.734    -0.074    -0.902
  26       1.001    -1.296     0.295     0.781    -0.490    -1.735
  27       0.024    -0.562     0.538     1.401    -0.375    -0.209
  28      -0.467     1.272    -0.805     0.835     0.839     0.505
  29       0.345    -0.706     0.361    -0.138     1.163    -0.290
  30      -1.179     0.375     0.804     0.467     0.173    -0.411
  31       0.245     0.588    -0.833     0.596     0.461     0.144
  32      -1.060     1.583    -0.522     0.382     1.659    -0.425
  33       2.091    -2.748     0.657     0.241     0.472    -0.442
  34      -0.484     0.058     0.426     0.784    -1.217     0.119
  35      -1.212     0.686     0.526    -0.673    -0.696     0.673
  36      -0.957     0.649     0.308    -0.543    -0.013    -0.610
  37      -1.763     1.469     0.294    -0.446    -1.354    -0.019
  38      -0.562    -0.553     1.115    -0.229    -0.215    -0.134
  39       0.155    -0.503     0.348    -1.231    -1.050    -0.773
  40      -1.586     1.422     0.164     0.310    -0.060     0.609
  41      -1.352    -0.220     1.573    -4.626     2.906    -4.403
  42      -1.490     1.439     0.051     5.177     1.960     3.572
  43       7.163    -8.181     1.018    -0.404    -5.989     0.677
  44      -4.665     5.148    -0.483    -4.367    -1.647     2.735
  45       5.745    -6.630     0.885    -1.871     5.239     0.582
  46      -3.432     3.860    -0.428     5.618    -1.777    -3.530
  47      -1.175     1.533    -0.358    -4.717     0.845    -3.497
  48       5.484    -6.019     0.535     0.994    -6.202     0.105
  49      -3.302     2.301     1.002     4.333     3.250     3.053
  50      -3.273     3.471    -0.198    -3.648    -1.444     3.359
  51      -2.624     3.782    -1.158     6.696    -2.927    -4.049
  52       5.651    -6.924     1.273    -0.626     5.255    -1.080
  53      -4.338     1.896     2.442    -4.017     3.548    -3.930
  54      -4.896     3.851     1.045     5.819     4.411     2.781
  55       6.595    -6.226    -0.369    -1.908    -4.763    -0.735
  56      -3.129     4.430    -1.301    -5.111    -0.151     4.016
  57       4.306    -5.387     1.081    -0.690     4.370     2.256
  58      -2.832     1.168     1.664     4.670    -3.351    -4.435
  59      -3.138     1.994     1.144    -5.248     3.251    -3.779
  60       5.931    -5.543    -0.389    -0.024    -3.337     2.168
  61      -1.763     2.838    -1.075     3.853     2.137     3.252
  62      -3.612     1.129     2.483    -3.302    -1.713     4.240
  63      -2.090     2.676    -0.586     6.010    -1.449    -4.242
  64       6.009    -5.955    -0.054     0.863     4.437    -2.316
  65      -3.472     1.301     2.171    -4.987     2.718    -3.801
  66      -4.185     4.184     0.001     3.336     0.224     4.986
  67       3.462    -6.912     3.449     0.826    -5.503     1.793
  68      -4.176     4.358    -0.182    -5.453    -3.288     4.220
  69       3.363    -5.629     2.265    -0.940     4.124     1.510
  70      -4.414     2.725     1.690     3.930    -4.369    -3.034
  71      -1.049     1.248    -0.199    -4.294     1.521    -4.252
  72       3.546    -5.112     1.566    -0.956    -4.308    -0.016
  73      -4.267     4.186     0.081     4.689     0.471     3.646
  74      -2.959     3.158    -0.199    -4.242    -1.631     3.416
  75      -2.258     3.046    -0.788     6.392    -0.785    -5.529
  76       3.945    -5.621     1.676     0.521     4.899    -0.115
  77      -4.747     3.580     1.167    -5.845     1.403    -4.705
  78      -3.214     3.655    -0.441     5.646     2.909     3.416
  79       4.898    -5.575     0.677    -0.763    -5.508    -0.468
  80      -3.668     4.846    -1.178    -5.535    -2.419     4.467
  81       5.971    -4.744    -1.227    -0.548     5.409     1.541
  82      -1.786     2.375    -0.589     5.347    -1.107    -3.824
  83      -3.746     2.403     1.343    -3.562     3.099    -5.218
  84       5.699    -6.130     0.431    -0.426    -4.032    -0.597
  85      -1.796     1.098     0.699     4.723     2.586     2.867
  86      -6.676     2.302     4.374    -4.172    -3.138     5.511
  87      -2.426     1.682     0.744     4.296    -1.608    -3.257
  88       5.527    -6.634     1.107    -1.100     3.035    -0.984
 ---------------------------------------------------------------------


 Total hyperfine coupling parameters after diagonalization (MHz)
 (convention: |A_zz| > |A_xx| > |A_yy|)
 ----------------------------------------------------------------------
  ion      A_xx      A_yy      A_zz     asymmetry (A_yy - A_xx)/ A_zz 
 ----------------------------------------------------------------------
   1       2.121     1.896     3.700      -0.061
   2       2.188     1.808     4.183      -0.091
   3       2.256     1.861     4.078      -0.097
   4      -0.291    -0.106     2.733       0.068
   5       2.653     2.133     5.148      -0.101
   6       2.178     1.776     4.385      -0.092
   7       1.999     1.562     4.120      -0.106
   8       0.241    -0.025     2.968      -0.090
   9       2.968     2.504     5.747      -0.081
  10       2.356     1.791     4.731      -0.120
  11       0.230    -0.013     2.980      -0.081
  12      -0.365    -0.131     2.591       0.091
  13       1.082     0.443     3.467      -0.184
  14       2.504     2.044     4.726      -0.097
  15       0.451     0.409     3.224      -0.013
  16       1.919     1.697     3.481      -0.064
  17      14.889    10.541    15.097      -0.288
  18      15.103    10.683    15.151      -0.292
  19      13.208     8.959    13.450      -0.316
  20      13.859     9.592    14.141      -0.302
  21      14.117     9.879    14.359      -0.295
  22      14.954    10.610    15.263      -0.285
  23      15.314    10.859    15.528      -0.287
  24      13.279     9.213    13.527      -0.301
  25      94.801    90.252    95.763      -0.048
  26      99.110    96.273   100.807      -0.028
  27      97.441    95.411    98.489      -0.021
  28      96.271    95.120    98.470      -0.012
  29      94.358    94.137    96.583      -0.002
  30      95.154    93.520    95.924      -0.017
  31      96.292    95.396    97.521      -0.009
  32      95.578    92.146    96.364      -0.036
  33     101.974    98.562   103.620      -0.033
  34      94.789    92.897    95.910      -0.020
  35      99.131    97.655   100.814      -0.015
  36      95.809    94.706    97.056      -0.011
  37      98.103    94.714    98.757      -0.034
  38     102.430   101.942   103.908      -0.005
  39      97.372    94.548    98.025      -0.029
  40      91.521    89.958    93.275      -0.017
  41       4.655     1.591    15.255      -0.201
  42       5.000     1.548    14.575      -0.237
  43       9.104     3.489    22.567      -0.249
  44       7.796     2.997    17.366      -0.276
  45       5.321     0.111    16.505      -0.316
  46       4.467     0.127    15.248      -0.285
  47       8.406     4.565    16.500      -0.233
  48       5.853     3.139    19.082      -0.142
  49       3.007    -1.554    11.959      -0.381
  50       5.539     2.740    14.548      -0.192
  51       4.330     0.786    17.847      -0.199
  52       4.572    -0.324    15.972      -0.307
  53       5.013     0.113    15.096      -0.325
  54       4.614    -3.429    14.539      -0.553
  55       5.178     0.506    16.545      -0.282
  56       5.090     0.720    15.521      -0.282
  57       6.936     1.272    15.196      -0.373
  58       7.115     3.890    18.486      -0.174
  59       5.161     0.689    15.765      -0.284
  60       6.371     0.904    14.781      -0.370
  61       0.911    -0.178    10.738      -0.101
  62       3.985     0.526    13.081      -0.264
  63       8.381     4.186    19.445      -0.216
  64       6.929     0.869    16.437      -0.369
  65       7.676     2.536    17.271      -0.298
  66       3.965     0.386    14.466      -0.247
  67       5.615    -0.520    16.031      -0.383
  68       4.749     0.372    17.237      -0.254
  69       4.811    -0.732    12.511      -0.443
  70       7.462     1.037    16.286      -0.394
  71       5.924     3.031    15.167      -0.191
  72       4.849     1.339    13.626      -0.258
  73       5.743     0.525    14.953      -0.349
  74       5.149     2.133    14.518      -0.208
  75       5.557     0.039    17.488      -0.316
  76       3.742     0.231    13.758      -0.255
  77       8.574     2.259    19.558      -0.323
  78       4.675     0.493    15.952      -0.262
  79       4.814     1.848    16.374      -0.181
  80       5.048     2.136    18.440      -0.158
  81       3.055    -0.239    14.718      -0.224
  82       6.325     2.437    16.031      -0.243
  83       2.945     0.800    15.197      -0.141
  84       7.326     2.711    16.841      -0.274
  85       7.014     3.330    15.604      -0.236
  86       8.358     2.018    20.878      -0.304
  87       4.614     0.902    12.683      -0.293
  88       8.574     2.187    16.208      -0.394
 ---------------------------------------------------------------------



--------------------------------------------------------------------------------------------------------


 stress matrix after NEB project (eV)
    -39.46927     -0.43151      7.45311
     -0.43577    -39.90396      0.28075
      7.44655      0.29527    -53.13641
  FORCES: max atom, RMS     2.969537    1.233926
  FORCE total and by dimension   11.575248    2.356310
  Stress total and by dimension   78.007491   53.136409
     LOOP+:  cpu time  763.2108: real time  777.7318
    4ORBIT:  cpu time    0.0000: real time    0.0000
 


 total charge     
 
# of ion       s       p       d       tot
------------------------------------------
    1        0.048   5.990   0.000   6.038
    2        0.045   5.986   0.000   6.031
    3        0.051   5.992   0.000   6.044
    4        0.051   5.995   0.000   6.046
    5        0.050   5.993   0.000   6.042
    6        0.048   5.990   0.000   6.038
    7        0.048   5.990   0.000   6.038
    8        0.052   5.997   0.000   6.050
    9        0.063   6.008   0.000   6.070
   10        0.053   5.995   0.000   6.048
   11        0.053   5.997   0.000   6.050
   12        0.054   5.999   0.000   6.053
   13        0.057   6.003   0.000   6.060
   14        0.052   5.994   0.000   6.045
   15        0.049   5.993   0.000   6.042
   16        0.049   5.991   0.000   6.039
   17        0.150   6.130   0.086   6.366
   18        0.146   6.123   0.081   6.349
   19        0.151   6.131   0.086   6.367
   20        0.152   6.133   0.087   6.372
   21        0.145   6.123   0.080   6.347
   22        0.150   6.131   0.087   6.368
   23        0.151   6.131   0.086   6.368
   24        0.140   6.112   0.070   6.322
   25        0.371   6.440   4.820  11.631
   26        0.370   6.444   4.829  11.643
   27        0.380   6.467   4.847  11.694
   28        0.377   6.458   4.838  11.673
   29        0.396   6.498   4.879  11.773
   30        0.368   6.436   4.806  11.610
   31        0.373   6.448   4.832  11.653
   32        0.396   6.495   4.875  11.765
   33        0.384   6.476   4.862  11.722
   34        0.393   6.491   4.869  11.752
   35        0.362   6.423   4.801  11.585
   36        0.373   6.447   4.822  11.641
   37        0.376   6.452   4.828  11.655
   38        0.377   6.460   4.840  11.677
   39        0.380   6.463   4.837  11.680
   40        0.397   6.504   4.890  11.792
   41        1.597   3.484   0.000   5.081
   42        1.597   3.490   0.000   5.087
   43        1.605   3.523   0.000   5.127
   44        1.600   3.512   0.000   5.112
   45        1.602   3.507   0.000   5.109
   46        1.600   3.492   0.000   5.092
   47        1.597   3.506   0.000   5.103
   48        1.603   3.533   0.000   5.136
   49        1.600   3.517   0.000   5.117
   50        1.597   3.512   0.000   5.109
   51        1.602   3.506   0.000   5.108
   52        1.601   3.475   0.000   5.076
   53        1.598   3.525   0.000   5.123
   54        1.601   3.450   0.000   5.051
   55        1.597   3.456   0.000   5.053
   56        1.598   3.489   0.000   5.086
   57        1.599   3.528   0.000   5.127
   58        1.603   3.556   0.000   5.159
   59        1.600   3.532   0.000   5.132
   60        1.598   3.505   0.000   5.103
   61        1.593   3.493   0.000   5.086
   62        1.596   3.523   0.000   5.119
   63        1.606   3.524   0.000   5.130
   64        1.597   3.478   0.000   5.075
   65        1.602   3.525   0.000   5.127
   66        1.597   3.518   0.000   5.115
   67        1.599   3.515   0.000   5.114
   68        1.600   3.494   0.000   5.094
   69        1.596   3.510   0.000   5.106
   70        1.599   3.503   0.000   5.102
   71        1.600   3.521   0.000   5.121
   72        1.595   3.524   0.000   5.119
   73        1.598   3.487   0.000   5.085
   74        1.596   3.508   0.000   5.104
   75        1.601   3.499   0.000   5.100
   76        1.599   3.521   0.000   5.120
   77        1.604   3.513   0.000   5.117
   78        1.599   3.493   0.000   5.092
   79        1.599   3.489   0.000   5.089
   80        1.599   3.496   0.000   5.095
   81        1.600   3.459   0.000   5.059
   82        1.598   3.493   0.000   5.090
   83        1.598   3.515   0.000   5.113
   84        1.602   3.536   0.000   5.138
   85        1.600   3.560   0.000   5.160
   86        1.606   3.544   0.000   5.150
   87        1.594   3.520   0.000   5.114
   88        1.598   3.521   0.000   5.119
--------------------------------------------------
tot         84.844 416.705  78.137 579.685
 


 magnetization (x)
 
# of ion       s       p       d       tot
------------------------------------------
    1        0.002   0.001   0.000   0.002
    2        0.002   0.000   0.000   0.003
    3        0.002   0.000   0.000   0.002
    4        0.001   0.000   0.000   0.001
    5        0.002   0.000   0.000   0.003
    6        0.002   0.000   0.000   0.002
    7        0.002   0.000   0.000   0.002
    8        0.001   0.000   0.000   0.001
    9        0.003   0.001   0.000   0.003
   10        0.002   0.000   0.000   0.002
   11        0.001   0.000   0.000   0.001
   12        0.001   0.000   0.000   0.001
   13        0.001   0.000   0.000   0.001
   14        0.002   0.000   0.000   0.003
   15        0.001   0.001   0.000   0.002
   16        0.002   0.000   0.000   0.002
   17        0.008   0.003   0.001   0.012
   18        0.008   0.003   0.001   0.012
   19        0.006   0.002   0.001   0.010
   20        0.007   0.002   0.001   0.010
   21        0.007   0.002   0.001   0.010
   22        0.008   0.003   0.001   0.012
   23        0.008   0.003   0.001   0.012
   24        0.007   0.001   0.001   0.009
   25        0.014   0.028   2.769   2.811
   26        0.016   0.029   2.770   2.815
   27        0.016   0.030   2.746   2.792
   28        0.016   0.031   2.743   2.790
   29        0.014   0.031   2.706   2.751
   30        0.015   0.029   2.775   2.819
   31        0.015   0.031   2.748   2.794
   32        0.015   0.031   2.712   2.758
   33        0.017   0.031   2.735   2.784
   34        0.015   0.031   2.719   2.765
   35        0.016   0.029   2.793   2.837
   36        0.015   0.029   2.762   2.807
   37        0.016   0.030   2.752   2.798
   38        0.017   0.032   2.751   2.801
   39        0.016   0.031   2.748   2.794
   40        0.014   0.030   2.691   2.735
   41        0.002   0.024   0.000   0.026
   42        0.002   0.027   0.000   0.029
   43        0.003   0.072   0.000   0.074
   44        0.002   0.046   0.000   0.048
   45        0.002   0.029   0.000   0.031
   46        0.002   0.030   0.000   0.032
   47        0.002   0.047   0.000   0.049
   48        0.002   0.044   0.000   0.047
   49        0.001   0.012   0.000   0.013
   50        0.002   0.033   0.000   0.035
   51        0.002   0.032   0.000   0.034
   52        0.002   0.015   0.000   0.017
   53        0.002   0.037   0.000   0.039
   54        0.002   0.010   0.000   0.012
   55        0.002   0.022   0.000   0.025
   56        0.002   0.025   0.000   0.027
   57        0.002   0.042   0.000   0.044
   58        0.002   0.065   0.000   0.068
   59        0.002   0.043   0.000   0.044
   60        0.002   0.031   0.000   0.033
   61        0.001   0.003   0.000   0.004
   62        0.002   0.029   0.000   0.031
   63        0.003   0.054   0.000   0.057
   64        0.002   0.036   0.000   0.038
   65        0.002   0.055   0.000   0.057
   66        0.002   0.031   0.000   0.033
   67        0.002   0.043   0.000   0.045
   68        0.002   0.028   0.000   0.030
   69        0.002   0.019   0.000   0.021
   70        0.002   0.040   0.000   0.042
   71        0.002   0.029   0.000   0.032
   72        0.002   0.034   0.000   0.036
   73        0.002   0.031   0.000   0.032
   74        0.002   0.037   0.000   0.038
   75        0.002   0.036   0.000   0.038
   76        0.002   0.024   0.000   0.025
   77        0.003   0.054   0.000   0.057
   78        0.002   0.028   0.000   0.030
   79        0.002   0.027   0.000   0.029
   80        0.002   0.040   0.000   0.042
   81        0.002   0.009   0.000   0.011
   82        0.002   0.039   0.000   0.041
   83        0.002   0.026   0.000   0.028
   84        0.002   0.051   0.000   0.054
   85        0.002   0.049   0.000   0.051
   86        0.002   0.074   0.000   0.076
   87        0.002   0.020   0.000   0.022
   88        0.002   0.059   0.000   0.061
--------------------------------------------------
tot          0.424   2.203  43.932  46.559
 

 total amount of memory used by VASP MPI-rank0    94426. kBytes
=======================================================================

   base      :      30000. kBytes
   nonlr-proj:      13667. kBytes
   fftplans  :       1275. kBytes
   grid      :      22786. kBytes
   one-center:       2737. kBytes
   wavefun   :      23961. kBytes
 
  
  
 General timing and accounting informations for this job:
 ========================================================
  
                  Total CPU time used (sec):      784.265
                            User time (sec):      775.927
                          System time (sec):        8.338
                         Elapsed time (sec):      802.454
  
                   Maximum memory used (kb):      193696.
                   Average memory used (kb):           0.
  
                          Minor page faults:       306137
                          Major page faults:            0
                 Voluntary context switches:       257889
