 vasp.5.4.4.18Apr17-6-g9f103f2a35 (build Dec 02 2020 12:53:39) complex          
  
 executed on             LinuxIFC date 2021.07.31  08:25:24
 running on   64 total cores
 distrk:  each k-point on   64 cores,    1 groups
 distr:  one band on NCORES_PER_BAND=   1 cores,   64 groups


--------------------------------------------------------------------------------------------------------


 INCAR:
 POTCAR:    PAW_PBE Na_pv 19Sep2006               
 POTCAR:    PAW_PBE Mg_pv 13Apr2007               
 POTCAR:    PAW_PBE Mn_pv 02Aug2007               
 POTCAR:    PAW_PBE O 08Apr2002                   

 ----------------------------------------------------------------------------- 
|                                                                             |
|           W    W    AA    RRRRR   N    N  II  N    N   GGGG   !!!           |
|           W    W   A  A   R    R  NN   N  II  NN   N  G    G  !!!           |
|           W    W  A    A  R    R  N N  N  II  N N  N  G       !!!           |
|           W WW W  AAAAAA  RRRRR   N  N N  II  N  N N  G  GGG   !            |
|           WW  WW  A    A  R   R   N   NN  II  N   NN  G    G                |
|           W    W  A    A  R    R  N    N  II  N    N   GGGG   !!!           |
|                                                                             |
|      For optimal performance we recommend to set                            |
|        NCORE= 4 - approx SQRT( number of cores)                             |
|      NCORE specifies how many cores store one orbital (NPAR=cpu/NCORE).     |
|      This setting can  greatly improve the performance of VASP for DFT.     |
|      The default,   NCORE=1            might be grossly inefficient         |
|      on modern multi-core architectures or massively parallel machines.     |
|      Do your own testing !!!!                                               |
|      Unfortunately you need to use the default for GW and RPA calculations. |
|      (for HF NCORE is supported but not extensively tested yet)             |
|                                                                             |
 ----------------------------------------------------------------------------- 

 POTCAR:    PAW_PBE Na_pv 19Sep2006               
   VRHFIN =Na: p6s1                                                             
   LEXCH  = PE                                                                  
   EATOM  =   766.0439 eV,   56.3026 Ry                                         
                                                                                
   TITEL  = PAW_PBE Na_pv 19Sep2006                                             
   LULTRA =        F    use ultrasoft PP ?                                      
   IUNSCR =        1    unscreen: 0-lin 1-nonlin 2-no                           
   RPACOR =    1.800    partial core radius                                     
   POMASS =   22.990; ZVAL   =    7.000    mass and valenz                      
   RCORE  =    2.200    outmost cutoff radius                                   
   RWIGS  =    2.200; RWIGS  =    1.164    wigner-seitz radius (au A)           
   ENMAX  =  259.561; ENMIN  =  194.671 eV                                      
   ICORE  =        2    local potential                                         
   LCOR   =        T    correct aug charges                                     
   LPAW   =        T    paw PP                                                  
   EAUG   =  368.056                                                            
   DEXC   =    0.000                                                            
   RMAX   =    2.245    core radius for proj-oper                               
   RAUG   =    1.300    factor for augmentation sphere                          
   RDEP   =    2.259    radius for radial grids                                 
   RDEPT  =    1.738    core radius for aug-charge                              
                                                                                
   Atomic configuration                                                         
    5 entries                                                                   
     n  l   j            E        occ.                                          
     1  0  0.50     -1033.6933   2.0000                                         
     2  0  0.50       -56.7526   2.0000                                         
     2  1  1.50       -28.6721   6.0000                                         
     3  0  0.50        -2.7440   1.0000                                         
     3  2  1.50        -1.3606   0.0000                                         
   Description                                                                  
     l       E           TYP  RCUT    TYP  RCUT                                 
     1    -28.6720912     23  2.000                                             
     1      6.8029130     23  2.000                                             
     0     -2.7439560     23  2.200                                             
     0     34.0145650     23  2.200                                             
     2     -1.3605826     23  2.200                                             
  local pseudopotential read in
  partial core-charges read in
  partial kinetic energy density read in
  atomic valenz-charges read in
  non local Contribution for L=           1  read in
    real space projection operators read in
  non local Contribution for L=           1  read in
    real space projection operators read in
  non local Contribution for L=           0  read in
    real space projection operators read in
  non local Contribution for L=           0  read in
    real space projection operators read in
    PAW grid and wavefunctions read in
 
   number of l-projection  operators is LMAX  =           4
   number of lm-projection operators is LMMAX =           8
 
 POTCAR:    PAW_PBE Mg_pv 13Apr2007               
   VRHFIN =Mg: p6s2                                                             
   LEXCH  = PE                                                                  
   EATOM  =  1056.7344 eV,   77.6678 Ry                                         
                                                                                
   TITEL  = PAW_PBE Mg_pv 13Apr2007                                             
   LULTRA =        F    use ultrasoft PP ?                                      
   IUNSCR =        1    unscreen: 0-lin 1-nonlin 2-no                           
   RPACOR =    1.500    partial core radius                                     
   POMASS =   24.305; ZVAL   =    8.000    mass and valenz                      
   RCORE  =    2.000    outmost cutoff radius                                   
   RWIGS  =    2.000; RWIGS  =    1.058    wigner-seitz radius (au A)           
   ENMAX  =  403.929; ENMIN  =  302.947 eV                                      
   RCLOC  =    1.506    cutoff for local pot                                    
   LCOR   =        T    correct aug charges                                     
   LPAW   =        T    paw PP                                                  
   EAUG   =  758.780                                                            
   DEXC   =    0.000                                                            
   RMAX   =    2.045    core radius for proj-oper                               
   RAUG   =    1.300    factor for augmentation sphere                          
   RDEP   =    2.025    radius for radial grids                                 
   RDEPT  =    1.557    core radius for aug-charge                              
                                                                                
   Atomic configuration                                                         
    5 entries                                                                   
     n  l   j            E        occ.                                          
     1  0  0.50     -1259.6230   2.0000                                         
     2  0  0.50       -79.8442   2.0000                                         
     2  1  1.50       -46.6121   6.0000                                         
     3  0  0.50        -4.7055   2.0000                                         
     3  2  1.50        -1.3606   0.0000                                         
   Description                                                                  
     l       E           TYP  RCUT    TYP  RCUT                                 
     1    -46.6121073     23  1.600                                             
     1      2.7211652     23  1.600                                             
     0     -4.7054661     23  2.000                                             
     0     61.2262170     23  2.000                                             
     2     -1.3605826     23  2.000                                             
  local pseudopotential read in
  partial core-charges read in
  partial kinetic energy density read in
  atomic valenz-charges read in
  non local Contribution for L=           1  read in
    real space projection operators read in
  non local Contribution for L=           1  read in
    real space projection operators read in
  non local Contribution for L=           0  read in
    real space projection operators read in
  non local Contribution for L=           0  read in
    real space projection operators read in
  non local Contribution for L=           2  read in
    real space projection operators read in
    PAW grid and wavefunctions read in
 
   number of l-projection  operators is LMAX  =           5
   number of lm-projection operators is LMMAX =          13
 
 POTCAR:    PAW_PBE Mn_pv 02Aug2007               
   VRHFIN =Mn: 3p4s3d                                                           
   LEXCH  = PE                                                                  
   EATOM  =  2025.2664 eV,  148.8529 Ry                                         
                                                                                
   TITEL  = PAW_PBE Mn_pv 02Aug2007                                             
   LULTRA =        F    use ultrasoft PP ?                                      
   IUNSCR =        1    unscreen: 0-lin 1-nonlin 2-no                           
   RPACOR =    2.080    partial core radius                                     
   POMASS =   54.938; ZVAL   =   13.000    mass and valenz                      
   RCORE  =    2.300    outmost cutoff radius                                   
   RWIGS  =    2.500; RWIGS  =    1.323    wigner-seitz radius (au A)           
   ENMAX  =  269.864; ENMIN  =  202.398 eV                                      
   ICORE  =        3    local potential                                         
   LCOR   =        T    correct aug charges                                     
   LPAW   =        T    paw PP                                                  
   EAUG   =  569.085                                                            
   DEXC   =    0.000                                                            
   RMAX   =    2.343    core radius for proj-oper                               
   RAUG   =    1.300    factor for augmentation sphere                          
   RDEP   =    2.338    radius for radial grids                                 
   RDEPT  =    1.798    core radius for aug-charge                              
                                                                                
   Atomic configuration                                                         
    8 entries                                                                   
     n  l   j            E        occ.                                          
     1  0  0.50     -6424.8287   2.0000                                         
     2  0  0.50      -739.1154   2.0000                                         
     2  1  1.50      -625.3949   6.0000                                         
     3  0  0.50       -81.6100   2.0000                                         
     3  1  1.50       -50.4667   6.0000                                         
     3  2  2.50        -3.3745   6.0000                                         
     4  0  0.50        -4.1331   1.0000                                         
     4  3  2.50        -1.3606   0.0000                                         
   Description                                                                  
     l       E           TYP  RCUT    TYP  RCUT                                 
     1    -50.4666628     23  2.000                                             
     1     -1.3605826     23  2.000                                             
     2     -3.3744729     23  2.300                                             
     2     -4.7350555     23  2.300                                             
     0     -4.1331431     23  2.300                                             
     0      7.6656591     23  2.300                                             
     3      9.5240782     23  2.300                                             
  local pseudopotential read in
  partial core-charges read in
  partial kinetic energy density read in
  atomic valenz-charges read in
  non local Contribution for L=           1  read in
    real space projection operators read in
  non local Contribution for L=           1  read in
    real space projection operators read in
  non local Contribution for L=           2  read in
    real space projection operators read in
  non local Contribution for L=           2  read in
    real space projection operators read in
  non local Contribution for L=           0  read in
    real space projection operators read in
  non local Contribution for L=           0  read in
    real space projection operators read in
    PAW grid and wavefunctions read in
 
   number of l-projection  operators is LMAX  =           6
   number of lm-projection operators is LMMAX =          18
 
 POTCAR:    PAW_PBE O 08Apr2002                   
   VRHFIN =O: s2p4                                                              
   LEXCH  = PE                                                                  
   EATOM  =   432.3788 eV,   31.7789 Ry                                         
                                                                                
   TITEL  = PAW_PBE O 08Apr2002                                                 
   LULTRA =        F    use ultrasoft PP ?                                      
   IUNSCR =        1    unscreen: 0-lin 1-nonlin 2-no                           
   RPACOR =    1.200    partial core radius                                     
   POMASS =   16.000; ZVAL   =    6.000    mass and valenz                      
   RCORE  =    1.520    outmost cutoff radius                                   
   RWIGS  =    1.550; RWIGS  =    0.820    wigner-seitz radius (au A)           
   ENMAX  =  400.000; ENMIN  =  300.000 eV                                      
   ICORE  =        2    local potential                                         
   LCOR   =        T    correct aug charges                                     
   LPAW   =        T    paw PP                                                  
   EAUG   =  605.392                                                            
   DEXC   =    0.000                                                            
   RMAX   =    1.553    core radius for proj-oper                               
   RAUG   =    1.300    factor for augmentation sphere                          
   RDEP   =    1.550    radius for radial grids                                 
   RDEPT  =    1.329    core radius for aug-charge                              
                                                                                
   Atomic configuration                                                         
    4 entries                                                                   
     n  l   j            E        occ.                                          
     1  0  0.50      -514.6923   2.0000                                         
     2  0  0.50       -23.9615   2.0000                                         
     2  1  0.50        -9.0305   4.0000                                         
     3  2  1.50        -9.5241   0.0000                                         
   Description                                                                  
     l       E           TYP  RCUT    TYP  RCUT                                 
     0    -23.9615318     23  1.200                                             
     0     -9.5240782     23  1.200                                             
     1     -9.0304911     23  1.520                                             
     1      8.1634956     23  1.520                                             
     2     -9.5240782      7  1.500                                             
  local pseudopotential read in
  partial core-charges read in
  partial kinetic energy density read in
  kinetic energy density of atom read in
  atomic valenz-charges read in
  non local Contribution for L=           0  read in
    real space projection operators read in
  non local Contribution for L=           0  read in
    real space projection operators read in
  non local Contribution for L=           1  read in
    real space projection operators read in
  non local Contribution for L=           1  read in
    real space projection operators read in
    PAW grid and wavefunctions read in
 
   number of l-projection  operators is LMAX  =           4
   number of lm-projection operators is LMMAX =           8
 
 Optimization of the real space projectors (new method)

 maximal supplied QI-value         = 17.01
 optimisation between [QCUT,QGAM] = [ 10.20, 20.41] = [ 29.16,116.64] Ry 
 Optimized for a Real-space Cutoff    1.30 Angstroem

   l    n(q)    QCUT    max X(q) W(low)/X(q) W(high)/X(q)  e(spline) 
   1      7    10.205     4.940    0.23E-03    0.84E-03    0.11E-06
   1      7    10.205     6.253    0.40E-03    0.13E-02    0.18E-06
   0      8    10.205    37.438    0.23E-03    0.37E-03    0.42E-07
   0      8    10.205     9.606    0.16E-03    0.26E-03    0.31E-07
 Optimization of the real space projectors (new method)

 maximal supplied QI-value         = 18.90
 optimisation between [QCUT,QGAM] = [ 10.20, 20.41] = [ 29.16,116.64] Ry 
 Optimized for a Real-space Cutoff    1.26 Angstroem

   l    n(q)    QCUT    max X(q) W(low)/X(q) W(high)/X(q)  e(spline) 
   1      7    10.205     2.974    0.63E-04    0.14E-03    0.13E-06
   1      7    10.205     4.279    0.11E-03    0.45E-03    0.24E-06
   0      8    10.205    16.381    0.44E-03    0.15E-03    0.55E-07
   0      8    10.205     5.611    0.31E-03    0.11E-03    0.40E-07
   2      7    10.205     4.652    0.50E-03    0.47E-03    0.57E-07
 Optimization of the real space projectors (new method)

 maximal supplied QI-value         = 16.25
 optimisation between [QCUT,QGAM] = [ 10.24, 20.48] = [ 29.35,117.42] Ry 
 Optimized for a Real-space Cutoff    1.34 Angstroem

   l    n(q)    QCUT    max X(q) W(low)/X(q) W(high)/X(q)  e(spline) 
   1      8    10.239     3.658    0.23E-03    0.30E-03    0.98E-07
   1      8    10.239     5.612    0.32E-03    0.65E-03    0.21E-06
   2      7    10.239    55.373    0.42E-03    0.45E-03    0.65E-07
   2      7    10.239    50.863    0.43E-03    0.48E-03    0.67E-07
   0      8    10.239    79.536    0.11E-03    0.21E-03    0.56E-07
   0      8    10.239    38.668    0.96E-04    0.19E-03    0.52E-07
 Optimization of the real space projectors (new method)

 maximal supplied QI-value         = 24.76
 optimisation between [QCUT,QGAM] = [ 10.15, 20.30] = [ 28.85,115.39] Ry 
 Optimized for a Real-space Cutoff    1.38 Angstroem

   l    n(q)    QCUT    max X(q) W(low)/X(q) W(high)/X(q)  e(spline) 
   0      8    10.150    20.381    0.22E-03    0.32E-03    0.29E-06
   0      8    10.150    15.268    0.23E-03    0.35E-03    0.30E-06
   1      8    10.150     5.964    0.46E-03    0.53E-03    0.21E-06
   1      8    10.150     5.382    0.38E-03    0.45E-03    0.19E-06
  PAW_PBE Na_pv 19Sep2006               :
 energy of atom  1       EATOM= -766.0439
 kinetic energy error for atom=    0.0103 (will be added to EATOM!!)
  PAW_PBE Mg_pv 13Apr2007               :
 energy of atom  2       EATOM=-1056.7344
 kinetic energy error for atom=    0.0820 (will be added to EATOM!!)
  PAW_PBE Mn_pv 02Aug2007               :
 energy of atom  3       EATOM=-2025.2664
 kinetic energy error for atom=    0.0284 (will be added to EATOM!!)
  PAW_PBE O 08Apr2002                   :
 energy of atom  4       EATOM= -432.3788
 kinetic energy error for atom=    0.1156 (will be added to EATOM!!)
 
 
 POSCAR: Na Mg Mn  O                             
  positions in cartesian coordinates
  No initial velocities read in

 METAGGA = SCAN     LMAXTAU =  6    LMIXTAU =  F

 exchange correlation table for  LEXCH =        8
   RHO(1)=    0.500       N(1)  =     2000
   RHO(2)=  100.500       N(2)  =     4000

 VTST: version 3.2, (02/03/18)

 CHAIN: initializing optimizer
 
 OPT: Using VASP Dynamics algorithm
 CHAIN: Read ICHAIN            0
 
 POSCAR: Na Mg Mn  O                             
  positions in cartesian coordinates
  No initial velocities read in
 


--------------------------------------------------------------------------------------------------------


 ion  position               nearest neighbor table
   1  0.339  0.167  0.241-  43 2.21  51 2.28  52 2.34  42 2.35  26 2.89
   2  0.088  0.176  0.754-  45 2.25  47 2.32
   3  0.365  0.977  0.736-  46 2.17  81 2.28  84 2.37  31 2.81  29 2.95
   4  0.449  0.320  0.751-  49 2.29  68 2.32
   5  0.868  0.683  0.255-  76 2.10  67 2.29  75 2.35
   6  0.586  0.958  0.254-  88 2.26  79 2.38
   7  0.756  0.123  0.742-  58 2.18  61 2.35  59 2.36  56 2.37  32 2.80  30 2.94
   8  0.244  0.631  0.752-  82 2.30  85 2.31  80 2.32  83 2.34  38 2.91  40 2.95
   9  0.734  0.316  0.262-  62 2.23  75 2.31  64 2.37
  10  0.096  0.452  0.257-  87 2.20  64 2.28  78 2.34
  11  0.431  0.532  0.264-  74 2.21  87 2.24  65 2.32  35 2.82  33 2.96
  12  0.562  0.661  0.753-  82 2.30  85 2.35  71 2.38
  13  0.933  0.817  0.760-  73 2.26  72 2.38
  14  0.858  0.489  0.757-  60 2.19  73 2.27  70 2.30  37 2.81
  15  0.957  0.034  0.258-  50 2.13  41 2.24  27 2.86  25 2.93
  16  0.250  0.817  0.245-  79 2.30  88 2.37  77 2.37
  17  0.587  0.322  0.002-  53 1.94  66 2.03  43 2.04  60 2.08  49 2.10  71 2.17  37 2.78  30 2.82
                            34 2.84  26 2.86
  18  0.602  0.327  0.500-  57 1.95  75 1.98  52 2.07  62 2.11  68 2.12  46 2.13  36 2.78  39 2.82

  19  0.082  0.327  0.002-  78 1.97  83 2.03  61 2.05  55 2.12  48 2.15  41 2.17  33 2.85
  20  0.087  0.316  0.504-  87 1.99  50 2.02  80 2.04  45 2.08  58 2.08  64 2.10  40 2.84  39 2.85

  21  0.090  0.831  0.985-  73 1.94  42 2.02  84 2.05  47 2.06  67 2.11  77 2.20  26 2.84
  22  0.077  0.806  0.498-  70 1.96  81 2.02  44 2.06  76 2.07  86 2.14  51 2.22  39 2.81  36 2.83

  23  0.587  0.825  0.002-  79 2.05  72 2.07  65 2.08  54 2.09  59 2.13  85 2.20
  24  0.586  0.817  0.502-  56 1.95  63 1.99  74 2.02  88 2.09  82 2.15  69 2.16  32 2.85
  25  0.922  0.995  0.999-  67 1.88  61 1.90  41 1.91  72 1.94  54 1.96  47 1.97  30 2.91  26 2.92
                            15 2.93  34 3.01
  26  0.259  0.158  0.992-  48 1.89  47 1.90  49 1.91  42 1.91  43 1.93  41 1.94  21 2.84  17 2.86
                            29 2.86  33 2.88   1 2.89  25 2.92
  27  0.921  0.984  0.510-  50 1.88  58 1.89  69 1.94  63 1.95  76 1.96  44 1.97  28 2.83  15 2.86
                            32 2.87  36 2.92
  28  0.247  0.141  0.508-  44 1.88  51 1.92  46 1.92  50 1.92  45 1.94  52 1.96  27 2.83  31 2.88
                            35 2.92
  29  0.421  0.991  0.995-  42 1.82  59 1.88  53 1.94  49 1.94  79 2.00  84 2.02  30 2.84  26 2.86
                            38 2.88   3 2.95
  30  0.748  0.157  0.002-  54 1.89  53 1.92  61 1.93  60 1.93  55 1.93  59 1.96  17 2.82  29 2.84
                            37 2.88  25 2.91   7 2.94
  31  0.423  0.985  0.490-  81 1.89  46 1.91  56 1.92  62 1.94  51 1.96  88 2.02   3 2.81  32 2.87
                            28 2.88  40 2.96
  32  0.753  0.145  0.494-  62 1.85  58 1.87  63 1.95  56 1.96  64 1.97  57 1.99   7 2.80  24 2.85
                            27 2.87  31 2.87  39 2.93
  33  0.410  0.489  0.002-  85 1.84  65 1.85  48 1.85  78 1.86  43 1.89  71 1.96  19 2.85  38 2.86
                            34 2.88  26 2.88  11 2.96
  34  0.742  0.649  0.996-  71 1.85  66 1.94  65 1.95  73 1.95  72 2.03  67 2.07  37 2.83  17 2.84
                            33 2.88  25 3.01
  35  0.422  0.477  0.511-  74 1.87  68 1.88  52 1.92  82 1.96  45 2.02  87 2.08  11 2.82  36 2.86
                            40 2.91  28 2.92
  36  0.752  0.647  0.513-  70 1.85  68 1.87  69 1.90  76 1.93  74 1.94  75 2.01  18 2.78  22 2.83
                            35 2.86  27 2.92  39 2.95
  37  0.908  0.489  0.003-  55 1.84  66 1.87  60 1.92  83 1.95  73 1.96  77 1.97  17 2.78  14 2.81
                            34 2.83  30 2.88  38 2.98
  38  0.251  0.659  0.010-  79 1.89  84 1.90  77 1.91  85 1.94  78 1.95  83 2.00  33 2.86  29 2.88
                             8 2.91  37 2.98
  39  0.926  0.483  0.490-  75 1.91  64 1.93  86 1.94  80 1.94  57 1.94  70 1.96  22 2.81  18 2.82
                            20 2.85  40 2.85  32 2.93  36 2.95
  40  0.254  0.644  0.489-  80 1.85  87 1.90  86 1.93  88 1.94  82 1.95  81 1.95  20 2.84  39 2.85
                            35 2.91   8 2.95  31 2.96
  41  0.093  0.141  0.092-  25 1.91  26 1.94  19 2.17  15 2.24
  42  0.269  0.998  0.078-  29 1.82  26 1.91  21 2.02   1 2.35
  43  0.410  0.327  0.088-  33 1.89  26 1.93  17 2.04   1 2.21
  44  0.090  0.985  0.599-  28 1.88  27 1.97  22 2.06
  45  0.254  0.303  0.606-  28 1.94  35 2.02  20 2.08   2 2.25
  46  0.414  0.136  0.588-  31 1.91  28 1.92  18 2.13   3 2.17
  47  0.091  0.012  0.899-  26 1.90  25 1.97  21 2.06   2 2.32
  48  0.269  0.328  0.909-  33 1.85  26 1.89  19 2.15
  49  0.412  0.148  0.899-  26 1.91  29 1.94  17 2.10   4 2.29
  50  0.082  0.137  0.418-  27 1.88  28 1.92  20 2.02  15 2.13
  51  0.265  0.002  0.399-  28 1.92  31 1.96  22 2.22   1 2.28
  52  0.410  0.312  0.417-  35 1.92  28 1.96  18 2.07   1 2.34
  53  0.582  0.152  0.090-  30 1.92  29 1.94  17 1.94
  54  0.765  0.009  0.094-  30 1.89  25 1.96  23 2.09
  55  0.898  0.331  0.094-  37 1.84  30 1.93  19 2.12
  56  0.581  0.985  0.586-  31 1.92  24 1.95  32 1.96   7 2.37
  57  0.767  0.321  0.587-  39 1.94  18 1.95  32 1.99
  58  0.900  0.137  0.592-  32 1.87  27 1.89  20 2.08   7 2.18
  59  0.582  0.003  0.902-  29 1.88  30 1.96  23 2.13   7 2.36
  60  0.764  0.323  0.903-  37 1.92  30 1.93  17 2.08  14 2.19
  61  0.907  0.149  0.910-  25 1.90  30 1.93  19 2.05   7 2.35
  62  0.598  0.145  0.403-  32 1.85  31 1.94  18 2.11   9 2.23
  63  0.761  0.980  0.409-  27 1.95  32 1.95  24 1.99
  64  0.914  0.314  0.398-  39 1.93  32 1.97  20 2.10  10 2.28   9 2.37
  65  0.573  0.636  0.091-  33 1.85  34 1.95  23 2.08  11 2.32
  66  0.757  0.498  0.095-  37 1.87  34 1.94  17 2.03
  67  0.915  0.833  0.089-  25 1.88  34 2.07  21 2.11   5 2.29
  68  0.588  0.497  0.602-  36 1.87  35 1.88  18 2.12   4 2.32
  69  0.769  0.814  0.604-  36 1.90  27 1.94  24 2.16
  70  0.911  0.637  0.588-  36 1.85  22 1.96  39 1.96  14 2.30
  71  0.579  0.505  0.905-  34 1.85  33 1.96  17 2.17  12 2.38
  72  0.764  0.832  0.902-  25 1.94  34 2.03  23 2.07  13 2.38
  73  0.915  0.658  0.909-  21 1.94  34 1.95  37 1.96  13 2.26  14 2.27
  74  0.581  0.633  0.422-  35 1.87  36 1.94  24 2.02  11 2.21
  75  0.766  0.495  0.405-  39 1.91  18 1.98  36 2.01   9 2.31   5 2.35
  76  0.897  0.811  0.412-  36 1.93  27 1.96  22 2.07   5 2.10
  77  0.081  0.646  0.097-  38 1.91  37 1.97  21 2.20  16 2.37
  78  0.255  0.490  0.093-  33 1.86  38 1.95  19 1.97  10 2.34
  79  0.412  0.823  0.096-  38 1.89  29 2.00  23 2.05  16 2.30   6 2.38
  80  0.096  0.504  0.585-  40 1.85  39 1.94  20 2.04   8 2.32
  81  0.265  0.818  0.575-  31 1.89  40 1.95  22 2.02   3 2.28
  82  0.399  0.634  0.599-  40 1.95  35 1.96  24 2.15  12 2.30   8 2.30
  83  0.078  0.500  0.911-  37 1.95  38 2.00  19 2.03   8 2.34
  84  0.259  0.809  0.901-  38 1.90  29 2.02  21 2.05   3 2.37
  85  0.393  0.632  0.909-  33 1.84  38 1.94  23 2.20   8 2.31  12 2.35
  86  0.091  0.636  0.392-  40 1.93  39 1.94  22 2.14
  87  0.253  0.479  0.404-  40 1.90  20 1.99  35 2.08  10 2.20  11 2.24
  88  0.413  0.810  0.394-  40 1.94  31 2.02  24 2.09   6 2.26  16 2.37
 
  LATTYP: Found a hexagonal cell.
 ALAT       =    10.0190000534
 C/A-ratio  =     1.1196726572
  
  Lattice vectors:
  
 A1 = (  10.0190000534,   0.0000000000,   0.0000000000)
 A2 = (  -5.0095000267,   8.6767085668,   0.0000000000)
 A3 = (   0.0000000000,   0.0000000000,  11.2180004120)


Analysis of symmetry for initial positions (statically):
=====================================================================
 Subroutine PRICEL returns:
 Original cell was already a primitive cell.
 

 Routine SETGRP: Setting up the symmetry group for a 
 hexagonal supercell.


 Subroutine GETGRP returns: Found  1 space group operations
 (whereof  1 operations were pure point group operations)
 out of a pool of 24 trial point group operations.


The static configuration has the point symmetry C_1 .


Analysis of symmetry for dynamics (positions and initial velocities):
=====================================================================
 Subroutine PRICEL returns:
 Original cell was already a primitive cell.
 

 Routine SETGRP: Setting up the symmetry group for a 
 hexagonal supercell.


 Subroutine GETGRP returns: Found  1 space group operations
 (whereof  1 operations were pure point group operations)
 out of a pool of 24 trial point group operations.


The dynamic configuration has the point symmetry C_1 .


Analysis of structural, dynamic, and magnetic symmetry:
=====================================================================
 Subroutine PRICEL returns:
 Original cell was already a primitive cell.
 

 Routine SETGRP: Setting up the symmetry group for a 
 hexagonal supercell.


 Subroutine GETGRP returns: Found  1 space group operations
 (whereof  1 operations were pure point group operations)
 out of a pool of 24 trial point group operations.


The magnetic configuration has the point symmetry C_1 .


 Subroutine INISYM returns: Found  1 space group operations
 (whereof  1 operations are pure point group operations),
 and found     1 'primitive' translations

 
 

Automatic generation of k-mesh.
 generate k-points for:    2    2    2
Space group operators:
 irot       det(A)        alpha          n_x          n_y          n_z        tau_x        tau_y        tau_z
    1     1.000000     0.000000     1.000000     0.000000     0.000000     0.000000     0.000000     0.000000
 
 Subroutine IBZKPT returns following result:
 ===========================================
 
 Found      8 irreducible k-points:
 
 Following reciprocal coordinates:
            Coordinates               Weight
  0.000000  0.000000  0.000000      1.000000
  0.500000 -0.000000 -0.000000      1.000000
  0.000000  0.500000  0.000000      1.000000
  0.500000  0.500000 -0.000000      1.000000
  0.000000  0.000000  0.500000      1.000000
  0.500000 -0.000000  0.500000      1.000000
  0.000000  0.500000  0.500000      1.000000
  0.500000  0.500000  0.500000      1.000000
 
 Following cartesian coordinates:
            Coordinates               Weight
  0.000000  0.000000  0.000000      1.000000
  0.049905  0.028813 -0.000000      1.000000
  0.000000  0.057626  0.000000      1.000000
  0.049905  0.086438 -0.000000      1.000000
  0.000000  0.000000  0.044571      1.000000
  0.049905  0.028813  0.044571      1.000000
  0.000000  0.057626  0.044571      1.000000
  0.049905  0.086438  0.044571      1.000000
 


--------------------------------------------------------------------------------------------------------




 Dimension of arrays:
   k-points           NKPTS =      8   k-points in BZ     NKDIM =      8   number of bands    NBANDS=    448
   number of dos      NEDOS =    301   number of ions     NIONS =     88
   non local maximal  LDIM  =      6   non local SUM 2l+1 LMDIM =     18
   total plane-waves  NPLWV = 140000
   max r-space proj   IRMAX =   1632   max aug-charges    IRDMAX=   4555
   dimension x,y,z NGX =    50 NGY =   50 NGZ =   56
   dimension x,y,z NGXF=   100 NGYF=  100 NGZF=  112
   support grid    NGXF=   100 NGYF=  100 NGZF=  112
   ions per type =              16   8  16  48
   NGX,Y,Z   is equivalent  to a cutoff of   8.30,  8.30,  8.30 a.u.
   NGXF,Y,Z  is equivalent  to a cutoff of  16.59, 16.59, 16.60 a.u.

 SYSTEM =  unknown system                          
 POSCAR =  Na Mg Mn  O                             

 Startparameter for this run:
   NWRITE =      2    write-flag & timer
   PREC   = normal    normal or accurate (medium, high low for compatibility)
   ISTART =      0    job   : 0-new  1-cont  2-samecut
   ICHARG =      1    charge: 1-file 2-atom 10-const
   ISPIN  =      2    spin polarized calculation?
   LNONCOLLINEAR =      F non collinear calculations
   LSORBIT =      F    spin-orbit coupling
   INIWAV =      1    electr: 0-lowe 1-rand  2-diag
   LASPH  =      T    aspherical Exc in radial PAW
   METAGGA=      F    non-selfconsistent MetaGGA calc.

 Electronic Relaxation 1
   ENCUT  =  400.0 eV  29.40 Ry    5.42 a.u.  16.34 16.34 18.29*2*pi/ulx,y,z
   ENINI  =  400.0     initial cutoff
   ENAUG  =  758.8 eV  augmentation charge cutoff
   NELM   =    200;   NELMIN=  6; NELMDL=-12     # of ELM steps 
   EDIFF  = 0.1E-04   stopping-criterion for ELM
   LREAL  =      T    real-space projection
   NLSPLINE    = F    spline interpolate recip. space projectors
   LCOMPAT=      F    compatible to vasp.4.4
   GGA_COMPAT  = T    GGA compatible to vasp.4.4-vasp.4.6
   LMAXPAW     = -100 max onsite density
   LMAXMIX     =    4 max onsite mixed and CHGCAR
   VOSKOWN=      0    Vosko Wilk Nusair interpolation
   ROPT   =   -0.00050  -0.00050  -0.00050  -0.00050
 Ionic relaxation
   EDIFFG = 0.1E-03   stopping-criterion for IOM
   NSW    =      1    number of steps for IOM
   NBLOCK =      1;   KBLOCK =      1    inner block; outer block 
   IBRION =     -1    ionic relax: 0-MD 1-quasi-New 2-CG
   NFREE  =      0    steps in history (QN), initial steepest desc. (CG)
   ISIF   =      2    stress and relaxation
   IWAVPR =     10    prediction:  0-non 1-charg 2-wave 3-comb
   ISYM   =      2    0-nonsym 1-usesym 2-fastsym
   LCORR  =      T    Harris-Foulkes like correction to forces

   POTIM  = 0.5000    time-step for ionic-motion
   TEIN   =    0.0    initial temperature
   TEBEG  =    0.0;   TEEND  =   0.0 temperature during run
   SMASS  =  -3.00    Nose mass-parameter (am)
   estimated Nose-frequenzy (Omega)   =  0.10E-29 period in steps =****** mass=  -0.229E-26a.u.
   SCALEE = 1.0000    scale energy and forces
   NPACO  =    256;   APACO  = 16.0  distance and # of slots for P.C.
   PSTRESS=    0.0 pullay stress

  Mass of Ions in am
   POMASS =  22.99 24.30 54.94 16.00
  Ionic Valenz
   ZVAL   =   7.00  8.00 13.00  6.00
  Atomic Wigner-Seitz radii
   RWIGS  =  -1.00 -1.00 -1.00 -1.00
  virtual crystal weights 
   VCA    =   1.00  1.00  1.00  1.00
   NELECT =     672.0000    total number of electrons
   NUPDOWN=      48.0000    fix difference up-down

 DOS related values:
   EMIN   =  10.00;   EMAX   =-10.00  energy-range for DOS
   EFERMI =   0.00
   ISMEAR =     0;   SIGMA  =   0.05  broadening in eV -4-tet -1-fermi 0-gaus

 Electronic relaxation 2 (details)
   IALGO  =     48    algorithm
   LDIAG  =      T    sub-space diagonalisation (order eigenvalues)
   LSUBROT=      F    optimize rotation matrix (better conditioning)
   TURBO    =      0    0=normal 1=particle mesh
   IRESTART =      0    0=no restart 2=restart with 2 vectors
   NREBOOT  =      0    no. of reboots
   NMIN     =      0    reboot dimension
   EREF     =   0.00    reference energy to select bands
   IMIX   =      4    mixing-type and parameters
     AMIX     =   0.40;   BMIX     =  1.00
     AMIX_MAG =   1.60;   BMIX_MAG =  1.00
     AMIN     =   0.10
     WC   =   100.;   INIMIX=   1;  MIXPRE=   1;  MAXMIX= -45

 Intra band minimization:
   WEIMIN = 0.0000     energy-eigenvalue tresh-hold
   EBREAK =  0.56E-08  absolut break condition
   DEPER  =   0.30     relativ break condition  

   TIME   =   0.40     timestep for ELM

  volume/ion in A,a.u.               =      11.08        74.78
  Fermi-wavevector in a.u.,A,eV,Ry     =   1.445993  2.732531 28.448379  2.090897
  Thomas-Fermi vector in A             =   2.564112
 
 Write flags
   LWAVE        =      F    write WAVECAR
   LDOWNSAMPLE  =      F    k-point downsampling of WAVECAR
   LCHARG       =      F    write CHGCAR
   LVTOT        =      F    write LOCPOT, total local potential
   LVHAR        =      F    write LOCPOT, Hartree potential only
   LELF         =      F    write electronic localiz. function (ELF)
   LORBIT       =     11    0 simple, 1 ext, 2 COOP (PROOUT), +10 PAW based schemes


 Dipole corrections
   LMONO  =      F    monopole corrections only (constant potential shift)
   LDIPOL =      F    correct potential (dipole corrections)
   IDIPOL =      0    1-x, 2-y, 3-z, 4-all directions 
   EPSILON=  1.0000000 bulk dielectric constant

 Exchange correlation treatment:
   GGA     =    --    GGA type
   LEXCH   =     8    internal setting for exchange type
   VOSKOWN=      0    Vosko Wilk Nusair interpolation
   LHFCALC =     F    Hartree Fock is set to
   LHFONE  =     F    Hartree Fock one center treatment
   AEXX    =    0.0000 exact exchange contribution

 Linear response parameters
   LEPSILON=     F    determine dielectric tensor
   LRPA    =     F    only Hartree local field effects (RPA)
   LNABLA  =     F    use nabla operator in PAW spheres
   LVEL    =     F    velocity operator in full k-point grid
   LINTERFAST=   F  fast interpolation
   KINTER  =     0    interpolate to denser k-point grid
   CSHIFT  =0.1000    complex shift for real part using Kramers Kronig
   OMEGAMAX=  -1.0    maximum frequency
   DEG_THRESHOLD= 0.2000000E-02 threshold for treating states as degnerate
   RTIME   =   -0.100 relaxation time in fs
  (WPLASMAI=    0.000 imaginary part of plasma frequency in eV, 0.658/RTIME)
   DFIELD  = 0.0000000 0.0000000 0.0000000 field for delta impulse in time
 
 Orbital magnetization related:
   ORBITALMAG=     F  switch on orbital magnetization
   LCHIMAG   =     F  perturbation theory with respect to B field
   DQ        =  0.001000  dq finite difference perturbation B field
   LLRAUG    =     F  two centre corrections for induced B field



--------------------------------------------------------------------------------------------------------


 Static calculation
 charge density and potential will be updated during run
 spin polarized calculation
 RMM-DIIS sequential band-by-band
 perform sub-space diagonalisation
    before iterative eigenvector-optimisation
 modified Broyden-mixing scheme, WC =      100.0
 initial mixing is a Kerker type mixing with AMIX =  0.4000 and BMIX =      1.0000
 Hartree-type preconditioning will be used
 using additional bands          112
 real space projection scheme for non local part
 use partial core corrections
 calculate Harris-corrections to forces 
   (improved forces if not selfconsistent)
 use gradient corrections 
 use of overlap-Matrix (Vanderbilt PP)
 Gauss-broadening in eV      SIGMA  =   0.05


--------------------------------------------------------------------------------------------------------


  energy-cutoff  :      400.00
  volume of cell :      975.20
      direct lattice vectors                 reciprocal lattice vectors
    10.019000053  0.000000000  0.000000000     0.099810360  0.057625538 -0.000000000
    -5.009500027  8.676708567  0.000000000     0.000000000  0.115251076  0.000000000
     0.000000000  0.000000000 11.218000412     0.000000000  0.000000000  0.089142446

  length of vectors
    10.019000053 10.019000053 11.218000412     0.115251076  0.115251076  0.089142446


 
 k-points in units of 2pi/SCALE and weight: read from INCAR                         
   0.00000000  0.00000000  0.00000000       0.125
   0.04990518  0.02881277 -0.00000000       0.125
   0.00000000  0.05762554  0.00000000       0.125
   0.04990518  0.08643831 -0.00000000       0.125
   0.00000000  0.00000000  0.04457122       0.125
   0.04990518  0.02881277  0.04457122       0.125
   0.00000000  0.05762554  0.04457122       0.125
   0.04990518  0.08643831  0.04457122       0.125
 
 k-points in reciprocal lattice and weights: read from INCAR                         
   0.00000000  0.00000000  0.00000000       0.125
   0.50000000 -0.00000000 -0.00000000       0.125
   0.00000000  0.50000000  0.00000000       0.125
   0.50000000  0.50000000 -0.00000000       0.125
   0.00000000  0.00000000  0.50000000       0.125
   0.50000000 -0.00000000  0.50000000       0.125
   0.00000000  0.50000000  0.50000000       0.125
   0.50000000  0.50000000  0.50000000       0.125
 
 position of ions in fractional coordinates (direct lattice) 
   0.33895025  0.16662194  0.24108842
   0.08776857  0.17607812  0.75401138
   0.36511702  0.97742439  0.73569350
   0.44933451  0.32030793  0.75103759
   0.86784469  0.68325102  0.25525494
   0.58593802  0.95767105  0.25405241
   0.75630723  0.12325428  0.74220981
   0.24378374  0.63072748  0.75159651
   0.73405810  0.31578564  0.26151898
   0.09601747  0.45182933  0.25690051
   0.43115767  0.53248203  0.26378141
   0.56197979  0.66067581  0.75313600
   0.93253146  0.81659899  0.76001780
   0.85796297  0.48906695  0.75670348
   0.95739639  0.03396235  0.25812354
   0.24987953  0.81705620  0.24458904
   0.58746349  0.32192968  0.00218299
   0.60161525  0.32678175  0.50039132
   0.08161910  0.32721625  0.00226947
   0.08683354  0.31645179  0.50414243
   0.08960673  0.83060183  0.98525580
   0.07738643  0.80636683  0.49827508
   0.58742738  0.82491765  0.00173858
   0.58623708  0.81666221  0.50236404
   0.92195373  0.99525989  0.99925896
   0.25865361  0.15826739  0.99236115
   0.92129918  0.98398372  0.50960686
   0.24745408  0.14103850  0.50794614
   0.42091529  0.99082848  0.99458010
   0.74834569  0.15744795  0.00172933
   0.42272588  0.98532640  0.48966213
   0.75296990  0.14518524  0.49354429
   0.41025284  0.48948861  0.00209588
   0.74186263  0.64869183  0.99626785
   0.42194063  0.47714407  0.51103136
   0.75166146  0.64708178  0.51290513
   0.90796114  0.48925695  0.00304886
   0.25127617  0.65942747  0.00983152
   0.92597454  0.48314980  0.48959973
   0.25429874  0.64362194  0.48876803
   0.09262451  0.14111688  0.09193528
   0.26875502  0.99824865  0.07756231
   0.40981835  0.32666535  0.08773382
   0.09044322  0.98450876  0.59933498
   0.25363934  0.30327629  0.60559099
   0.41421261  0.13594095  0.58800230
   0.09101406  0.01240102  0.89891243
   0.26946892  0.32756546  0.90909250
   0.41224866  0.14767927  0.89926008
   0.08222106  0.13718451  0.41769833
   0.26452703  0.00214119  0.39944106
   0.41049591  0.31234425  0.41670974
   0.58170144  0.15219020  0.08987341
   0.76519507  0.00871533  0.09410144
   0.89827990  0.33148745  0.09362809
   0.58140686  0.98490176  0.58592795
   0.76725493  0.32060429  0.58653501
   0.89971778  0.13681455  0.59154838
   0.58209844  0.00273765  0.90155996
   0.76428871  0.32316171  0.90343195
   0.90685695  0.14885714  0.91034940
   0.59802744  0.14454675  0.40322338
   0.76096185  0.97964205  0.40863165
   0.91366367  0.31424819  0.39780352
   0.57301872  0.63637380  0.09076395
   0.75737871  0.49827074  0.09530397
   0.91458180  0.83303824  0.08870101
   0.58807283  0.49718969  0.60235334
   0.76851416  0.81432146  0.60402833
   0.91084328  0.63690165  0.58794257
   0.57949262  0.50451274  0.90470669
   0.76431150  0.83187881  0.90193436
   0.91498922  0.65758000  0.90928861
   0.58065315  0.63330351  0.42163040
   0.76620722  0.49510134  0.40519253
   0.89746892  0.81091349  0.41181849
   0.08116125  0.64582785  0.09739882
   0.25518525  0.49015591  0.09297557
   0.41167068  0.82250775  0.09624175
   0.09644138  0.50378205  0.58524869
   0.26474003  0.81787811  0.57528345
   0.39894582  0.63384173  0.59925653
   0.07827200  0.50032682  0.91114277
   0.25947032  0.80906140  0.90140842
   0.39303543  0.63191935  0.90944907
   0.09140782  0.63627007  0.39230254
   0.25300139  0.47897195  0.40413085
   0.41280454  0.80987046  0.39400783
 
 position of ions in cartesian coordinates  (Angst):
   2.56125000  1.44573000  2.70453000
  -0.00271003  1.52777857  8.45850000
  -1.23830008  8.48082657  8.25301000
   2.89729992  2.77921857  8.42514000
   5.27219000  5.92837000  2.86345000
   1.07305997  8.30943257  2.84996000
   6.95999987  1.06944143  8.32611000
  -0.71716003  5.47263857  8.43141000
   5.77260000  2.73998000  2.93372000
  -1.30144003  3.92039143  2.88191000
   1.65229997  4.62019143  2.95910000
   2.32082003  5.73249143  8.44868000
   5.25228008  7.08539143  8.52588000
   6.14595008  4.24349143  8.48870000
   9.42202003  0.29468143  2.89563000
  -1.58950008  7.08935857  2.74380000
   4.27309000  2.79329000  0.02448880
   4.39057000  2.83539000  5.61339000
  -0.82144800  2.83916000  0.02545890
  -0.71528000  2.74576000  5.65547000
  -3.26313000  7.20689000 11.05260000
  -3.26416000  6.99661000  5.58965000
   1.75301000  7.15757000  0.01950340
   1.78244000  7.08594000  5.63552000
   4.25130000  8.63558000 11.20968745
   1.79861000  1.37324000 11.13230781
   4.30123000  8.53774000  5.71677000
   1.77271000  1.22375000  5.69814000
  -0.74640500  8.59713000 11.15720000
   6.70894000  1.36613000  0.01939959
  -0.70070200  8.54939000  5.49303000
   6.81670000  1.25973000  5.53658000
   1.65823000  4.24715000  0.02351160
   4.18310000  5.62851000 11.17613311
   1.83717000  4.14004000  5.73275000
   4.28934000  5.61454000  5.75377000
   6.64593000  4.24514000  0.03420210
  -0.78586600  5.72166000  0.11029000
   6.85700000  4.19215000  5.49233000
  -0.67640500  5.58452000  5.48300000
   0.22108000  1.22443000  1.03133000
  -2.30807003  8.66151257  0.87009400
   2.46954000  2.83438000  0.98419800
  -4.02574603  8.54229557  6.72334000
   1.02195000  2.63144000  6.79352000
   3.46900000  1.17952000  6.59621000
   0.84974700  0.10760000 10.08400000
   1.05887000  2.84219000 10.19820000
   3.39052000  1.28137000 10.08790000
   0.13654700  1.19031000  4.68574000
   2.63957000  0.01857850  4.48093000
   2.54807000  2.71012000  4.67465000
   5.06567000  1.32051000  1.00820000
   7.62283000  0.07562040  1.05563000
   7.33928000  2.87622000  1.05032000
   0.89124997  8.54570557  6.57294000
   6.08106000  2.78179000  6.57975000
   8.32890000  1.18710000  6.63599000
   5.81833000  0.02375380 10.11370000
   6.03853000  2.80398000 10.13470000
   8.34010000  1.29159000 10.21230000
   5.26753000  1.25419000  4.52336000
   2.71655997  8.50006857  4.58403000
   7.57977000  2.72664000  4.46256000
   2.55316000  5.52163000  1.01819000
   5.09209000  4.32335000  1.06912000
   4.99009000  7.22803000  0.99504800
   3.40123000  4.31397000  6.75720000
   3.62040000  7.06563000  6.77599000
   5.93518000  5.52621000  6.59554000
   3.27858000  4.37751000 10.14900000
   3.49034000  7.21797000 10.11790000
   5.87313000  5.70563000 10.20040000
   2.64503000  5.49499000  4.72985000
   5.19642000  4.29585000  4.54545000
   4.92947000  7.03606000  4.61978000
  -2.42212000  5.60366000  1.09262000
   0.10126500  4.25294000  1.04300000
   0.00417595  7.13666000  1.07964000
  -1.55745000  4.37117000  6.56532000
  -1.44473000  7.09649000  6.45353000
   0.82180800  5.49966000  6.72246000
  -1.72218000  4.34119000 10.22120000
  -1.45336000  7.01999000 10.11200000
   0.77222200  5.48298000 10.20220000
  -2.27158000  5.52073000  4.40085000
   0.13541100  4.15590000  4.53354000
   0.07884260  7.02701000  4.41998000
 


--------------------------------------------------------------------------------------------------------


 k-point  1 :   0.0000 0.0000 0.0000  plane waves:   17725
 k-point  2 :   0.5000-0.0000-0.0000  plane waves:   17736
 k-point  3 :   0.0000 0.5000 0.0000  plane waves:   17736
 k-point  4 :   0.5000 0.5000-0.0000  plane waves:   17736
 k-point  5 :   0.0000 0.0000 0.5000  plane waves:   17676
 k-point  6 :   0.5000-0.0000 0.5000  plane waves:   17700
 k-point  7 :   0.0000 0.5000 0.5000  plane waves:   17700
 k-point  8 :   0.5000 0.5000 0.5000  plane waves:   17700

 maximum and minimum number of plane-waves per node :     17736    17676

 maximum number of plane-waves:     17736
 maximum index in each direction: 
   IXMAX=   16   IYMAX=   16   IZMAX=   18
   IXMIN=  -16   IYMIN=  -16   IZMIN=  -18


 serial   3D FFT for wavefunctions
 parallel 3D FFT for charge:
    minimum data exchange during FFTs selected (reduces bandwidth)


 total amount of memory used by VASP MPI-rank0   104111. kBytes
=======================================================================

   base      :      30000. kBytes
   nonlr-proj:      13669. kBytes
   fftplans  :       1316. kBytes
   grid      :      22786. kBytes
   one-center:       2737. kBytes
   wavefun   :      33603. kBytes
 
     INWAV:  cpu time    0.0000: real time    0.0002
 Broyden mixing: mesh for mixing (old mesh)
   NGX = 33   NGY = 33   NGZ = 37
  (NGX  =100   NGY  =100   NGZ  =112)
  gives a total of  40293 points

 initial charge density was supplied:
 charge density of overlapping atoms calculated
 number of electron     672.0000000 magnetization      48.0000000
 keeping initial charge density in first step


--------------------------------------------------------------------------------------------------------


 Maximum index for non-local projection operator         1551
 Maximum index for augmentation-charges          224 (set IRDMAX)


--------------------------------------------------------------------------------------------------------


 First call to EWALD:  gamma=   0.179
 Maximum number of real-space cells 3x 3x 2
 Maximum number of reciprocal cells 3x 3x 3

    FEWALD:  cpu time    0.0022: real time    0.0030


--------------------------------------- Iteration      1(   1)  ---------------------------------------


    POTLOK:  cpu time    0.0685: real time    0.0716
    SETDIJ:  cpu time    2.5298: real time    2.5320
    EDDIAG:  cpu time    3.6312: real time    3.6450
  RMM-DIIS:  cpu time   10.3207: real time   10.3461
    ORTHCH:  cpu time    0.5946: real time    0.5992
       DOS:  cpu time    0.0013: real time    0.0015
    --------------------------------------------
      LOOP:  cpu time   17.1461: real time   17.1954

 eigenvalue-minimisations  :  7168
 total energy-change (2. order) : 0.1863706E+04  (-0.3592519E+05)
 number of electron     672.0000000 magnetization      48.0000000
 augmentation part      672.0000000 magnetization      48.0000000

 Free energy of the ion-electron system (eV)
  ---------------------------------------------------
  alpha Z        PSCENC =      2652.81237852
  Ewald energy   TEWEN  =    -41857.10910224
  -Hartree energ DENC   =    -25757.00161071
  -exchange      EXHF   =         0.00000000
  -V(xc)+E(xc)   XCENC  =      3605.88675516
  PAW double counting   =     55594.23204139   -59034.67079123
  entropy T*S    EENTRO =        -0.05299993
  eigenvalues    EBANDS =     -7202.58882779
  atomic energy  EATOM  =     73862.19814772
  Solvation  Ediel_sol  =         0.00000000
  ---------------------------------------------------
  free energy    TOTEN  =      1863.70599089 eV

  energy without entropy =     1863.75899082  energy(sigma->0) =     1863.73249086


--------------------------------------------------------------------------------------------------------




--------------------------------------- Iteration      1(   2)  ---------------------------------------


    EDDIAG:  cpu time    3.6117: real time    3.6232
  RMM-DIIS:  cpu time   10.2645: real time   10.3632
    ORTHCH:  cpu time    0.5929: real time    0.5966
       DOS:  cpu time    0.0010: real time    0.0010
    --------------------------------------------
      LOOP:  cpu time   14.4701: real time   14.5841

 eigenvalue-minimisations  :  7168
 total energy-change (2. order) :-0.2709053E+04  (-0.8686286E+04)
 number of electron     672.0000000 magnetization      48.0000000
 augmentation part      672.0000000 magnetization      48.0000000

 Free energy of the ion-electron system (eV)
  ---------------------------------------------------
  alpha Z        PSCENC =      2652.81237852
  Ewald energy   TEWEN  =    -41857.10910224
  -Hartree energ DENC   =    -25757.00161071
  -exchange      EXHF   =         0.00000000
  -V(xc)+E(xc)   XCENC  =      3605.88675516
  PAW double counting   =     55594.23204139   -59034.67079123
  entropy T*S    EENTRO =        -0.05469532
  eigenvalues    EBANDS =     -9911.64036740
  atomic energy  EATOM  =     73862.19814772
  Solvation  Ediel_sol  =         0.00000000
  ---------------------------------------------------
  free energy    TOTEN  =      -845.34724411 eV

  energy without entropy =     -845.29254879  energy(sigma->0) =     -845.31989645


--------------------------------------------------------------------------------------------------------




--------------------------------------- Iteration      1(   3)  ---------------------------------------


    EDDIAG:  cpu time    3.6397: real time    3.6521
  RMM-DIIS:  cpu time   10.3464: real time   10.3718
    ORTHCH:  cpu time    0.5935: real time    0.5979
       DOS:  cpu time    0.0010: real time    0.0010
    --------------------------------------------
      LOOP:  cpu time   14.5806: real time   14.6228

 eigenvalue-minimisations  :  7168
 total energy-change (2. order) : 0.3113709E+03  (-0.1559872E+04)
 number of electron     672.0000000 magnetization      48.0000000
 augmentation part      672.0000000 magnetization      48.0000000

 Free energy of the ion-electron system (eV)
  ---------------------------------------------------
  alpha Z        PSCENC =      2652.81237852
  Ewald energy   TEWEN  =    -41857.10910224
  -Hartree energ DENC   =    -25757.00161071
  -exchange      EXHF   =         0.00000000
  -V(xc)+E(xc)   XCENC  =      3605.88675516
  PAW double counting   =     55594.23204139   -59034.67079123
  entropy T*S    EENTRO =        -0.03926329
  eigenvalues    EBANDS =     -9600.28492333
  atomic energy  EATOM  =     73862.19814772
  Solvation  Ediel_sol  =         0.00000000
  ---------------------------------------------------
  free energy    TOTEN  =      -533.97636801 eV

  energy without entropy =     -533.93710472  energy(sigma->0) =     -533.95673636


--------------------------------------------------------------------------------------------------------




--------------------------------------- Iteration      1(   4)  ---------------------------------------


    EDDIAG:  cpu time    3.7280: real time    3.7478
  RMM-DIIS:  cpu time   10.3268: real time   10.3730
    ORTHCH:  cpu time    0.5951: real time    0.5995
       DOS:  cpu time    0.0008: real time    0.0008
    --------------------------------------------
      LOOP:  cpu time   14.6507: real time   14.7211

 eigenvalue-minimisations  :  7168
 total energy-change (2. order) :-0.5248136E+03  (-0.5065437E+03)
 number of electron     672.0000000 magnetization      48.0000000
 augmentation part      672.0000000 magnetization      48.0000000

 Free energy of the ion-electron system (eV)
  ---------------------------------------------------
  alpha Z        PSCENC =      2652.81237852
  Ewald energy   TEWEN  =    -41857.10910224
  -Hartree energ DENC   =    -25757.00161071
  -exchange      EXHF   =         0.00000000
  -V(xc)+E(xc)   XCENC  =      3605.88675516
  PAW double counting   =     55594.23204139   -59034.67079123
  entropy T*S    EENTRO =        -0.00040432
  eigenvalues    EBANDS =    -10125.13734211
  atomic energy  EATOM  =     73862.19814772
  Solvation  Ediel_sol  =         0.00000000
  ---------------------------------------------------
  free energy    TOTEN  =     -1058.78992782 eV

  energy without entropy =    -1058.78952350  energy(sigma->0) =    -1058.78972566


--------------------------------------------------------------------------------------------------------




--------------------------------------- Iteration      1(   5)  ---------------------------------------


    EDDIAG:  cpu time    3.6392: real time    3.6487
  RMM-DIIS:  cpu time   10.3166: real time   10.3450
    ORTHCH:  cpu time    0.5951: real time    0.5988
       DOS:  cpu time    0.0007: real time    0.0007
    --------------------------------------------
      LOOP:  cpu time   14.5516: real time   14.5933

 eigenvalue-minimisations  :  7168
 total energy-change (2. order) :-0.1474919E+03  (-0.2128984E+03)
 number of electron     672.0000000 magnetization      48.0000000
 augmentation part      672.0000000 magnetization      48.0000000

 Free energy of the ion-electron system (eV)
  ---------------------------------------------------
  alpha Z        PSCENC =      2652.81237852
  Ewald energy   TEWEN  =    -41857.10910224
  -Hartree energ DENC   =    -25757.00161071
  -exchange      EXHF   =         0.00000000
  -V(xc)+E(xc)   XCENC  =      3605.88675516
  PAW double counting   =     55594.23204139   -59034.67079123
  entropy T*S    EENTRO =        -0.00000000
  eigenvalues    EBANDS =    -10272.62963060
  atomic energy  EATOM  =     73862.19814772
  Solvation  Ediel_sol  =         0.00000000
  ---------------------------------------------------
  free energy    TOTEN  =     -1206.28181199 eV

  energy without entropy =    -1206.28181199  energy(sigma->0) =    -1206.28181199


--------------------------------------------------------------------------------------------------------




--------------------------------------- Iteration      1(   6)  ---------------------------------------


    EDDIAG:  cpu time    3.6435: real time    3.6545
  RMM-DIIS:  cpu time   10.3188: real time   10.3733
    ORTHCH:  cpu time    0.5928: real time    0.5975
       DOS:  cpu time    0.0007: real time    0.0007
    --------------------------------------------
      LOOP:  cpu time   14.5558: real time   14.6260

 eigenvalue-minimisations  :  7168
 total energy-change (2. order) :-0.2119442E+02  (-0.1150795E+03)
 number of electron     672.0000000 magnetization      48.0000000
 augmentation part      672.0000000 magnetization      48.0000000

 Free energy of the ion-electron system (eV)
  ---------------------------------------------------
  alpha Z        PSCENC =      2652.81237852
  Ewald energy   TEWEN  =    -41857.10910224
  -Hartree energ DENC   =    -25757.00161071
  -exchange      EXHF   =         0.00000000
  -V(xc)+E(xc)   XCENC  =      3605.88675516
  PAW double counting   =     55594.23204139   -59034.67079123
  entropy T*S    EENTRO =        -0.00000000
  eigenvalues    EBANDS =    -10293.82404810
  atomic energy  EATOM  =     73862.19814772
  Solvation  Ediel_sol  =         0.00000000
  ---------------------------------------------------
  free energy    TOTEN  =     -1227.47622949 eV

  energy without entropy =    -1227.47622949  energy(sigma->0) =    -1227.47622949


--------------------------------------------------------------------------------------------------------




--------------------------------------- Iteration      1(   7)  ---------------------------------------


    EDDIAG:  cpu time    3.6366: real time    3.6456
  RMM-DIIS:  cpu time   10.3362: real time   10.3624
    ORTHCH:  cpu time    0.5918: real time    0.5955
       DOS:  cpu time    0.0007: real time    0.0007
    --------------------------------------------
      LOOP:  cpu time   14.5653: real time   14.6041

 eigenvalue-minimisations  :  7168
 total energy-change (2. order) :-0.6667712E+01  (-0.7587041E+02)
 number of electron     672.0000000 magnetization      48.0000000
 augmentation part      672.0000000 magnetization      48.0000000

 Free energy of the ion-electron system (eV)
  ---------------------------------------------------
  alpha Z        PSCENC =      2652.81237852
  Ewald energy   TEWEN  =    -41857.10910224
  -Hartree energ DENC   =    -25757.00161071
  -exchange      EXHF   =         0.00000000
  -V(xc)+E(xc)   XCENC  =      3605.88675516
  PAW double counting   =     55594.23204139   -59034.67079123
  entropy T*S    EENTRO =        -0.00000000
  eigenvalues    EBANDS =    -10300.49175961
  atomic energy  EATOM  =     73862.19814772
  Solvation  Ediel_sol  =         0.00000000
  ---------------------------------------------------
  free energy    TOTEN  =     -1234.14394100 eV

  energy without entropy =    -1234.14394100  energy(sigma->0) =    -1234.14394100


--------------------------------------------------------------------------------------------------------




--------------------------------------- Iteration      1(   8)  ---------------------------------------


    EDDIAG:  cpu time    3.6512: real time    3.6613
  RMM-DIIS:  cpu time   10.3201: real time   10.3641
    ORTHCH:  cpu time    0.5947: real time    0.5994
       DOS:  cpu time    0.0006: real time    0.0006
    --------------------------------------------
      LOOP:  cpu time   14.5667: real time   14.6255

 eigenvalue-minimisations  :  7168
 total energy-change (2. order) : 0.4673604E+01  (-0.5237690E+02)
 number of electron     672.0000000 magnetization      48.0000000
 augmentation part      672.0000000 magnetization      48.0000000

 Free energy of the ion-electron system (eV)
  ---------------------------------------------------
  alpha Z        PSCENC =      2652.81237852
  Ewald energy   TEWEN  =    -41857.10910224
  -Hartree energ DENC   =    -25757.00161071
  -exchange      EXHF   =         0.00000000
  -V(xc)+E(xc)   XCENC  =      3605.88675516
  PAW double counting   =     55594.23204139   -59034.67079123
  entropy T*S    EENTRO =        -0.00000000
  eigenvalues    EBANDS =    -10295.81815568
  atomic energy  EATOM  =     73862.19814772
  Solvation  Ediel_sol  =         0.00000000
  ---------------------------------------------------
  free energy    TOTEN  =     -1229.47033707 eV

  energy without entropy =    -1229.47033707  energy(sigma->0) =    -1229.47033707


--------------------------------------------------------------------------------------------------------




--------------------------------------- Iteration      1(   9)  ---------------------------------------


    EDDIAG:  cpu time    3.6361: real time    3.6468
  RMM-DIIS:  cpu time   20.9626: real time   21.0109
    ORTHCH:  cpu time    0.5948: real time    0.5987
       DOS:  cpu time    0.0006: real time    0.0006
    --------------------------------------------
      LOOP:  cpu time   25.1941: real time   25.2571

 eigenvalue-minimisations  : 20234
 total energy-change (2. order) : 0.1791101E+02  (-0.2339395E+02)
 number of electron     672.0000000 magnetization      48.0000000
 augmentation part      672.0000000 magnetization      48.0000000

 Free energy of the ion-electron system (eV)
  ---------------------------------------------------
  alpha Z        PSCENC =      2652.81237852
  Ewald energy   TEWEN  =    -41857.10910224
  -Hartree energ DENC   =    -25757.00161071
  -exchange      EXHF   =         0.00000000
  -V(xc)+E(xc)   XCENC  =      3605.88675516
  PAW double counting   =     55594.23204139   -59034.67079123
  entropy T*S    EENTRO =        -0.00000000
  eigenvalues    EBANDS =    -10277.90714740
  atomic energy  EATOM  =     73862.19814772
  Solvation  Ediel_sol  =         0.00000000
  ---------------------------------------------------
  free energy    TOTEN  =     -1211.55932879 eV

  energy without entropy =    -1211.55932879  energy(sigma->0) =    -1211.55932879


--------------------------------------------------------------------------------------------------------




--------------------------------------- Iteration      1(  10)  ---------------------------------------


    EDDIAG:  cpu time    3.6368: real time    3.6475
  RMM-DIIS:  cpu time   21.3607: real time   21.4429
    ORTHCH:  cpu time    0.5953: real time    0.5996
       DOS:  cpu time    0.0007: real time    0.0007
    --------------------------------------------
      LOOP:  cpu time   25.5934: real time   25.6907

 eigenvalue-minimisations  : 20258
 total energy-change (2. order) :-0.3015980E+01  (-0.1019472E+01)
 number of electron     672.0000000 magnetization      48.0000000
 augmentation part      672.0000000 magnetization      48.0000000

 Free energy of the ion-electron system (eV)
  ---------------------------------------------------
  alpha Z        PSCENC =      2652.81237852
  Ewald energy   TEWEN  =    -41857.10910224
  -Hartree energ DENC   =    -25757.00161071
  -exchange      EXHF   =         0.00000000
  -V(xc)+E(xc)   XCENC  =      3605.88675516
  PAW double counting   =     55594.23204139   -59034.67079123
  entropy T*S    EENTRO =        -0.00000000
  eigenvalues    EBANDS =    -10280.92312716
  atomic energy  EATOM  =     73862.19814772
  Solvation  Ediel_sol  =         0.00000000
  ---------------------------------------------------
  free energy    TOTEN  =     -1214.57530855 eV

  energy without entropy =    -1214.57530855  energy(sigma->0) =    -1214.57530855


--------------------------------------------------------------------------------------------------------




--------------------------------------- Iteration      1(  11)  ---------------------------------------


    EDDIAG:  cpu time    3.6333: real time    3.6425
  RMM-DIIS:  cpu time   22.3630: real time   22.4484
    ORTHCH:  cpu time    0.6020: real time    0.6063
       DOS:  cpu time    0.0007: real time    0.0007
    --------------------------------------------
      LOOP:  cpu time   26.5990: real time   26.6979

 eigenvalue-minimisations  : 21669
 total energy-change (2. order) : 0.9859900E-01  (-0.9696964E-01)
 number of electron     672.0000000 magnetization      48.0000000
 augmentation part      672.0000000 magnetization      48.0000000

 Free energy of the ion-electron system (eV)
  ---------------------------------------------------
  alpha Z        PSCENC =      2652.81237852
  Ewald energy   TEWEN  =    -41857.10910224
  -Hartree energ DENC   =    -25757.00161071
  -exchange      EXHF   =         0.00000000
  -V(xc)+E(xc)   XCENC  =      3605.88675516
  PAW double counting   =     55594.23204139   -59034.67079123
  entropy T*S    EENTRO =        -0.00000000
  eigenvalues    EBANDS =    -10280.82452816
  atomic energy  EATOM  =     73862.19814772
  Solvation  Ediel_sol  =         0.00000000
  ---------------------------------------------------
  free energy    TOTEN  =     -1214.47670956 eV

  energy without entropy =    -1214.47670955  energy(sigma->0) =    -1214.47670955


--------------------------------------------------------------------------------------------------------




--------------------------------------- Iteration      1(  12)  ---------------------------------------


    EDDIAG:  cpu time    3.6352: real time    3.6455
  RMM-DIIS:  cpu time   23.7800: real time   23.8839
    ORTHCH:  cpu time    0.5926: real time    0.5969
       DOS:  cpu time    0.0007: real time    0.0007
    CHARGE:  cpu time    2.1590: real time    2.1639
    MIXING:  cpu time    0.0011: real time    0.0015
    --------------------------------------------
      LOOP:  cpu time   30.1686: real time   30.2924

 eigenvalue-minimisations  : 22824
 total energy-change (2. order) : 0.7791647E-02  (-0.6294739E-02)
 number of electron     672.0000176 magnetization      47.9999993
 augmentation part      239.0709432 magnetization      29.0359258

 Broyden mixing:
  rms(total) = 0.12543E+02    rms(broyden)= 0.12534E+02
  rms(prec ) = 0.14400E+02
  weight for this iteration     100.00

 Free energy of the ion-electron system (eV)
  ---------------------------------------------------
  alpha Z        PSCENC =      2652.81237852
  Ewald energy   TEWEN  =    -41857.10910224
  -Hartree energ DENC   =    -25757.00161071
  -exchange      EXHF   =         0.00000000
  -V(xc)+E(xc)   XCENC  =      3605.88675516
  PAW double counting   =     55594.23204139   -59034.67079123
  entropy T*S    EENTRO =        -0.00000000
  eigenvalues    EBANDS =    -10280.81673652
  atomic energy  EATOM  =     73862.19814772
  Solvation  Ediel_sol  =         0.00000000
  ---------------------------------------------------
  free energy    TOTEN  =     -1214.46891791 eV

  energy without entropy =    -1214.46891791  energy(sigma->0) =    -1214.46891791


--------------------------------------------------------------------------------------------------------




--------------------------------------- Iteration      1(  13)  ---------------------------------------


    POTLOK:  cpu time    0.0615: real time    0.0633
    SETDIJ:  cpu time    2.6962: real time    2.6988
    EDDIAG:  cpu time    3.6432: real time    3.6540
  RMM-DIIS:  cpu time   18.9506: real time   19.0302
    ORTHCH:  cpu time    0.5944: real time    0.5992
       DOS:  cpu time    0.0009: real time    0.0009
    CHARGE:  cpu time    2.1683: real time    2.1751
    MIXING:  cpu time    0.0009: real time    0.0011
    --------------------------------------------
      LOOP:  cpu time   28.1160: real time   28.2227

 eigenvalue-minimisations  : 17289
 total energy-change (2. order) : 0.2240127E+03  (-0.1383894E+03)
 number of electron     672.0000101 magnetization      47.9999995
 augmentation part      269.0984850 magnetization      26.5124454

 Broyden mixing:
  rms(total) = 0.13977E+02    rms(broyden)= 0.13973E+02
  rms(prec ) = 0.15725E+02
  weight for this iteration     100.00

 eigenvalues of (default mixing * dielectric matrix)
  average eigenvalue GAMMA=   0.3170
  0.3170

 Free energy of the ion-electron system (eV)
  ---------------------------------------------------
  alpha Z        PSCENC =      2652.81237852
  Ewald energy   TEWEN  =    -41857.10910224
  -Hartree energ DENC   =    -25086.18830022
  -exchange      EXHF   =         0.00000000
  -V(xc)+E(xc)   XCENC  =      3696.13695429
  PAW double counting   =     59881.70524245   -63306.90807257
  entropy T*S    EENTRO =        -0.07214573
  eigenvalues    EBANDS =    -10833.03135510
  atomic energy  EATOM  =     73862.19814772
  Solvation  Ediel_sol  =         0.00000000
  ---------------------------------------------------
  free energy    TOTEN  =      -990.45625287 eV

  energy without entropy =     -990.38410713  energy(sigma->0) =     -990.42018000


--------------------------------------------------------------------------------------------------------




--------------------------------------- Iteration      1(  14)  ---------------------------------------


    POTLOK:  cpu time    0.0607: real time    0.0609
    SETDIJ:  cpu time    2.6938: real time    2.6966
    EDDIAG:  cpu time    3.6328: real time    3.6438
  RMM-DIIS:  cpu time   18.7452: real time   18.8056
    ORTHCH:  cpu time    0.5993: real time    0.6037
       DOS:  cpu time    0.0006: real time    0.0006
    CHARGE:  cpu time    2.1563: real time    2.1628
    MIXING:  cpu time    0.0008: real time    0.0008
    --------------------------------------------
      LOOP:  cpu time   27.8896: real time   27.9748

 eigenvalue-minimisations  : 17813
 total energy-change (2. order) : 0.7520992E+02  (-0.1873950E+02)
 number of electron     672.0000147 magnetization      47.9999992
 augmentation part      246.6420689 magnetization      32.1973029

 Broyden mixing:
  rms(total) = 0.52383E+01    rms(broyden)= 0.52339E+01
  rms(prec ) = 0.56563E+01
  weight for this iteration     100.00

 eigenvalues of (default mixing * dielectric matrix)
  average eigenvalue GAMMA=   0.7287
  1.0986  0.3588

 Free energy of the ion-electron system (eV)
  ---------------------------------------------------
  alpha Z        PSCENC =      2652.81237852
  Ewald energy   TEWEN  =    -41857.10910224
  -Hartree energ DENC   =    -25698.72729834
  -exchange      EXHF   =         0.00000000
  -V(xc)+E(xc)   XCENC  =      3673.92376104
  PAW double counting   =     63296.15039868   -66778.45834069
  entropy T*S    EENTRO =        -0.00000000
  eigenvalues    EBANDS =    -10066.03627460
  atomic energy  EATOM  =     73862.19814772
  Solvation  Ediel_sol  =         0.00000000
  ---------------------------------------------------
  free energy    TOTEN  =      -915.24632989 eV

  energy without entropy =     -915.24632989  energy(sigma->0) =     -915.24632989


--------------------------------------------------------------------------------------------------------




--------------------------------------- Iteration      1(  15)  ---------------------------------------


    POTLOK:  cpu time    0.0605: real time    0.0619
    SETDIJ:  cpu time    2.7025: real time    2.7054
    EDDIAG:  cpu time    3.6321: real time    3.6422
  RMM-DIIS:  cpu time   19.5871: real time   19.6557
    ORTHCH:  cpu time    0.5955: real time    0.5999
       DOS:  cpu time    0.0006: real time    0.0006
    CHARGE:  cpu time    2.1593: real time    2.1641
    MIXING:  cpu time    0.0008: real time    0.0008
    --------------------------------------------
      LOOP:  cpu time   28.7385: real time   28.8305

 eigenvalue-minimisations  : 18415
 total energy-change (2. order) : 0.1360885E+02  (-0.2082496E+01)
 number of electron     672.0000142 magnetization      47.9999987
 augmentation part      249.7103628 magnetization      33.8194931

 Broyden mixing:
  rms(total) = 0.21639E+01    rms(broyden)= 0.21636E+01
  rms(prec ) = 0.22447E+01
  weight for this iteration     100.00

 eigenvalues of (default mixing * dielectric matrix)
  average eigenvalue GAMMA=   0.9400
  1.6881  0.3841  0.7477

 Free energy of the ion-electron system (eV)
  ---------------------------------------------------
  alpha Z        PSCENC =      2652.81237852
  Ewald energy   TEWEN  =    -41857.10910224
  -Hartree energ DENC   =    -25619.57631697
  -exchange      EXHF   =         0.00000000
  -V(xc)+E(xc)   XCENC  =      3706.55846850
  PAW double counting   =     67388.62253636   -70911.48278907
  entropy T*S    EENTRO =        -0.00000000
  eigenvalues    EBANDS =    -10123.66080122
  atomic energy  EATOM  =     73862.19814772
  Solvation  Ediel_sol  =         0.00000000
  ---------------------------------------------------
  free energy    TOTEN  =      -901.63747840 eV

  energy without entropy =     -901.63747840  energy(sigma->0) =     -901.63747840


--------------------------------------------------------------------------------------------------------




--------------------------------------- Iteration      1(  16)  ---------------------------------------


    POTLOK:  cpu time    0.0609: real time    0.0610
    SETDIJ:  cpu time    2.7273: real time    2.7307
    EDDIAG:  cpu time    3.6470: real time    3.6573
  RMM-DIIS:  cpu time   18.9882: real time   19.0526
    ORTHCH:  cpu time    0.5977: real time    0.6016
       DOS:  cpu time    0.0007: real time    0.0007
    CHARGE:  cpu time    2.1614: real time    2.1661
    MIXING:  cpu time    0.0010: real time    0.0010
    --------------------------------------------
      LOOP:  cpu time   28.1842: real time   28.2711

 eigenvalue-minimisations  : 17466
 total energy-change (2. order) :-0.1499880E+01  (-0.6955685E+00)
 number of electron     672.0000134 magnetization      47.9999985
 augmentation part      251.1494585 magnetization      33.9179650

 Broyden mixing:
  rms(total) = 0.14441E+01    rms(broyden)= 0.14436E+01
  rms(prec ) = 0.15299E+01
  weight for this iteration     100.00

 eigenvalues of (default mixing * dielectric matrix)
  average eigenvalue GAMMA=   0.9682
  2.0658  0.8985  0.3907  0.5176

 Free energy of the ion-electron system (eV)
  ---------------------------------------------------
  alpha Z        PSCENC =      2652.81237852
  Ewald energy   TEWEN  =    -41857.10910224
  -Hartree energ DENC   =    -25571.18608277
  -exchange      EXHF   =         0.00000000
  -V(xc)+E(xc)   XCENC  =      3707.67428500
  PAW double counting   =     70281.78708013   -73834.09647750
  entropy T*S    EENTRO =        -0.00000000
  eigenvalues    EBANDS =    -10145.21758701
  atomic energy  EATOM  =     73862.19814772
  Solvation  Ediel_sol  =         0.00000000
  ---------------------------------------------------
  free energy    TOTEN  =      -903.13735815 eV

  energy without entropy =     -903.13735815  energy(sigma->0) =     -903.13735815


--------------------------------------------------------------------------------------------------------




--------------------------------------- Iteration      1(  17)  ---------------------------------------


    POTLOK:  cpu time    0.0615: real time    0.0629
    SETDIJ:  cpu time    2.7297: real time    2.7331
    EDDIAG:  cpu time    3.6357: real time    3.6491
  RMM-DIIS:  cpu time   20.0067: real time   20.0798
    ORTHCH:  cpu time    0.5955: real time    0.5992
       DOS:  cpu time    0.0006: real time    0.0007
    CHARGE:  cpu time    2.1602: real time    2.1659
    MIXING:  cpu time    0.0011: real time    0.0011
    --------------------------------------------
      LOOP:  cpu time   29.1911: real time   29.2919

 eigenvalue-minimisations  : 18429
 total energy-change (2. order) : 0.1498040E+00  (-0.7038774E-01)
 number of electron     672.0000136 magnetization      47.9999983
 augmentation part      251.0943492 magnetization      33.9156930

 Broyden mixing:
  rms(total) = 0.76534E+00    rms(broyden)= 0.76523E+00
  rms(prec ) = 0.86184E+00
  weight for this iteration     100.00

 eigenvalues of (default mixing * dielectric matrix)
  average eigenvalue GAMMA=   0.9957
  2.2288  1.1188  0.3806  0.6926  0.5579

 Free energy of the ion-electron system (eV)
  ---------------------------------------------------
  alpha Z        PSCENC =      2652.81237852
  Ewald energy   TEWEN  =    -41857.10910224
  -Hartree energ DENC   =    -25562.92515295
  -exchange      EXHF   =         0.00000000
  -V(xc)+E(xc)   XCENC  =      3705.04137758
  PAW double counting   =     71151.64497626   -74712.49259170
  entropy T*S    EENTRO =        -0.00000000
  eigenvalues    EBANDS =    -10142.15758730
  atomic energy  EATOM  =     73862.19814772
  Solvation  Ediel_sol  =         0.00000000
  ---------------------------------------------------
  free energy    TOTEN  =      -902.98755410 eV

  energy without entropy =     -902.98755410  energy(sigma->0) =     -902.98755410


--------------------------------------------------------------------------------------------------------




--------------------------------------- Iteration      1(  18)  ---------------------------------------


    POTLOK:  cpu time    0.0624: real time    0.0625
    SETDIJ:  cpu time    2.7295: real time    2.7316
    EDDIAG:  cpu time    3.6344: real time    3.6447
  RMM-DIIS:  cpu time   19.1476: real time   19.2285
    ORTHCH:  cpu time    0.5958: real time    0.6003
       DOS:  cpu time    0.0006: real time    0.0006
    CHARGE:  cpu time    2.1697: real time    2.1746
    MIXING:  cpu time    0.0011: real time    0.0011
    --------------------------------------------
      LOOP:  cpu time   28.3411: real time   28.4440

 eigenvalue-minimisations  : 17719
 total energy-change (2. order) : 0.3951731E+00  (-0.7033645E-01)
 number of electron     672.0000137 magnetization      47.9999982
 augmentation part      250.5986204 magnetization      33.8789385

 Broyden mixing:
  rms(total) = 0.27579E+00    rms(broyden)= 0.27550E+00
  rms(prec ) = 0.29176E+00
  weight for this iteration     100.00

 eigenvalues of (default mixing * dielectric matrix)
  average eigenvalue GAMMA=   1.0191
[...]
   4      -0.854    -0.520     1.374     0.067     0.040    -0.067
   5      -0.741    -0.767     1.508    -0.262     0.078     0.018
   6      -0.649    -0.699     1.348     0.174    -0.065     0.113
   7      -0.742    -1.159     1.902    -0.137    -0.109     0.029
   8      -0.781    -0.949     1.730    -0.100     0.012     0.123
   9      -0.988    -0.565     1.552     0.068     0.106    -0.101
  10      -0.581    -0.740     1.320     0.143    -0.090     0.119
  11      -0.677    -1.151     1.828    -0.114    -0.045    -0.063
  12      -0.683    -0.821     1.504     0.077    -0.085    -0.002
  13      -0.964    -0.494     1.458     0.043     0.012    -0.024
  14      -0.869    -0.971     1.840    -0.297     0.068    -0.034
  15      -0.653    -1.139     1.792     0.025     0.031     0.037
  16      -1.058    -0.547     1.605     0.005     0.000    -0.024
  17       1.394     1.589    -2.982    -0.023     0.109     0.055
  18       1.599     1.380    -2.979     0.026    -0.196     0.144
  19       1.537     1.408    -2.945     0.127    -0.027     0.212
  20       1.248     1.742    -2.989    -0.065     0.196    -0.158
  21       1.385     1.488    -2.873     0.216     0.098     0.028
  22       1.461     1.463    -2.923     0.087    -0.276     0.137
  23       1.317     1.563    -2.880    -0.059    -0.076    -0.084
  24       1.242     1.707    -2.948    -0.130     0.184    -0.032
  25      -0.492     0.797    -0.305    -0.078    -0.752     0.972
  26       0.504    -0.876     0.371     0.275     0.517    -0.275
  27       0.016    -1.107     1.091     0.492    -0.247     0.815
  28      -1.314     1.016     0.298    -0.614     1.211    -0.019
  29      -0.712     0.596     0.115     0.090     1.310     0.231
  30      -0.297     0.476    -0.179     1.150    -0.073     0.124
  31      -0.630    -0.783     1.413    -0.248    -0.094     0.281
  32      -0.754    -0.270     1.024     0.738    -1.489     0.498
  33      -0.192     0.518    -0.326     0.117    -0.586    -0.651
  34      -1.297     0.331     0.966    -2.514    -0.829     1.031
  35       0.244    -0.840     0.596    -1.075    -0.327    -0.774
  36      -0.983     0.232     0.751    -0.543    -0.039     0.573
  37       1.401    -1.035    -0.366     0.443     0.955     0.773
  38      -0.333     0.603    -0.270    -0.637     0.100     1.330
  39      -1.000     0.745     0.254    -0.599     0.560    -0.122
  40       1.525    -0.696    -0.829     0.033    -0.170     0.992
  41      -2.466     3.054    -0.588    -6.050     1.562    -3.537
  42      -4.683     2.933     1.750     4.417     3.032     3.767
  43       5.009    -5.997     0.988     0.958    -4.589    -2.378
  44      -4.369     1.866     2.503    -3.346    -1.592     5.902
  45       3.636    -6.040     2.404     0.058     5.063    -0.947
  46      -4.171     2.745     1.426     3.762    -0.931    -5.490
  47      -2.976     3.229    -0.253    -4.814     2.089    -2.764
  48       6.468    -6.542     0.074     2.630    -4.599     0.227
  49      -3.265     2.300     0.965     5.354     2.439     4.856
  50      -3.200     2.467     0.733    -4.782    -1.716     4.747
  51      -4.146     4.841    -0.695     3.945    -1.467    -3.519
  52       5.751    -6.199     0.447    -1.371     4.865    -2.223
  53      -3.629     2.284     1.345    -4.047     1.944    -4.868
  54      -3.762     2.738     1.024     5.747     1.518     4.746
  55       5.632    -6.274     0.641     1.785    -4.734     0.741
  56      -3.004     1.977     1.026    -4.662    -2.700     5.036
  57       4.171    -4.808     0.637    -0.687     4.229     0.108
  58      -3.446     2.430     1.016     5.424    -2.264    -3.249
  59      -3.368     3.952    -0.584    -5.652     2.176    -3.793
  60       7.108    -5.493    -1.615     0.166    -3.450    -0.900
  61      -3.502     3.272     0.230     4.598     2.880     4.176
  62      -5.102     3.260     1.841    -3.725    -2.794     4.072
  63      -2.340     1.096     1.245     4.739    -2.877    -5.407
  64       5.262    -6.518     1.256     0.400     4.846    -0.371
  65      -5.065     4.671     0.394    -4.294     3.437    -3.718
  66      -4.054     4.134    -0.079     5.304     1.393     4.276
  67       5.531    -6.740     1.209    -0.181    -5.717     1.145
  68      -4.521     3.008     1.513    -5.365    -4.111     3.453
  69       6.174    -7.254     1.080     1.560     4.820    -0.627
  70      -5.014     3.714     1.299     3.980    -1.391    -4.184
  71      -2.403     2.707    -0.304    -5.719    -0.391    -5.461
  72       5.959    -6.444     0.484     0.427    -4.642     0.406
  73      -4.071     1.536     2.535     1.941     2.393     3.718
  74       0.006     0.334    -0.340    -6.300    -2.016     5.867
  75      -4.665     4.470     0.194     3.834    -1.810    -2.958
  76       6.947    -4.857    -2.089    -0.494     2.870     0.102
  77      -4.530     3.045     1.485    -5.854     2.912    -3.438
  78      -3.058     0.158     2.900     4.085     3.809     2.763
  79       3.783    -5.360     1.577    -0.847    -3.971     0.378
  80      -2.385     3.847    -1.461    -6.276    -1.773     3.662
  81       4.567    -5.748     1.181    -0.351     4.914     1.613
  82      -2.766     3.164    -0.397     4.832    -2.237    -2.397
  83      -2.006     2.383    -0.376    -4.644     2.035    -4.487
  84       5.447    -3.982    -1.465    -1.319    -3.495     1.134
  85      -0.567     2.566    -1.998     6.077     1.496     3.048
  86      -3.877     2.433     1.444    -4.624    -1.880     4.757
  87      -1.044     0.295     0.749     4.562    -1.321    -4.311
  88       4.460    -5.825     1.365     0.912     4.428    -0.592
 ---------------------------------------------------------------------


 Total hyperfine coupling parameters after diagonalization (MHz)
 (convention: |A_zz| > |A_xx| > |A_yy|)
 ----------------------------------------------------------------------
  ion      A_xx      A_yy      A_zz     asymmetry (A_yy - A_xx)/ A_zz 
 ----------------------------------------------------------------------
   1       1.640     0.988     3.907      -0.167
   2       2.105     1.694     4.092      -0.101
   3       0.803     0.223     3.305      -0.175
   4       2.007     1.648     3.893      -0.092
   5       1.349     0.824     3.352      -0.157
   6       1.578     1.219     3.433      -0.104
   7       0.406    -0.089     3.019      -0.164
   8       0.852     0.588     3.323      -0.080
   9       2.680     2.233     4.798      -0.093
  10       2.249     1.911     4.076      -0.083
  11       0.658     0.130     3.140      -0.168
  12       2.257     2.052     4.415      -0.046
  13       2.249     1.772     4.198      -0.114
  14       0.952     0.351     3.416      -0.176
  15       0.552     0.063     2.997      -0.163
  16       2.110     1.598     4.262      -0.120
  17      13.858     9.478    14.055      -0.312
  18      14.427    10.051    14.653      -0.299
  19      14.795    10.502    15.074      -0.285
  20      14.283    10.033    14.793      -0.287
  21      13.714     9.623    14.159      -0.289
  22      14.089     9.749    14.245      -0.305
  23      13.825     9.636    14.097      -0.297
  24      13.857     9.686    14.384      -0.290
  25      94.425    93.203    96.024      -0.013
  26      97.759    96.650    98.644      -0.011
  27      99.969    98.205   101.135      -0.017
  28      96.949    94.179    97.575      -0.028
  29      97.777    95.604    98.453      -0.022
  30      98.342    97.364    99.810      -0.010
  31      98.152    97.650   100.085      -0.005
  32      98.392    96.176   100.092      -0.022
  33      93.594    92.646    94.632      -0.010
  34      99.120    95.880   102.019      -0.032
  35      98.521    95.954    98.762      -0.026
  36      97.762    96.523    98.902      -0.013
  37      93.762    92.650    96.195      -0.012
  38      95.315    94.122    97.230      -0.012
  39      98.039    96.399    98.791      -0.017
  40      93.095    91.107    94.408      -0.021
  41       4.536     0.219    15.197      -0.284
  42       8.165     2.677    17.930      -0.306
  43       5.813     0.634    15.707      -0.330
  44       6.640     3.640    18.638      -0.161
  45       5.024     0.770    15.113      -0.282
  46       4.053     0.214    14.975      -0.256
  47       4.540     0.614    13.667      -0.287
  48       6.295     0.970    17.418      -0.306
  49       4.342     0.379    16.075      -0.247
  50       6.599     2.858    17.371      -0.215
  51       5.281     2.005    15.639      -0.209
  52       4.614    -0.140    15.730      -0.302
  53       4.845     1.652    15.667      -0.204
  54       5.197    -0.326    16.028      -0.345
  55       5.265     0.086    15.543      -0.333
  56       3.545     0.816    15.542      -0.176
  57       3.563     0.750    12.672      -0.222
  58       7.989     2.532    17.143      -0.318
  59       8.422     4.551    20.011      -0.193
  60       5.371     2.244    16.291      -0.192
  61       4.386     1.117    15.680      -0.209
  62       7.770     2.615    17.639      -0.292
  63       2.811     0.289    15.242      -0.165
  64       5.542     0.885    15.970      -0.292
  65       7.263     1.636    17.863      -0.315
  66       8.165     3.631    19.312      -0.235
  67       3.236    -1.135    15.332      -0.285
  68       7.467     0.869    17.874      -0.369
  69       6.733     0.623    17.391      -0.351
  70       5.630     0.611    15.281      -0.328
  71       7.388     0.383    16.963      -0.413
  72       4.155    -0.269    14.862      -0.298
  73       5.104     1.859    13.486      -0.241
  74       6.291     0.933    18.218      -0.294
  75       5.740     0.905    14.517      -0.333
  76       3.112     1.107    13.805      -0.145
  77       6.670    -0.092    16.609      -0.407
  78       6.053     1.087    14.736      -0.337
  79       6.635     2.626    14.932      -0.268
  80       5.743     2.359    17.950      -0.189
  81       3.288    -1.308    13.143      -0.350
  82       5.669     1.655    14.476      -0.277
  83      -1.694     0.442    11.575       0.185
  84       3.881     2.199    13.769      -0.122
  85       5.074     2.506    16.311      -0.157
  86       5.620     1.400    16.310      -0.259
  87       4.545     0.230    12.974      -0.333
  88       5.057     0.523    14.213      -0.319
 ---------------------------------------------------------------------



--------------------------------------------------------------------------------------------------------


 stress matrix after NEB project (eV)
    -46.08644      1.00475      1.31323
      1.01175    -44.93861     -4.01250
      1.31916     -4.02357    -59.04858
  FORCES: max atom, RMS     2.612895    1.093200
  FORCE total and by dimension   10.255121    2.334173
  Stress total and by dimension   87.566888   59.048578
     LOOP+:  cpu time  718.0772: real time  720.6341
    4ORBIT:  cpu time    0.0000: real time    0.0000
 


 total charge     
 
# of ion       s       p       d       tot
------------------------------------------
    1        0.052   5.995   0.000   6.047
    2        0.050   5.992   0.000   6.042
    3        0.053   5.997   0.000   6.050
    4        0.049   5.991   0.000   6.041
    5        0.053   5.997   0.000   6.050
    6        0.049   5.992   0.000   6.041
    7        0.051   5.996   0.000   6.047
    8        0.052   5.996   0.000   6.048
    9        0.051   5.994   0.000   6.045
   10        0.053   5.996   0.000   6.049
   11        0.051   5.995   0.000   6.046
   12        0.049   5.991   0.000   6.040
   13        0.052   5.994   0.000   6.046
   14        0.054   5.998   0.000   6.052
   15        0.052   5.997   0.000   6.048
   16        0.051   5.993   0.000   6.045
   17        0.151   6.132   0.087   6.370
   18        0.151   6.130   0.086   6.367
   19        0.145   6.121   0.079   6.345
   20        0.149   6.130   0.086   6.365
   21        0.149   6.128   0.084   6.362
   22        0.147   6.125   0.081   6.353
   23        0.141   6.115   0.074   6.331
   24        0.150   6.130   0.085   6.364
   25        0.375   6.454   4.823  11.651
   26        0.383   6.470   4.845  11.697
   27        0.372   6.448   4.826  11.647
   28        0.375   6.456   4.821  11.652
   29        0.375   6.460   4.840  11.675
   30        0.374   6.452   4.826  11.651
   31        0.368   6.437   4.811  11.616
   32        0.374   6.454   4.831  11.660
   33        0.407   6.525   4.901  11.833
   34        0.358   6.412   4.795  11.564
   35        0.366   6.428   4.816  11.610
   36        0.383   6.470   4.850  11.703
   37        0.383   6.470   4.847  11.700
   38        0.372   6.448   4.825  11.645
   39        0.369   6.442   4.818  11.629
   40        0.380   6.464   4.835  11.678
   41        1.600   3.487   0.000   5.087
   42        1.601   3.545   0.000   5.146
   43        1.599   3.522   0.000   5.121
   44        1.600   3.495   0.000   5.095
   45        1.597   3.488   0.000   5.085
   46        1.599   3.511   0.000   5.110
   47        1.597   3.511   0.000   5.108
   48        1.602   3.515   0.000   5.117
   49        1.599   3.506   0.000   5.105
   50        1.603   3.519   0.000   5.123
   51        1.597   3.484   0.000   5.081
   52        1.599   3.488   0.000   5.087
   53        1.599   3.514   0.000   5.113
   54        1.598   3.495   0.000   5.092
   55        1.601   3.507   0.000   5.107
   56        1.601   3.499   0.000   5.101
   57        1.598   3.500   0.000   5.099
   58        1.599   3.536   0.000   5.136
   59        1.601   3.485   0.000   5.086
   60        1.600   3.503   0.000   5.102
   61        1.598   3.517   0.000   5.115
   62        1.598   3.526   0.000   5.124
   63        1.601   3.494   0.000   5.094
   64        1.599   3.491   0.000   5.089
   65        1.601   3.504   0.000   5.105
   66        1.601   3.508   0.000   5.109
   67        1.598   3.480   0.000   5.077
   68        1.600   3.523   0.000   5.123
   69        1.599   3.488   0.000   5.088
   70        1.600   3.536   0.000   5.135
   71        1.599   3.506   0.000   5.105
   72        1.597   3.472   0.000   5.069
   73        1.596   3.537   0.000   5.133
   74        1.604   3.508   0.000   5.112
   75        1.598   3.513   0.000   5.111
   76        1.600   3.506   0.000   5.106
   77        1.597   3.476   0.000   5.073
   78        1.598   3.534   0.000   5.132
   79        1.597   3.509   0.000   5.106
   80        1.604   3.506   0.000   5.109
   81        1.599   3.513   0.000   5.113
   82        1.597   3.490   0.000   5.087
   83        1.600   3.478   0.000   5.077
   84        1.598   3.491   0.000   5.089
   85        1.601   3.516   0.000   5.116
   86        1.598   3.492   0.000   5.090
   87        1.599   3.514   0.000   5.112
   88        1.595   3.493   0.000   5.088
--------------------------------------------------
tot         84.782 416.446  77.972 579.200
 


 magnetization (x)
 
# of ion       s       p       d       tot
------------------------------------------
    1        0.002   0.001   0.000   0.002
    2        0.002   0.000   0.000   0.002
    3        0.001   0.000   0.000   0.001
    4        0.002   0.000   0.000   0.002
    5        0.001   0.000   0.000   0.002
    6        0.002  -0.000   0.000   0.002
    7        0.001   0.000   0.000   0.001
    8        0.001   0.001   0.000   0.002
    9        0.002   0.000   0.000   0.003
   10        0.002   0.000   0.000   0.002
   11        0.001   0.000   0.000   0.001
   12        0.002   0.000   0.000   0.002
   13        0.002   0.000   0.000   0.002
   14        0.001   0.000   0.000   0.001
   15        0.001   0.000   0.000   0.001
   16        0.002  -0.000   0.000   0.002
   17        0.007   0.002   0.001   0.010
   18        0.008   0.003   0.002   0.012
   19        0.008   0.002   0.001   0.011
   20        0.007   0.002   0.001   0.011
   21        0.007   0.002   0.001   0.010
   22        0.007   0.002   0.001   0.010
   23        0.007   0.002   0.001   0.010
   24        0.007   0.002   0.001   0.011
   25        0.015   0.030   2.752   2.797
   26        0.016   0.032   2.744   2.791
   27        0.016   0.031   2.759   2.806
   28        0.015   0.030   2.759   2.804
   29        0.016   0.030   2.753   2.799
   30        0.016   0.031   2.757   2.804
   31        0.016   0.030   2.778   2.823
   32        0.016   0.030   2.765   2.811
   33        0.015   0.032   2.683   2.730
   34        0.015   0.028   2.806   2.850
   35        0.015   0.028   2.773   2.816
   36        0.016   0.032   2.732   2.780
   37        0.015   0.030   2.740   2.784
   38        0.015   0.031   2.756   2.802
   39        0.016   0.030   2.768   2.814
   40        0.014   0.030   2.745   2.788
   41        0.002   0.026   0.000   0.028
   42        0.002   0.061   0.000   0.063
   43        0.002   0.040   0.000   0.042
   44        0.002   0.046   0.000   0.049
   45        0.002   0.030   0.000   0.032
   46        0.002   0.030   0.000   0.031
   47        0.002   0.023   0.000   0.025
   48        0.002   0.046   0.000   0.048
   49        0.002   0.029   0.000   0.031
   50        0.002   0.043   0.000   0.046
   51        0.002   0.031   0.000   0.033
   52        0.002   0.026   0.000   0.028
   53        0.002   0.028   0.000   0.030
   54        0.002   0.035   0.000   0.036
   55        0.002   0.033   0.000   0.035
   56        0.002   0.018   0.000   0.020
   57        0.002   0.012   0.000   0.014
   58        0.002   0.056   0.000   0.059
   59        0.003   0.056   0.000   0.059
   60        0.002   0.033   0.000   0.035
   61        0.002   0.034   0.000   0.036
   62        0.002   0.055   0.000   0.057
   63        0.002   0.014   0.000   0.016
   64        0.002   0.027   0.000   0.029
   65        0.002   0.046   0.000   0.049
   66        0.003   0.047   0.000   0.050
   67        0.002   0.024   0.000   0.026
   68        0.002   0.050   0.000   0.052
   69        0.002   0.038   0.000   0.040
   70        0.002   0.037   0.000   0.039
   71        0.002   0.043   0.000   0.045
   72        0.002   0.010   0.000   0.012
   73        0.002   0.031   0.000   0.033
   74        0.002   0.034   0.000   0.036
   75        0.002   0.024   0.000   0.026
   76        0.002   0.015   0.000   0.017
   77        0.002   0.038   0.000   0.040
   78        0.002   0.040   0.000   0.041
   79        0.002   0.037   0.000   0.039
   80        0.002   0.039   0.000   0.041
   81        0.001   0.020   0.000   0.021
   82        0.002   0.029   0.000   0.031
   83        0.001  -0.006   0.000  -0.004
   84        0.002   0.016   0.000   0.018
   85        0.002   0.040   0.000   0.042
   86        0.002   0.037   0.000   0.039
   87        0.002   0.019   0.000   0.020
   88        0.002   0.026   0.000   0.028
--------------------------------------------------
tot          0.423   2.078  44.079  46.580
 

 total amount of memory used by VASP MPI-rank0   104111. kBytes
=======================================================================

   base      :      30000. kBytes
   nonlr-proj:      13669. kBytes
   fftplans  :       1316. kBytes
   grid      :      22786. kBytes
   one-center:       2737. kBytes
   wavefun   :      33603. kBytes
 
  
  
 General timing and accounting informations for this job:
 ========================================================
  
                  Total CPU time used (sec):      731.505
                            User time (sec):      727.165
                          System time (sec):        4.340
                         Elapsed time (sec):      735.388
  
                   Maximum memory used (kb):      198184.
                   Average memory used (kb):           0.
  
                          Minor page faults:       320038
                          Major page faults:            0
                 Voluntary context switches:         4243
