 vasp.5.4.4.18Apr17-6-g9f103f2a35 (build Dec 02 2020 12:53:39) complex          
  
 executed on             LinuxIFC date 2021.08.03  20:15:11
 running on   96 total cores
 distrk:  each k-point on   96 cores,    1 groups
 distr:  one band on NCORES_PER_BAND=   1 cores,   96 groups


--------------------------------------------------------------------------------------------------------


 INCAR:
 POTCAR:    PAW_PBE Na_pv 19Sep2006               
 POTCAR:    PAW_PBE Mg_pv 13Apr2007               
 POTCAR:    PAW_PBE Mn_pv 02Aug2007               
 POTCAR:    PAW_PBE O 08Apr2002                   

 ----------------------------------------------------------------------------- 
|                                                                             |
|           W    W    AA    RRRRR   N    N  II  N    N   GGGG   !!!           |
|           W    W   A  A   R    R  NN   N  II  NN   N  G    G  !!!           |
|           W    W  A    A  R    R  N N  N  II  N N  N  G       !!!           |
|           W WW W  AAAAAA  RRRRR   N  N N  II  N  N N  G  GGG   !            |
|           WW  WW  A    A  R   R   N   NN  II  N   NN  G    G                |
|           W    W  A    A  R    R  N    N  II  N    N   GGGG   !!!           |
|                                                                             |
|      For optimal performance we recommend to set                            |
|        NCORE= 4 - approx SQRT( number of cores)                             |
|      NCORE specifies how many cores store one orbital (NPAR=cpu/NCORE).     |
|      This setting can  greatly improve the performance of VASP for DFT.     |
|      The default,   NCORE=1            might be grossly inefficient         |
|      on modern multi-core architectures or massively parallel machines.     |
|      Do your own testing !!!!                                               |
|      Unfortunately you need to use the default for GW and RPA calculations. |
|      (for HF NCORE is supported but not extensively tested yet)             |
|                                                                             |
 ----------------------------------------------------------------------------- 

 POTCAR:    PAW_PBE Na_pv 19Sep2006               
   VRHFIN =Na: p6s1                                                             
   LEXCH  = PE                                                                  
   EATOM  =   766.0439 eV,   56.3026 Ry                                         
                                                                                
   TITEL  = PAW_PBE Na_pv 19Sep2006                                             
   LULTRA =        F    use ultrasoft PP ?                                      
   IUNSCR =        1    unscreen: 0-lin 1-nonlin 2-no                           
   RPACOR =    1.800    partial core radius                                     
   POMASS =   22.990; ZVAL   =    7.000    mass and valenz                      
   RCORE  =    2.200    outmost cutoff radius                                   
   RWIGS  =    2.200; RWIGS  =    1.164    wigner-seitz radius (au A)           
   ENMAX  =  259.561; ENMIN  =  194.671 eV                                      
   ICORE  =        2    local potential                                         
   LCOR   =        T    correct aug charges                                     
   LPAW   =        T    paw PP                                                  
   EAUG   =  368.056                                                            
   DEXC   =    0.000                                                            
   RMAX   =    2.245    core radius for proj-oper                               
   RAUG   =    1.300    factor for augmentation sphere                          
   RDEP   =    2.259    radius for radial grids                                 
   RDEPT  =    1.738    core radius for aug-charge                              
                                                                                
   Atomic configuration                                                         
    5 entries                                                                   
     n  l   j            E        occ.                                          
     1  0  0.50     -1033.6933   2.0000                                         
     2  0  0.50       -56.7526   2.0000                                         
     2  1  1.50       -28.6721   6.0000                                         
     3  0  0.50        -2.7440   1.0000                                         
     3  2  1.50        -1.3606   0.0000                                         
   Description                                                                  
     l       E           TYP  RCUT    TYP  RCUT                                 
     1    -28.6720912     23  2.000                                             
     1      6.8029130     23  2.000                                             
     0     -2.7439560     23  2.200                                             
     0     34.0145650     23  2.200                                             
     2     -1.3605826     23  2.200                                             
  local pseudopotential read in
  partial core-charges read in
  partial kinetic energy density read in
  atomic valenz-charges read in
  non local Contribution for L=           1  read in
    real space projection operators read in
  non local Contribution for L=           1  read in
    real space projection operators read in
  non local Contribution for L=           0  read in
    real space projection operators read in
  non local Contribution for L=           0  read in
    real space projection operators read in
    PAW grid and wavefunctions read in
 
   number of l-projection  operators is LMAX  =           4
   number of lm-projection operators is LMMAX =           8
 
 POTCAR:    PAW_PBE Mg_pv 13Apr2007               
   VRHFIN =Mg: p6s2                                                             
   LEXCH  = PE                                                                  
   EATOM  =  1056.7344 eV,   77.6678 Ry                                         
                                                                                
   TITEL  = PAW_PBE Mg_pv 13Apr2007                                             
   LULTRA =        F    use ultrasoft PP ?                                      
   IUNSCR =        1    unscreen: 0-lin 1-nonlin 2-no                           
   RPACOR =    1.500    partial core radius                                     
   POMASS =   24.305; ZVAL   =    8.000    mass and valenz                      
   RCORE  =    2.000    outmost cutoff radius                                   
   RWIGS  =    2.000; RWIGS  =    1.058    wigner-seitz radius (au A)           
   ENMAX  =  403.929; ENMIN  =  302.947 eV                                      
   RCLOC  =    1.506    cutoff for local pot                                    
   LCOR   =        T    correct aug charges                                     
   LPAW   =        T    paw PP                                                  
   EAUG   =  758.780                                                            
   DEXC   =    0.000                                                            
   RMAX   =    2.045    core radius for proj-oper                               
   RAUG   =    1.300    factor for augmentation sphere                          
   RDEP   =    2.025    radius for radial grids                                 
   RDEPT  =    1.557    core radius for aug-charge                              
                                                                                
   Atomic configuration                                                         
    5 entries                                                                   
     n  l   j            E        occ.                                          
     1  0  0.50     -1259.6230   2.0000                                         
     2  0  0.50       -79.8442   2.0000                                         
     2  1  1.50       -46.6121   6.0000                                         
     3  0  0.50        -4.7055   2.0000                                         
     3  2  1.50        -1.3606   0.0000                                         
   Description                                                                  
     l       E           TYP  RCUT    TYP  RCUT                                 
     1    -46.6121073     23  1.600                                             
     1      2.7211652     23  1.600                                             
     0     -4.7054661     23  2.000                                             
     0     61.2262170     23  2.000                                             
     2     -1.3605826     23  2.000                                             
  local pseudopotential read in
  partial core-charges read in
  partial kinetic energy density read in
  atomic valenz-charges read in
  non local Contribution for L=           1  read in
    real space projection operators read in
  non local Contribution for L=           1  read in
    real space projection operators read in
  non local Contribution for L=           0  read in
    real space projection operators read in
  non local Contribution for L=           0  read in
    real space projection operators read in
  non local Contribution for L=           2  read in
    real space projection operators read in
    PAW grid and wavefunctions read in
 
   number of l-projection  operators is LMAX  =           5
   number of lm-projection operators is LMMAX =          13
 
 POTCAR:    PAW_PBE Mn_pv 02Aug2007               
   VRHFIN =Mn: 3p4s3d                                                           
   LEXCH  = PE                                                                  
   EATOM  =  2025.2664 eV,  148.8529 Ry                                         
                                                                                
   TITEL  = PAW_PBE Mn_pv 02Aug2007                                             
   LULTRA =        F    use ultrasoft PP ?                                      
   IUNSCR =        1    unscreen: 0-lin 1-nonlin 2-no                           
   RPACOR =    2.080    partial core radius                                     
   POMASS =   54.938; ZVAL   =   13.000    mass and valenz                      
   RCORE  =    2.300    outmost cutoff radius                                   
   RWIGS  =    2.500; RWIGS  =    1.323    wigner-seitz radius (au A)           
   ENMAX  =  269.864; ENMIN  =  202.398 eV                                      
   ICORE  =        3    local potential                                         
   LCOR   =        T    correct aug charges                                     
   LPAW   =        T    paw PP                                                  
   EAUG   =  569.085                                                            
   DEXC   =    0.000                                                            
   RMAX   =    2.343    core radius for proj-oper                               
   RAUG   =    1.300    factor for augmentation sphere                          
   RDEP   =    2.338    radius for radial grids                                 
   RDEPT  =    1.798    core radius for aug-charge                              
                                                                                
   Atomic configuration                                                         
    8 entries                                                                   
     n  l   j            E        occ.                                          
     1  0  0.50     -6424.8287   2.0000                                         
     2  0  0.50      -739.1154   2.0000                                         
     2  1  1.50      -625.3949   6.0000                                         
     3  0  0.50       -81.6100   2.0000                                         
     3  1  1.50       -50.4667   6.0000                                         
     3  2  2.50        -3.3745   6.0000                                         
     4  0  0.50        -4.1331   1.0000                                         
     4  3  2.50        -1.3606   0.0000                                         
   Description                                                                  
     l       E           TYP  RCUT    TYP  RCUT                                 
     1    -50.4666628     23  2.000                                             
     1     -1.3605826     23  2.000                                             
     2     -3.3744729     23  2.300                                             
     2     -4.7350555     23  2.300                                             
     0     -4.1331431     23  2.300                                             
     0      7.6656591     23  2.300                                             
     3      9.5240782     23  2.300                                             
  local pseudopotential read in
  partial core-charges read in
  partial kinetic energy density read in
  atomic valenz-charges read in
  non local Contribution for L=           1  read in
    real space projection operators read in
  non local Contribution for L=           1  read in
    real space projection operators read in
  non local Contribution for L=           2  read in
    real space projection operators read in
  non local Contribution for L=           2  read in
    real space projection operators read in
  non local Contribution for L=           0  read in
    real space projection operators read in
  non local Contribution for L=           0  read in
    real space projection operators read in
    PAW grid and wavefunctions read in
 
   number of l-projection  operators is LMAX  =           6
   number of lm-projection operators is LMMAX =          18
 
 POTCAR:    PAW_PBE O 08Apr2002                   
   VRHFIN =O: s2p4                                                              
   LEXCH  = PE                                                                  
   EATOM  =   432.3788 eV,   31.7789 Ry                                         
                                                                                
   TITEL  = PAW_PBE O 08Apr2002                                                 
   LULTRA =        F    use ultrasoft PP ?                                      
   IUNSCR =        1    unscreen: 0-lin 1-nonlin 2-no                           
   RPACOR =    1.200    partial core radius                                     
   POMASS =   16.000; ZVAL   =    6.000    mass and valenz                      
   RCORE  =    1.520    outmost cutoff radius                                   
   RWIGS  =    1.550; RWIGS  =    0.820    wigner-seitz radius (au A)           
   ENMAX  =  400.000; ENMIN  =  300.000 eV                                      
   ICORE  =        2    local potential                                         
   LCOR   =        T    correct aug charges                                     
   LPAW   =        T    paw PP                                                  
   EAUG   =  605.392                                                            
   DEXC   =    0.000                                                            
   RMAX   =    1.553    core radius for proj-oper                               
   RAUG   =    1.300    factor for augmentation sphere                          
   RDEP   =    1.550    radius for radial grids                                 
   RDEPT  =    1.329    core radius for aug-charge                              
                                                                                
   Atomic configuration                                                         
    4 entries                                                                   
     n  l   j            E        occ.                                          
     1  0  0.50      -514.6923   2.0000                                         
     2  0  0.50       -23.9615   2.0000                                         
     2  1  0.50        -9.0305   4.0000                                         
     3  2  1.50        -9.5241   0.0000                                         
   Description                                                                  
     l       E           TYP  RCUT    TYP  RCUT                                 
     0    -23.9615318     23  1.200                                             
     0     -9.5240782     23  1.200                                             
     1     -9.0304911     23  1.520                                             
     1      8.1634956     23  1.520                                             
     2     -9.5240782      7  1.500                                             
  local pseudopotential read in
  partial core-charges read in
  partial kinetic energy density read in
  kinetic energy density of atom read in
  atomic valenz-charges read in
  non local Contribution for L=           0  read in
    real space projection operators read in
  non local Contribution for L=           0  read in
    real space projection operators read in
  non local Contribution for L=           1  read in
    real space projection operators read in
  non local Contribution for L=           1  read in
    real space projection operators read in
    PAW grid and wavefunctions read in
 
   number of l-projection  operators is LMAX  =           4
   number of lm-projection operators is LMMAX =           8
 
 Optimization of the real space projectors (new method)

 maximal supplied QI-value         = 17.01
 optimisation between [QCUT,QGAM] = [ 10.20, 20.41] = [ 29.16,116.64] Ry 
 Optimized for a Real-space Cutoff    1.30 Angstroem

   l    n(q)    QCUT    max X(q) W(low)/X(q) W(high)/X(q)  e(spline) 
   1      7    10.205     4.940    0.23E-03    0.84E-03    0.11E-06
   1      7    10.205     6.253    0.40E-03    0.13E-02    0.18E-06
   0      8    10.205    37.438    0.23E-03    0.37E-03    0.42E-07
   0      8    10.205     9.606    0.16E-03    0.26E-03    0.31E-07
 Optimization of the real space projectors (new method)

 maximal supplied QI-value         = 18.90
 optimisation between [QCUT,QGAM] = [ 10.20, 20.41] = [ 29.16,116.64] Ry 
 Optimized for a Real-space Cutoff    1.26 Angstroem

   l    n(q)    QCUT    max X(q) W(low)/X(q) W(high)/X(q)  e(spline) 
   1      7    10.205     2.974    0.63E-04    0.14E-03    0.13E-06
   1      7    10.205     4.279    0.11E-03    0.45E-03    0.24E-06
   0      8    10.205    16.381    0.44E-03    0.15E-03    0.55E-07
   0      8    10.205     5.611    0.31E-03    0.11E-03    0.40E-07
   2      7    10.205     4.652    0.50E-03    0.47E-03    0.57E-07
 Optimization of the real space projectors (new method)

 maximal supplied QI-value         = 16.25
 optimisation between [QCUT,QGAM] = [ 10.24, 20.48] = [ 29.35,117.42] Ry 
 Optimized for a Real-space Cutoff    1.34 Angstroem

   l    n(q)    QCUT    max X(q) W(low)/X(q) W(high)/X(q)  e(spline) 
   1      8    10.239     3.658    0.23E-03    0.30E-03    0.98E-07
   1      8    10.239     5.612    0.32E-03    0.65E-03    0.21E-06
   2      7    10.239    55.373    0.42E-03    0.45E-03    0.65E-07
   2      7    10.239    50.863    0.43E-03    0.48E-03    0.67E-07
   0      8    10.239    79.536    0.11E-03    0.21E-03    0.56E-07
   0      8    10.239    38.668    0.96E-04    0.19E-03    0.52E-07
 Optimization of the real space projectors (new method)

 maximal supplied QI-value         = 24.76
 optimisation between [QCUT,QGAM] = [ 10.15, 20.30] = [ 28.85,115.39] Ry 
 Optimized for a Real-space Cutoff    1.38 Angstroem

   l    n(q)    QCUT    max X(q) W(low)/X(q) W(high)/X(q)  e(spline) 
   0      8    10.150    20.381    0.22E-03    0.32E-03    0.29E-06
   0      8    10.150    15.268    0.23E-03    0.35E-03    0.30E-06
   1      8    10.150     5.964    0.46E-03    0.53E-03    0.21E-06
   1      8    10.150     5.382    0.38E-03    0.45E-03    0.19E-06
  PAW_PBE Na_pv 19Sep2006               :
 energy of atom  1       EATOM= -766.0439
 kinetic energy error for atom=    0.0103 (will be added to EATOM!!)
  PAW_PBE Mg_pv 13Apr2007               :
 energy of atom  2       EATOM=-1056.7344
 kinetic energy error for atom=    0.0820 (will be added to EATOM!!)
  PAW_PBE Mn_pv 02Aug2007               :
 energy of atom  3       EATOM=-2025.2664
 kinetic energy error for atom=    0.0284 (will be added to EATOM!!)
  PAW_PBE O 08Apr2002                   :
 energy of atom  4       EATOM= -432.3788
 kinetic energy error for atom=    0.1156 (will be added to EATOM!!)
 
 
 POSCAR: Na Mg Mn  O                             
  positions in cartesian coordinates
  No initial velocities read in

 METAGGA = SCAN     LMAXTAU =  6    LMIXTAU =  F

 exchange correlation table for  LEXCH =        8
   RHO(1)=    0.500       N(1)  =     2000
   RHO(2)=  100.500       N(2)  =     4000

 VTST: version 3.2, (02/03/18)

 CHAIN: initializing optimizer
 
 OPT: Using VASP Dynamics algorithm
 CHAIN: Read ICHAIN            0
 
 POSCAR: Na Mg Mn  O                             
  positions in cartesian coordinates
  No initial velocities read in
 


--------------------------------------------------------------------------------------------------------


 ion  position               nearest neighbor table
   1  0.431  0.898  0.247-  42 2.23  88 2.29  79 2.31  51 2.32  29 2.78  31 2.93
   2  0.837  0.582  0.753-  73 2.18  70 2.26  34 2.88
   3  0.269  0.910  0.751-  47 2.18  44 2.34
   4  0.485  0.425  0.753-  71 2.34  48 2.34  33 2.84  35 2.96
   5  0.293  0.106  0.252-  52 2.30  50 2.33  28 2.82  26 2.84
   6  0.806  0.122  0.258-  62 2.31  53 2.33  64 2.36  32 2.79  30 2.88
   7  0.986  0.328  0.747-  80 2.22  57 2.24  60 2.30
   8  0.640  0.120  0.746-  57 2.27  46 2.36  56 2.37
   9  0.469  0.602  0.253-  78 2.27  74 2.32
  10  0.117  0.406  0.256-  55 2.25  64 2.31
  11  0.632  0.412  0.248-  65 2.28  43 2.35  75 2.35
  12  0.173  0.136  0.755-  48 2.24  45 2.28
  13  0.397  0.691  0.760-  84 2.19  85 2.23  81 2.37  38 2.80
  14  0.801  0.904  0.751-  72 2.26  69 2.35
  15  0.007  0.626  0.256-  86 2.22  77 2.35
  16  0.859  0.845  0.247-  76 2.23  63 2.27  67 2.28  54 2.28  27 2.98
  17  0.645  0.270  0.999-  53 2.01  60 2.03  71 2.06  49 2.09  66 2.09  43 2.13
  18  0.625  0.261  0.499-  75 2.01  62 2.04  68 2.06  52 2.08  46 2.09  57 2.16  28 2.84  35 2.85
                            31 2.85
  19  0.143  0.261  0.003-  41 1.94  55 1.98  61 2.06  83 2.07  48 2.10  78 2.13  25 2.81  26 2.85

  20  0.140  0.272  0.502-  58 1.95  80 1.96  87 1.97  50 2.04  64 2.06  45 2.06  40 2.84  27 2.84

  21  0.136  0.762  0.007-  77 1.97  42 2.00  73 2.04  67 2.05  84 2.12  47 2.16  34 2.78  37 2.84

  22  0.130  0.766  0.494-  70 1.95  51 2.06  86 2.06  76 2.06  44 2.11  81 2.12  36 2.84
  23  0.648  0.763  0.998-  54 2.03  72 2.06  79 2.06  85 2.07  65 2.18  59 2.20  33 2.83
  24  0.631  0.777  0.491-  88 1.93  69 1.95  63 2.01  82 2.07  56 2.09  74 2.14  31 2.82  32 2.83

  25  0.980  0.938  0.994-  41 1.85  72 1.89  67 1.91  61 1.94  47 1.96  54 2.01  19 2.81  26 2.84
                            30 2.92  34 2.93
  26  0.308  0.097  0.999-  41 1.83  49 1.90  48 1.92  43 1.95  47 1.96  42 1.97  25 2.84   5 2.84
                            19 2.85  29 2.87  33 2.95
  27  0.969  0.946  0.496-  50 1.86  58 1.88  63 1.92  69 1.96  76 1.97  44 1.99  20 2.84  32 2.85
                            28 2.85  36 2.91  16 2.98
  28  0.297  0.099  0.504-  45 1.86  44 1.88  50 1.88  46 1.96  52 1.97  51 1.97   5 2.82  18 2.84
                            27 2.85  31 2.88  35 2.91
  29  0.481  0.940  0.003-  42 1.87  84 1.91  59 1.93  79 1.93  49 1.93  53 1.98   1 2.78  26 2.87
                            30 2.89  38 2.92
  30  0.814  0.108  0.002-  54 1.81  59 1.91  53 1.92  61 1.94  55 1.95  60 1.96  37 2.83   6 2.88
                            29 2.89  25 2.92
  31  0.463  0.933  0.506-  81 1.83  51 1.87  56 1.90  46 1.93  88 1.93  62 1.99  24 2.82  18 2.85
                            28 2.88  40 2.89  32 2.91   1 2.93
  32  0.799  0.102  0.507-  56 1.92  63 1.92  62 1.93  57 1.94  58 1.95  64 1.97   6 2.79  24 2.83
                            27 2.85  39 2.86  31 2.91
  33  0.479  0.437  0.006-  43 1.88  71 1.89  85 1.92  48 1.96  78 1.96  65 2.05  23 2.83   4 2.84
                            34 2.92  38 2.93  26 2.95
  34  0.815  0.601  0.007-  73 1.86  66 1.89  65 1.90  71 1.91  67 1.94  72 2.03  21 2.78  37 2.85
                             2 2.88  33 2.92  25 2.93
  35  0.470  0.434  0.490-  52 1.88  68 1.90  87 1.92  82 1.93  74 1.99  45 1.99  18 2.85  36 2.89
                            40 2.90  28 2.91   4 2.96
  36  0.802  0.611  0.485-  68 1.87  74 1.91  76 1.91  69 1.93  75 1.97  70 2.00  22 2.84  35 2.89
                            39 2.90  27 2.91
  37  0.977  0.434  0.004-  73 1.91  66 1.91  83 1.93  60 1.93  55 1.96  77 2.04  30 2.83  21 2.84
                            34 2.85  38 2.88
  38  0.309  0.604  0.997-  83 1.83  84 1.89  85 1.96  77 1.96  79 2.00  78 2.01  13 2.80  37 2.88
                            29 2.92  33 2.93
  39  0.956  0.431  0.499-  64 1.82  70 1.87  86 1.88  75 1.92  57 1.95  80 2.02  32 2.86  36 2.90
                            40 2.99
  40  0.301  0.599  0.499-  82 1.87  87 1.90  80 1.92  81 1.95  88 1.96  86 2.00  20 2.84  31 2.89
                            35 2.90  39 2.99
  41  0.144  0.089  0.080-  26 1.83  25 1.85  19 1.94
  42  0.319  0.934  0.089-  29 1.87  26 1.97  21 2.00   1 2.23
  43  0.461  0.269  0.094-  33 1.88  26 1.95  17 2.13  11 2.35
  44  0.135  0.947  0.595-  28 1.88  27 1.99  22 2.11   3 2.34
  45  0.315  0.264  0.592-  28 1.86  35 1.99  20 2.06  12 2.28
  46  0.453  0.087  0.602-  31 1.93  28 1.96  18 2.09   8 2.36
  47  0.146  0.944  0.897-  26 1.96  25 1.96  21 2.16   3 2.18
  48  0.327  0.268  0.907-  26 1.92  33 1.96  19 2.10  12 2.24   4 2.34
  49  0.463  0.090  0.907-  26 1.90  29 1.93  17 2.09
  50  0.138  0.095  0.411-  27 1.86  28 1.88  20 2.04   5 2.33
  51  0.317  0.943  0.409-  31 1.87  28 1.97  22 2.06   1 2.32
  52  0.450  0.265  0.401-  35 1.88  28 1.97  18 2.08   5 2.30
  53  0.652  0.105  0.096-  30 1.92  29 1.98  17 2.01   6 2.33
  54  0.814  0.952  0.084-  30 1.81  25 2.01  23 2.03  16 2.28
  55  0.980  0.269  0.096-  30 1.95  37 1.96  19 1.98  10 2.25
  56  0.630  0.947  0.598-  31 1.90  32 1.92  24 2.09   8 2.37
  57  0.809  0.268  0.603-  32 1.94  39 1.95  18 2.16   7 2.24   8 2.27
  58  0.971  0.103  0.588-  27 1.88  20 1.95  32 1.95
  59  0.649  0.958  0.907-  30 1.91  29 1.93  23 2.20
  60  0.821  0.274  0.906-  37 1.93  30 1.96  17 2.03   7 2.30
  61  0.966  0.095  0.902-  30 1.94  25 1.94  19 2.06
  62  0.635  0.090  0.408-  32 1.93  31 1.99  18 2.04   6 2.31
  63  0.810  0.952  0.407-  27 1.92  32 1.92  24 2.01  16 2.27
  64  0.961  0.276  0.416-  39 1.82  32 1.97  20 2.06  10 2.31   6 2.36
  65  0.659  0.590  0.110-  34 1.90  33 2.05  23 2.18  11 2.28
  66  0.824  0.446  0.097-  34 1.89  37 1.91  17 2.09
  67  0.966  0.779  0.096-  25 1.91  34 1.94  21 2.05  16 2.28
  68  0.643  0.457  0.577-  36 1.87  35 1.90  18 2.06
  69  0.797  0.771  0.577-  36 1.93  24 1.95  27 1.96  14 2.35
  70  0.963  0.596  0.581-  39 1.87  22 1.95  36 2.00   2 2.26
  71  0.645  0.453  0.914-  33 1.89  34 1.91  17 2.06   4 2.34
  72  0.828  0.772  0.903-  25 1.89  34 2.03  23 2.06  14 2.26
  73  0.961  0.587  0.913-  34 1.86  37 1.91  21 2.04   2 2.18
  74  0.637  0.598  0.392-  36 1.91  35 1.99  24 2.14   9 2.32
  75  0.796  0.432  0.405-  39 1.92  36 1.97  18 2.01  11 2.35
  76  0.961  0.778  0.397-  36 1.91  27 1.97  22 2.06  16 2.23
  77  0.151  0.604  0.100-  38 1.96  21 1.97  37 2.04  15 2.35
  78  0.321  0.447  0.102-  33 1.96  38 2.01  19 2.13   9 2.27
  79  0.477  0.773  0.092-  29 1.93  38 2.00  23 2.06   1 2.31
  80  0.135  0.439  0.589-  40 1.92  20 1.96  39 2.02   7 2.22
  81  0.313  0.770  0.591-  31 1.83  40 1.95  22 2.12  13 2.37
  82  0.458  0.590  0.582-  40 1.87  35 1.93  24 2.07
  83  0.149  0.447  0.916-  38 1.83  37 1.93  19 2.07
  84  0.324  0.774  0.912-  38 1.89  29 1.91  21 2.12  13 2.19
  85  0.466  0.586  0.906-  33 1.92  38 1.96  23 2.07  13 2.23
  86  0.121  0.581  0.407-  39 1.88  40 2.00  22 2.06  15 2.22
  87  0.305  0.441  0.409-  40 1.90  35 1.92  20 1.97
  88  0.460  0.773  0.408-  31 1.93  24 1.93  40 1.96   1 2.29
 
  LATTYP: Found a hexagonal cell.
 ALAT       =    10.0190000534
 C/A-ratio  =     1.1196726572
  
  Lattice vectors:
  
 A1 = (  10.0190000534,   0.0000000000,   0.0000000000)
 A2 = (  -5.0095000267,   8.6767085668,   0.0000000000)
 A3 = (   0.0000000000,   0.0000000000,  11.2180004120)


Analysis of symmetry for initial positions (statically):
=====================================================================
 Subroutine PRICEL returns:
 Original cell was already a primitive cell.
 

 Routine SETGRP: Setting up the symmetry group for a 
 hexagonal supercell.


 Subroutine GETGRP returns: Found  1 space group operations
 (whereof  1 operations were pure point group operations)
 out of a pool of 24 trial point group operations.


The static configuration has the point symmetry C_1 .


Analysis of symmetry for dynamics (positions and initial velocities):
=====================================================================
 Subroutine PRICEL returns:
 Original cell was already a primitive cell.
 

 Routine SETGRP: Setting up the symmetry group for a 
 hexagonal supercell.


 Subroutine GETGRP returns: Found  1 space group operations
 (whereof  1 operations were pure point group operations)
 out of a pool of 24 trial point group operations.


The dynamic configuration has the point symmetry C_1 .


Analysis of structural, dynamic, and magnetic symmetry:
=====================================================================
 Subroutine PRICEL returns:
 Original cell was already a primitive cell.
 

 Routine SETGRP: Setting up the symmetry group for a 
 hexagonal supercell.


 Subroutine GETGRP returns: Found  1 space group operations
 (whereof  1 operations were pure point group operations)
 out of a pool of 24 trial point group operations.


The magnetic configuration has the point symmetry C_1 .


 Subroutine INISYM returns: Found  1 space group operations
 (whereof  1 operations are pure point group operations),
 and found     1 'primitive' translations

 
 

Automatic generation of k-mesh.
 generate k-points for:    2    2    2
Space group operators:
 irot       det(A)        alpha          n_x          n_y          n_z        tau_x        tau_y        tau_z
    1     1.000000     0.000000     1.000000     0.000000     0.000000     0.000000     0.000000     0.000000
 
 Subroutine IBZKPT returns following result:
 ===========================================
 
 Found      8 irreducible k-points:
 
 Following reciprocal coordinates:
            Coordinates               Weight
  0.000000  0.000000  0.000000      1.000000
  0.500000 -0.000000 -0.000000      1.000000
  0.000000  0.500000  0.000000      1.000000
  0.500000  0.500000 -0.000000      1.000000
  0.000000  0.000000  0.500000      1.000000
  0.500000 -0.000000  0.500000      1.000000
  0.000000  0.500000  0.500000      1.000000
  0.500000  0.500000  0.500000      1.000000
 
 Following cartesian coordinates:
            Coordinates               Weight
  0.000000  0.000000  0.000000      1.000000
  0.049905  0.028813 -0.000000      1.000000
  0.000000  0.057626  0.000000      1.000000
  0.049905  0.086438 -0.000000      1.000000
  0.000000  0.000000  0.044571      1.000000
  0.049905  0.028813  0.044571      1.000000
  0.000000  0.057626  0.044571      1.000000
  0.049905  0.086438  0.044571      1.000000
 


--------------------------------------------------------------------------------------------------------




 Dimension of arrays:
   k-points           NKPTS =      8   k-points in BZ     NKDIM =      8   number of bands    NBANDS=    480
   number of dos      NEDOS =    301   number of ions     NIONS =     88
   non local maximal  LDIM  =      6   non local SUM 2l+1 LMDIM =     18
   total plane-waves  NPLWV = 140000
   max r-space proj   IRMAX =   1632   max aug-charges    IRDMAX=   4555
   dimension x,y,z NGX =    50 NGY =   50 NGZ =   56
   dimension x,y,z NGXF=   100 NGYF=  100 NGZF=  112
   support grid    NGXF=   100 NGYF=  100 NGZF=  112
   ions per type =              16   8  16  48
   NGX,Y,Z   is equivalent  to a cutoff of   8.30,  8.30,  8.30 a.u.
   NGXF,Y,Z  is equivalent  to a cutoff of  16.59, 16.59, 16.60 a.u.

 SYSTEM =  unknown system                          
 POSCAR =  Na Mg Mn  O                             

 Startparameter for this run:
   NWRITE =      2    write-flag & timer
   PREC   = normal    normal or accurate (medium, high low for compatibility)
   ISTART =      0    job   : 0-new  1-cont  2-samecut
   ICHARG =      1    charge: 1-file 2-atom 10-const
   ISPIN  =      2    spin polarized calculation?
   LNONCOLLINEAR =      F non collinear calculations
   LSORBIT =      F    spin-orbit coupling
   INIWAV =      1    electr: 0-lowe 1-rand  2-diag
   LASPH  =      T    aspherical Exc in radial PAW
   METAGGA=      F    non-selfconsistent MetaGGA calc.

 Electronic Relaxation 1
   ENCUT  =  400.0 eV  29.40 Ry    5.42 a.u.  16.34 16.34 18.29*2*pi/ulx,y,z
   ENINI  =  400.0     initial cutoff
   ENAUG  =  758.8 eV  augmentation charge cutoff
   NELM   =    200;   NELMIN=  6; NELMDL=-12     # of ELM steps 
   EDIFF  = 0.1E-04   stopping-criterion for ELM
   LREAL  =      T    real-space projection
   NLSPLINE    = F    spline interpolate recip. space projectors
   LCOMPAT=      F    compatible to vasp.4.4
   GGA_COMPAT  = T    GGA compatible to vasp.4.4-vasp.4.6
   LMAXPAW     = -100 max onsite density
   LMAXMIX     =    4 max onsite mixed and CHGCAR
   VOSKOWN=      0    Vosko Wilk Nusair interpolation
   ROPT   =   -0.00050  -0.00050  -0.00050  -0.00050
 Ionic relaxation
   EDIFFG = 0.1E-03   stopping-criterion for IOM
   NSW    =      1    number of steps for IOM
   NBLOCK =      1;   KBLOCK =      1    inner block; outer block 
   IBRION =     -1    ionic relax: 0-MD 1-quasi-New 2-CG
   NFREE  =      0    steps in history (QN), initial steepest desc. (CG)
   ISIF   =      2    stress and relaxation
   IWAVPR =     10    prediction:  0-non 1-charg 2-wave 3-comb
   ISYM   =      2    0-nonsym 1-usesym 2-fastsym
   LCORR  =      T    Harris-Foulkes like correction to forces

   POTIM  = 0.5000    time-step for ionic-motion
   TEIN   =    0.0    initial temperature
   TEBEG  =    0.0;   TEEND  =   0.0 temperature during run
   SMASS  =  -3.00    Nose mass-parameter (am)
   estimated Nose-frequenzy (Omega)   =  0.10E-29 period in steps =****** mass=  -0.229E-26a.u.
   SCALEE = 1.0000    scale energy and forces
   NPACO  =    256;   APACO  = 16.0  distance and # of slots for P.C.
   PSTRESS=    0.0 pullay stress

  Mass of Ions in am
   POMASS =  22.99 24.30 54.94 16.00
  Ionic Valenz
   ZVAL   =   7.00  8.00 13.00  6.00
  Atomic Wigner-Seitz radii
   RWIGS  =  -1.00 -1.00 -1.00 -1.00
  virtual crystal weights 
   VCA    =   1.00  1.00  1.00  1.00
   NELECT =     672.0000    total number of electrons
   NUPDOWN=      48.0000    fix difference up-down

 DOS related values:
   EMIN   =  10.00;   EMAX   =-10.00  energy-range for DOS
   EFERMI =   0.00
   ISMEAR =     0;   SIGMA  =   0.05  broadening in eV -4-tet -1-fermi 0-gaus

 Electronic relaxation 2 (details)
   IALGO  =     48    algorithm
   LDIAG  =      T    sub-space diagonalisation (order eigenvalues)
   LSUBROT=      F    optimize rotation matrix (better conditioning)
   TURBO    =      0    0=normal 1=particle mesh
   IRESTART =      0    0=no restart 2=restart with 2 vectors
   NREBOOT  =      0    no. of reboots
   NMIN     =      0    reboot dimension
   EREF     =   0.00    reference energy to select bands
   IMIX   =      4    mixing-type and parameters
     AMIX     =   0.40;   BMIX     =  1.00
     AMIX_MAG =   1.60;   BMIX_MAG =  1.00
     AMIN     =   0.10
     WC   =   100.;   INIMIX=   1;  MIXPRE=   1;  MAXMIX= -45

 Intra band minimization:
   WEIMIN = 0.0000     energy-eigenvalue tresh-hold
   EBREAK =  0.52E-08  absolut break condition
   DEPER  =   0.30     relativ break condition  

   TIME   =   0.40     timestep for ELM

  volume/ion in A,a.u.               =      11.08        74.78
  Fermi-wavevector in a.u.,A,eV,Ry     =   1.445993  2.732531 28.448379  2.090897
  Thomas-Fermi vector in A             =   2.564112
 
 Write flags
   LWAVE        =      F    write WAVECAR
   LDOWNSAMPLE  =      F    k-point downsampling of WAVECAR
   LCHARG       =      F    write CHGCAR
   LVTOT        =      F    write LOCPOT, total local potential
   LVHAR        =      F    write LOCPOT, Hartree potential only
   LELF         =      F    write electronic localiz. function (ELF)
   LORBIT       =     11    0 simple, 1 ext, 2 COOP (PROOUT), +10 PAW based schemes


 Dipole corrections
   LMONO  =      F    monopole corrections only (constant potential shift)
   LDIPOL =      F    correct potential (dipole corrections)
   IDIPOL =      0    1-x, 2-y, 3-z, 4-all directions 
   EPSILON=  1.0000000 bulk dielectric constant

 Exchange correlation treatment:
   GGA     =    --    GGA type
   LEXCH   =     8    internal setting for exchange type
   VOSKOWN=      0    Vosko Wilk Nusair interpolation
   LHFCALC =     F    Hartree Fock is set to
   LHFONE  =     F    Hartree Fock one center treatment
   AEXX    =    0.0000 exact exchange contribution

 Linear response parameters
   LEPSILON=     F    determine dielectric tensor
   LRPA    =     F    only Hartree local field effects (RPA)
   LNABLA  =     F    use nabla operator in PAW spheres
   LVEL    =     F    velocity operator in full k-point grid
   LINTERFAST=   F  fast interpolation
   KINTER  =     0    interpolate to denser k-point grid
   CSHIFT  =0.1000    complex shift for real part using Kramers Kronig
   OMEGAMAX=  -1.0    maximum frequency
   DEG_THRESHOLD= 0.2000000E-02 threshold for treating states as degnerate
   RTIME   =   -0.100 relaxation time in fs
  (WPLASMAI=    0.000 imaginary part of plasma frequency in eV, 0.658/RTIME)
   DFIELD  = 0.0000000 0.0000000 0.0000000 field for delta impulse in time
 
 Orbital magnetization related:
   ORBITALMAG=     F  switch on orbital magnetization
   LCHIMAG   =     F  perturbation theory with respect to B field
   DQ        =  0.001000  dq finite difference perturbation B field
   LLRAUG    =     F  two centre corrections for induced B field



--------------------------------------------------------------------------------------------------------


 Static calculation
 charge density and potential will be updated during run
 spin polarized calculation
 RMM-DIIS sequential band-by-band
 perform sub-space diagonalisation
    before iterative eigenvector-optimisation
 modified Broyden-mixing scheme, WC =      100.0
 initial mixing is a Kerker type mixing with AMIX =  0.4000 and BMIX =      1.0000
 Hartree-type preconditioning will be used
 using additional bands          144
 real space projection scheme for non local part
 use partial core corrections
 calculate Harris-corrections to forces 
   (improved forces if not selfconsistent)
 use gradient corrections 
 use of overlap-Matrix (Vanderbilt PP)
 Gauss-broadening in eV      SIGMA  =   0.05


--------------------------------------------------------------------------------------------------------


  energy-cutoff  :      400.00
  volume of cell :      975.20
      direct lattice vectors                 reciprocal lattice vectors
    10.019000053  0.000000000  0.000000000     0.099810360  0.057625538 -0.000000000
    -5.009500027  8.676708567  0.000000000     0.000000000  0.115251076  0.000000000
     0.000000000  0.000000000 11.218000412     0.000000000  0.000000000  0.089142446

  length of vectors
    10.019000053 10.019000053 11.218000412     0.115251076  0.115251076  0.089142446


 
 k-points in units of 2pi/SCALE and weight: read from INCAR                         
   0.00000000  0.00000000  0.00000000       0.125
   0.04990518  0.02881277 -0.00000000       0.125
   0.00000000  0.05762554  0.00000000       0.125
   0.04990518  0.08643831 -0.00000000       0.125
   0.00000000  0.00000000  0.04457122       0.125
   0.04990518  0.02881277  0.04457122       0.125
   0.00000000  0.05762554  0.04457122       0.125
   0.04990518  0.08643831  0.04457122       0.125
 
 k-points in reciprocal lattice and weights: read from INCAR                         
   0.00000000  0.00000000  0.00000000       0.125
   0.50000000 -0.00000000 -0.00000000       0.125
   0.00000000  0.50000000  0.00000000       0.125
   0.50000000  0.50000000 -0.00000000       0.125
   0.00000000  0.00000000  0.50000000       0.125
   0.50000000 -0.00000000  0.50000000       0.125
   0.00000000  0.50000000  0.50000000       0.125
   0.50000000  0.50000000  0.50000000       0.125
 
 position of ions in fractional coordinates (direct lattice) 
   0.43130894  0.89774314  0.24721429
   0.83653055  0.58155496  0.75261363
   0.26910447  0.90994264  0.75050630
   0.48484448  0.42464456  0.75328487
   0.29272895  0.10616457  0.25217061
   0.80622460  0.12196116  0.25787305
   0.98562423  0.32817036  0.74666783
   0.63952103  0.11992319  0.74599569
   0.46898934  0.60201301  0.25250400
   0.11659471  0.40614084  0.25562755
   0.63175845  0.41191492  0.24833481
   0.17267389  0.13593766  0.75476285
   0.39746034  0.69069871  0.75986358
   0.80088009  0.90378626  0.75066141
   0.00653002  0.62623500  0.25585576
   0.85902446  0.84458853  0.24733998
   0.64538209  0.27022920  0.99866212
   0.62477473  0.26148279  0.49887411
   0.14326179  0.26147357  0.00266465
   0.14014472  0.27241897  0.50206274
   0.13576866  0.76185571  0.00701547
   0.12971617  0.76644501  0.49393473
   0.64774262  0.76252187  0.99807176
   0.63063079  0.77655253  0.49131216
   0.98044402  0.93798356  0.99382024
   0.30767011  0.09725658  0.99933004
   0.96947849  0.94550254  0.49575858
   0.29703906  0.09875323  0.50368335
   0.48141210  0.93990595  0.00272772
   0.81404127  0.10757351  0.00214830
   0.46314744  0.93295170  0.50647796
   0.79855513  0.10211476  0.50653947
   0.47900172  0.43667596  0.00593459
   0.81507520  0.60069437  0.00702805
   0.46986340  0.43412545  0.48995452
   0.80240243  0.61064976  0.48546174
   0.97711309  0.43424416  0.00395300
   0.30861445  0.60359294  0.99678382
   0.95648221  0.43092032  0.49862808
   0.30086290  0.59947617  0.49917096
   0.14412189  0.08897279  0.07957657
   0.31880127  0.93363808  0.08868327
   0.46057527  0.26871019  0.09436798
   0.13496071  0.94703890  0.59496254
   0.31493523  0.26428109  0.59164911
   0.45271467  0.08710815  0.60244872
   0.14587902  0.94365744  0.89651450
   0.32712301  0.26793801  0.90729182
   0.46330903  0.09025715  0.90697982
   0.13833820  0.09499939  0.41117132
   0.31667777  0.94329267  0.40942145
   0.44986388  0.26514547  0.40145836
   0.65243694  0.10484194  0.09593867
   0.81393628  0.95164341  0.08390595
   0.97994361  0.26929336  0.09622125
   0.63013367  0.94734789  0.59752449
   0.80932842  0.26799909  0.60291850
   0.97144836  0.10340776  0.58796129
   0.64946032  0.95769098  0.90694416
   0.82101833  0.27394605  0.90553571
   0.96613294  0.09531610  0.90243356
   0.63541834  0.09047936  0.40831787
   0.80959520  0.95213980  0.40660901
   0.96098317  0.27643086  0.41619360
   0.65891730  0.59026300  0.10980656
   0.82393794  0.44641467  0.09714298
   0.96632141  0.77874922  0.09582456
   0.64305870  0.45671927  0.57658404
   0.79748502  0.77131898  0.57710552
   0.96262872  0.59599904  0.58135940
   0.64469995  0.45273158  0.91441430
   0.82807169  0.77230668  0.90339629
   0.96127816  0.58724342  0.91347830
   0.63749119  0.59799865  0.39226153
   0.79626838  0.43245892  0.40545372
   0.96095004  0.77844265  0.39707879
   0.15149220  0.60401245  0.10042966
   0.32065533  0.44712462  0.10174897
   0.47664463  0.77300280  0.09224639
   0.13466739  0.43941663  0.58867800
   0.31296902  0.77037162  0.59105988
   0.45827866  0.59012354  0.58230609
   0.14861716  0.44677080  0.91642892
   0.32424909  0.77407579  0.91240860
   0.46567560  0.58575783  0.90608840
   0.12127283  0.58072712  0.40737296
   0.30472258  0.44101977  0.40932607
   0.45980391  0.77326327  0.40821268
 
 position of ions in cartesian coordinates  (Angst):
  -0.17595997  7.78945557  2.77325000
   5.46790005  5.04598287  8.44282000
  -1.86219995  7.89530713  8.41918000
   2.73039995  3.68451713  8.45035000
   2.40102000  0.92115900  2.82885000
   7.46659992  1.05822143  2.89282000
   8.23099981  2.84743857  8.37612000
   5.80660603  1.04053857  8.36858000
   1.68302003  5.22349143  2.83259000
  -0.86640011  3.52396573  2.86763000
   4.26610011  3.57406573  2.78582000
   1.04904003  1.17949143  8.46693000
   0.52209992  5.99299143  8.52415000
   3.49650032  7.84189000  8.42092000
  -3.07169997  5.43365857  2.87019000
   4.37559987  7.32824857  2.77466000
   5.11237000  2.34470000 11.20299211
   4.94972000  2.26881000  5.59637000
   0.12548800  2.26873000  0.02989200
   0.03942710  2.36370000  5.63214000
  -2.45625000  6.61040000  0.07869959
  -2.53988000  6.65022000  5.54096000
   2.66988000  6.61618000 11.19636941
   2.42815000  6.73792000  5.51154000
   5.12424000  8.13861000 11.14867591
   2.59534000  0.84386700 11.21048476
   4.97671000  8.20385000  5.56142000
   2.48133000  0.85685300  5.65032000
   0.11480900  8.15529000  0.03059959
   7.61699000  0.93338400  0.02409959
  -0.03334730  8.09495000  5.68167000
   7.48918000  0.88602000  5.68236000
   2.61159000  3.78891000  0.06657420
   5.15706000  5.21205000  0.07884070
   2.53281000  3.76678000  5.49631000
   4.98022000  5.29843000  5.44591000
   7.61435000  3.76781000  0.04434480
   0.06830940  5.23720000 11.18192131
   7.42430000  3.73897000  5.59361000
   0.01126950  5.20148000  5.59970000
   0.99824800  0.77199100  0.89269000
  -1.48299003  8.10090557  0.99484900
   3.26840000  2.33152000  1.05862000
  -3.39202003  8.21718057  6.67429000
   1.83142000  2.29309000  6.63712000
   4.09938000  0.75581200  6.75827000
  -3.26569003  8.18784057 10.05710000
   1.93521000  2.32482000 10.17800000
   4.18975000  0.78313500 10.17450000
   0.91011100  0.82428200  4.61252000
  -1.55263003  8.18467557  4.59289000
   3.17894000  2.30059000  4.50356000
   6.01156000  0.90968300  1.07624000
   3.38756997  8.25713257  0.94125700
   8.46903000  2.33658000  1.07941000
   1.56756997  8.21986157  6.70303000
   6.76612000  2.32535000  6.76354000
   9.21492000  0.89723900  6.59575000
   1.70938997  8.30960557 10.17410000
   6.85345000  2.37695000 10.15830000
   9.20220000  0.82703000 10.12350000
   5.91300000  0.78506300  4.58051000
   3.34158997  8.26143957  4.56134000
   8.24331000  2.39851000  4.66886000
   3.64477000  5.12154000  1.23181000
   6.01872000  3.87341000  1.08975000
   5.78043000  6.75698000  1.07496000
   4.15487000  3.96282000  6.46812000
   4.12608000  6.69251000  6.47397000
   6.65892000  5.17131000  6.52169000
   4.19129000  3.92822000 10.25790000
   4.42758000  6.70108000 10.13430000
   6.68925000  5.09534000 10.24740000
   3.39135000  5.18866000  4.40039000
   5.81141000  3.75232000  4.54838000
   5.72815000  6.75432000  4.45443000
  -1.50800000  5.24084000  1.12662000
   0.97277500  3.87957000  1.14142000
   0.90314500  6.70712000  1.03482000
  -0.85202500  3.81269000  6.60379000
  -0.72354000  6.68429000  6.63051000
   1.63527000  5.12033000  6.53231000
  -0.74910300  3.87650000 10.28050000
  -0.62908100  6.71643000 10.23540000
   1.73125000  5.08245000 10.16450000
  -1.69412000  5.03880000  4.56991000
   0.84372700  3.82660000  4.59182000
   0.73311300  6.70938000  4.57933000
 


--------------------------------------------------------------------------------------------------------


 k-point  1 :   0.0000 0.0000 0.0000  plane waves:   17725
 k-point  2 :   0.5000-0.0000-0.0000  plane waves:   17736
 k-point  3 :   0.0000 0.5000 0.0000  plane waves:   17736
 k-point  4 :   0.5000 0.5000-0.0000  plane waves:   17736
 k-point  5 :   0.0000 0.0000 0.5000  plane waves:   17676
 k-point  6 :   0.5000-0.0000 0.5000  plane waves:   17700
 k-point  7 :   0.0000 0.5000 0.5000  plane waves:   17700
 k-point  8 :   0.5000 0.5000 0.5000  plane waves:   17700

 maximum and minimum number of plane-waves per node :     17736    17676

 maximum number of plane-waves:     17736
 maximum index in each direction: 
   IXMAX=   16   IYMAX=   16   IZMAX=   18
   IXMIN=  -16   IYMIN=  -16   IZMIN=  -18


 serial   3D FFT for wavefunctions
 parallel 3D FFT for charge:
    minimum data exchange during FFTs selected (reduces bandwidth)


 total amount of memory used by VASP MPI-rank0    94456. kBytes
=======================================================================

   base      :      30000. kBytes
   nonlr-proj:      13697. kBytes
   fftplans  :       1275. kBytes
   grid      :      22786. kBytes
   one-center:       2737. kBytes
   wavefun   :      23961. kBytes
 
     INWAV:  cpu time    0.0000: real time    0.0001
 Broyden mixing: mesh for mixing (old mesh)
   NGX = 33   NGY = 33   NGZ = 37
  (NGX  =100   NGY  =100   NGZ  =112)
  gives a total of  40293 points

 initial charge density was supplied:
 charge density of overlapping atoms calculated
 number of electron     672.0000000 magnetization      48.0000000
 keeping initial charge density in first step


--------------------------------------------------------------------------------------------------------


 Maximum index for non-local projection operator         1554
 Maximum index for augmentation-charges          558 (set IRDMAX)


--------------------------------------------------------------------------------------------------------


 First call to EWALD:  gamma=   0.179
 Maximum number of real-space cells 3x 3x 2
 Maximum number of reciprocal cells 3x 3x 3

    FEWALD:  cpu time    0.0027: real time    0.0027


--------------------------------------- Iteration      1(   1)  ---------------------------------------


    POTLOK:  cpu time    0.1966: real time    0.1974
    SETDIJ:  cpu time    4.6516: real time    4.6527
    EDDIAG:  cpu time    4.4152: real time    4.8329
  RMM-DIIS:  cpu time    9.1964: real time    9.2044
    ORTHCH:  cpu time    1.1777: real time    1.2578
       DOS:  cpu time    0.0019: real time    0.0022
    --------------------------------------------
      LOOP:  cpu time   19.6395: real time   20.1473

 eigenvalue-minimisations  :  7680
 total energy-change (2. order) : 0.1502814E+04  (-0.3497311E+05)
 number of electron     672.0000000 magnetization      48.0000000
 augmentation part      672.0000000 magnetization      48.0000000

 Free energy of the ion-electron system (eV)
  ---------------------------------------------------
  alpha Z        PSCENC =      2652.81237852
  Ewald energy   TEWEN  =    -41771.27123119
  -Hartree energ DENC   =    -25838.30645693
  -exchange      EXHF   =         0.00000000
  -V(xc)+E(xc)   XCENC  =      3606.16569204
  PAW double counting   =     55594.23204139   -59034.67079123
  entropy T*S    EENTRO =        -0.05048503
  eigenvalues    EBANDS =     -7568.29578724
  atomic energy  EATOM  =     73862.19814772
  Solvation  Ediel_sol  =         0.00000000
  ---------------------------------------------------
  free energy    TOTEN  =      1502.81350805 eV

  energy without entropy =     1502.86399308  energy(sigma->0) =     1502.83875057


--------------------------------------------------------------------------------------------------------




--------------------------------------- Iteration      1(   2)  ---------------------------------------


    EDDIAG:  cpu time    4.4436: real time    4.8672
  RMM-DIIS:  cpu time    9.1082: real time    9.1709
    ORTHCH:  cpu time    1.1690: real time    1.2562
       DOS:  cpu time    0.0020: real time    0.0020
    --------------------------------------------
      LOOP:  cpu time   14.7228: real time   15.2964

 eigenvalue-minimisations  :  7680
 total energy-change (2. order) :-0.2216624E+04  (-0.7998244E+04)
 number of electron     672.0000000 magnetization      48.0000000
 augmentation part      672.0000000 magnetization      48.0000000

 Free energy of the ion-electron system (eV)
  ---------------------------------------------------
  alpha Z        PSCENC =      2652.81237852
  Ewald energy   TEWEN  =    -41771.27123119
  -Hartree energ DENC   =    -25838.30645693
  -exchange      EXHF   =         0.00000000
  -V(xc)+E(xc)   XCENC  =      3606.16569204
  PAW double counting   =     55594.23204139   -59034.67079123
  entropy T*S    EENTRO =        -0.06201412
  eigenvalues    EBANDS =     -9784.90870466
  atomic energy  EATOM  =     73862.19814772
  Solvation  Ediel_sol  =         0.00000000
  ---------------------------------------------------
  free energy    TOTEN  =      -713.81093847 eV

  energy without entropy =     -713.74892434  energy(sigma->0) =     -713.77993140


--------------------------------------------------------------------------------------------------------




--------------------------------------- Iteration      1(   3)  ---------------------------------------


    EDDIAG:  cpu time    4.3963: real time    4.8373
  RMM-DIIS:  cpu time    9.1917: real time    9.2002
    ORTHCH:  cpu time    1.1778: real time    1.2597
       DOS:  cpu time    0.0021: real time    0.0021
    --------------------------------------------
      LOOP:  cpu time   14.7680: real time   15.2993

 eigenvalue-minimisations  :  7680
 total energy-change (2. order) : 0.6856329E+02  (-0.1419458E+04)
 number of electron     672.0000000 magnetization      48.0000000
 augmentation part      672.0000000 magnetization      48.0000000

 Free energy of the ion-electron system (eV)
  ---------------------------------------------------
  alpha Z        PSCENC =      2652.81237852
  Ewald energy   TEWEN  =    -41771.27123119
  -Hartree energ DENC   =    -25838.30645693
  -exchange      EXHF   =         0.00000000
  -V(xc)+E(xc)   XCENC  =      3606.16569204
  PAW double counting   =     55594.23204139   -59034.67079123
  entropy T*S    EENTRO =        -0.04590511
  eigenvalues    EBANDS =     -9716.36152051
  atomic energy  EATOM  =     73862.19814772
  Solvation  Ediel_sol  =         0.00000000
  ---------------------------------------------------
  free energy    TOTEN  =      -645.24764530 eV

  energy without entropy =     -645.20174019  energy(sigma->0) =     -645.22469275


--------------------------------------------------------------------------------------------------------




--------------------------------------- Iteration      1(   4)  ---------------------------------------


    EDDIAG:  cpu time    4.4334: real time    4.8583
  RMM-DIIS:  cpu time    9.1590: real time    9.1913
    ORTHCH:  cpu time    1.1698: real time    1.2563
       DOS:  cpu time    0.0012: real time    0.0012
    --------------------------------------------
      LOOP:  cpu time   14.7633: real time   15.3071

 eigenvalue-minimisations  :  7680
 total energy-change (2. order) :-0.4671564E+03  (-0.4293895E+03)
 number of electron     672.0000000 magnetization      48.0000000
 augmentation part      672.0000000 magnetization      48.0000000

 Free energy of the ion-electron system (eV)
  ---------------------------------------------------
  alpha Z        PSCENC =      2652.81237852
  Ewald energy   TEWEN  =    -41771.27123119
  -Hartree energ DENC   =    -25838.30645693
  -exchange      EXHF   =         0.00000000
  -V(xc)+E(xc)   XCENC  =      3606.16569204
  PAW double counting   =     55594.23204139   -59034.67079123
  entropy T*S    EENTRO =        -0.00000000
  eigenvalues    EBANDS =    -10183.56378833
  atomic energy  EATOM  =     73862.19814772
  Solvation  Ediel_sol  =         0.00000000
  ---------------------------------------------------
  free energy    TOTEN  =     -1112.40400801 eV

  energy without entropy =    -1112.40400801  energy(sigma->0) =    -1112.40400801


--------------------------------------------------------------------------------------------------------




--------------------------------------- Iteration      1(   5)  ---------------------------------------


    EDDIAG:  cpu time    4.4041: real time    4.8368
  RMM-DIIS:  cpu time    9.1912: real time    9.2156
    ORTHCH:  cpu time    1.1874: real time    1.2798
       DOS:  cpu time    0.0012: real time    0.0012
    --------------------------------------------
      LOOP:  cpu time   14.7838: real time   15.3334

 eigenvalue-minimisations  :  7680
 total energy-change (2. order) :-0.1041270E+03  (-0.1594919E+03)
 number of electron     672.0000000 magnetization      48.0000000
 augmentation part      672.0000000 magnetization      48.0000000

 Free energy of the ion-electron system (eV)
  ---------------------------------------------------
  alpha Z        PSCENC =      2652.81237852
  Ewald energy   TEWEN  =    -41771.27123119
  -Hartree energ DENC   =    -25838.30645693
  -exchange      EXHF   =         0.00000000
  -V(xc)+E(xc)   XCENC  =      3606.16569204
  PAW double counting   =     55594.23204139   -59034.67079123
  entropy T*S    EENTRO =        -0.00000000
  eigenvalues    EBANDS =    -10287.69080326
  atomic energy  EATOM  =     73862.19814772
  Solvation  Ediel_sol  =         0.00000000
  ---------------------------------------------------
  free energy    TOTEN  =     -1216.53102294 eV

  energy without entropy =    -1216.53102294  energy(sigma->0) =    -1216.53102294


--------------------------------------------------------------------------------------------------------




--------------------------------------- Iteration      1(   6)  ---------------------------------------


    EDDIAG:  cpu time    4.4505: real time    4.8870
  RMM-DIIS:  cpu time    9.1479: real time    9.2041
    ORTHCH:  cpu time    1.1687: real time    1.2544
       DOS:  cpu time    0.0016: real time    0.0016
    --------------------------------------------
      LOOP:  cpu time   14.7688: real time   15.3471

 eigenvalue-minimisations  :  7680
 total energy-change (2. order) :-0.9026379E+01  (-0.7907590E+02)
 number of electron     672.0000000 magnetization      48.0000000
 augmentation part      672.0000000 magnetization      48.0000000

 Free energy of the ion-electron system (eV)
  ---------------------------------------------------
  alpha Z        PSCENC =      2652.81237852
  Ewald energy   TEWEN  =    -41771.27123119
  -Hartree energ DENC   =    -25838.30645693
  -exchange      EXHF   =         0.00000000
  -V(xc)+E(xc)   XCENC  =      3606.16569204
  PAW double counting   =     55594.23204139   -59034.67079123
  entropy T*S    EENTRO =        -0.00000000
  eigenvalues    EBANDS =    -10296.71718228
  atomic energy  EATOM  =     73862.19814772
  Solvation  Ediel_sol  =         0.00000000
  ---------------------------------------------------
  free energy    TOTEN  =     -1225.55740196 eV

  energy without entropy =    -1225.55740196  energy(sigma->0) =    -1225.55740196


--------------------------------------------------------------------------------------------------------




--------------------------------------- Iteration      1(   7)  ---------------------------------------


    EDDIAG:  cpu time    4.4057: real time    4.8315
  RMM-DIIS:  cpu time    9.1386: real time    9.1600
    ORTHCH:  cpu time    1.1729: real time    1.2562
       DOS:  cpu time    0.0014: real time    0.0014
    --------------------------------------------
      LOOP:  cpu time   14.7186: real time   15.2491

 eigenvalue-minimisations  :  7680
 total energy-change (2. order) :-0.1820656E+01  (-0.4823568E+02)
 number of electron     672.0000000 magnetization      48.0000000
 augmentation part      672.0000000 magnetization      48.0000000

 Free energy of the ion-electron system (eV)
  ---------------------------------------------------
  alpha Z        PSCENC =      2652.81237852
  Ewald energy   TEWEN  =    -41771.27123119
  -Hartree energ DENC   =    -25838.30645693
  -exchange      EXHF   =         0.00000000
  -V(xc)+E(xc)   XCENC  =      3606.16569204
  PAW double counting   =     55594.23204139   -59034.67079123
  entropy T*S    EENTRO =        -0.00000000
  eigenvalues    EBANDS =    -10298.53783871
  atomic energy  EATOM  =     73862.19814772
  Solvation  Ediel_sol  =         0.00000000
  ---------------------------------------------------
  free energy    TOTEN  =     -1227.37805839 eV

  energy without entropy =    -1227.37805839  energy(sigma->0) =    -1227.37805839


--------------------------------------------------------------------------------------------------------




--------------------------------------- Iteration      1(   8)  ---------------------------------------


    EDDIAG:  cpu time    4.4654: real time    4.8800
  RMM-DIIS:  cpu time    9.1545: real time    9.2062
    ORTHCH:  cpu time    1.1736: real time    1.2546
       DOS:  cpu time    0.0015: real time    0.0015
    --------------------------------------------
      LOOP:  cpu time   14.7950: real time   15.3424

 eigenvalue-minimisations  :  7680
 total energy-change (2. order) : 0.4910284E+01  (-0.3006078E+02)
 number of electron     672.0000000 magnetization      48.0000000
 augmentation part      672.0000000 magnetization      48.0000000

 Free energy of the ion-electron system (eV)
  ---------------------------------------------------
  alpha Z        PSCENC =      2652.81237852
  Ewald energy   TEWEN  =    -41771.27123119
  -Hartree energ DENC   =    -25838.30645693
  -exchange      EXHF   =         0.00000000
  -V(xc)+E(xc)   XCENC  =      3606.16569204
  PAW double counting   =     55594.23204139   -59034.67079123
  entropy T*S    EENTRO =        -0.00000000
  eigenvalues    EBANDS =    -10293.62755486
  atomic energy  EATOM  =     73862.19814772
  Solvation  Ediel_sol  =         0.00000000
  ---------------------------------------------------
  free energy    TOTEN  =     -1222.46777454 eV

  energy without entropy =    -1222.46777454  energy(sigma->0) =    -1222.46777454


--------------------------------------------------------------------------------------------------------




--------------------------------------- Iteration      1(   9)  ---------------------------------------


    EDDIAG:  cpu time    4.4008: real time    4.8257
  RMM-DIIS:  cpu time   19.2805: real time   19.3289
    ORTHCH:  cpu time    1.1695: real time    1.2536
       DOS:  cpu time    0.0012: real time    0.0012
    --------------------------------------------
      LOOP:  cpu time   24.8520: real time   25.4094

 eigenvalue-minimisations  : 21797
 total energy-change (2. order) : 0.9335891E+01  (-0.1327523E+02)
 number of electron     672.0000000 magnetization      48.0000000
 augmentation part      672.0000000 magnetization      48.0000000

 Free energy of the ion-electron system (eV)
  ---------------------------------------------------
  alpha Z        PSCENC =      2652.81237852
  Ewald energy   TEWEN  =    -41771.27123119
  -Hartree energ DENC   =    -25838.30645693
  -exchange      EXHF   =         0.00000000
  -V(xc)+E(xc)   XCENC  =      3606.16569204
  PAW double counting   =     55594.23204139   -59034.67079123
  entropy T*S    EENTRO =        -0.00000000
  eigenvalues    EBANDS =    -10284.29166424
  atomic energy  EATOM  =     73862.19814772
  Solvation  Ediel_sol  =         0.00000000
  ---------------------------------------------------
  free energy    TOTEN  =     -1213.13188392 eV

  energy without entropy =    -1213.13188392  energy(sigma->0) =    -1213.13188392


--------------------------------------------------------------------------------------------------------




--------------------------------------- Iteration      1(  10)  ---------------------------------------


    EDDIAG:  cpu time    4.4972: real time    4.9080
  RMM-DIIS:  cpu time   17.9466: real time   17.9867
    ORTHCH:  cpu time    1.1705: real time    1.2546
       DOS:  cpu time    0.0016: real time    0.0016
    --------------------------------------------
      LOOP:  cpu time   23.6159: real time   24.1508

 eigenvalue-minimisations  : 19794
 total energy-change (2. order) :-0.1888052E+01  (-0.5264414E+00)
 number of electron     672.0000000 magnetization      48.0000000
 augmentation part      672.0000000 magnetization      48.0000000

 Free energy of the ion-electron system (eV)
  ---------------------------------------------------
  alpha Z        PSCENC =      2652.81237852
  Ewald energy   TEWEN  =    -41771.27123119
  -Hartree energ DENC   =    -25838.30645693
  -exchange      EXHF   =         0.00000000
  -V(xc)+E(xc)   XCENC  =      3606.16569204
  PAW double counting   =     55594.23204139   -59034.67079123
  entropy T*S    EENTRO =        -0.00000000
  eigenvalues    EBANDS =    -10286.17971615
  atomic energy  EATOM  =     73862.19814772
  Solvation  Ediel_sol  =         0.00000000
  ---------------------------------------------------
  free energy    TOTEN  =     -1215.01993583 eV

  energy without entropy =    -1215.01993583  energy(sigma->0) =    -1215.01993583


--------------------------------------------------------------------------------------------------------




--------------------------------------- Iteration      1(  11)  ---------------------------------------


    EDDIAG:  cpu time    4.4099: real time    4.8956
  RMM-DIIS:  cpu time   20.1801: real time   20.1931
    ORTHCH:  cpu time    1.1774: real time    1.2567
       DOS:  cpu time    0.0021: real time    0.0021
    --------------------------------------------
      LOOP:  cpu time   25.7694: real time   26.3475

 eigenvalue-minimisations  : 22626
 total energy-change (2. order) : 0.6885935E-01  (-0.4337693E-01)
 number of electron     672.0000000 magnetization      48.0000000
 augmentation part      672.0000000 magnetization      48.0000000

 Free energy of the ion-electron system (eV)
  ---------------------------------------------------
  alpha Z        PSCENC =      2652.81237852
  Ewald energy   TEWEN  =    -41771.27123119
  -Hartree energ DENC   =    -25838.30645693
  -exchange      EXHF   =         0.00000000
  -V(xc)+E(xc)   XCENC  =      3606.16569204
  PAW double counting   =     55594.23204139   -59034.67079123
  entropy T*S    EENTRO =        -0.00000000
  eigenvalues    EBANDS =    -10286.11085680
  atomic energy  EATOM  =     73862.19814772
  Solvation  Ediel_sol  =         0.00000000
  ---------------------------------------------------
  free energy    TOTEN  =     -1214.95107648 eV

  energy without entropy =    -1214.95107648  energy(sigma->0) =    -1214.95107648


--------------------------------------------------------------------------------------------------------




--------------------------------------- Iteration      1(  12)  ---------------------------------------


    EDDIAG:  cpu time    4.4251: real time    4.8541
  RMM-DIIS:  cpu time   22.0331: real time   22.0715
    ORTHCH:  cpu time    1.1734: real time    1.2551
       DOS:  cpu time    0.0015: real time    0.0015
    CHARGE:  cpu time    1.8261: real time    1.8271
    MIXING:  cpu time    0.0009: real time    0.0011
    --------------------------------------------
      LOOP:  cpu time   29.4602: real time   30.0104

 eigenvalue-minimisations  : 24427
 total energy-change (2. order) :-0.5954936E-03  (-0.4252622E-02)
 number of electron     671.9999990 magnetization      48.0000017
 augmentation part      239.0612177 magnetization      29.0278610

 Broyden mixing:
  rms(total) = 0.12519E+02    rms(broyden)= 0.12510E+02
  rms(prec ) = 0.14383E+02
  weight for this iteration     100.00

 Free energy of the ion-electron system (eV)
  ---------------------------------------------------
  alpha Z        PSCENC =      2652.81237852
  Ewald energy   TEWEN  =    -41771.27123119
  -Hartree energ DENC   =    -25838.30645693
  -exchange      EXHF   =         0.00000000
  -V(xc)+E(xc)   XCENC  =      3606.16569204
  PAW double counting   =     55594.23204139   -59034.67079123
  entropy T*S    EENTRO =        -0.00000000
  eigenvalues    EBANDS =    -10286.11145230
  atomic energy  EATOM  =     73862.19814772
  Solvation  Ediel_sol  =         0.00000000
  ---------------------------------------------------
  free energy    TOTEN  =     -1214.95167198 eV

  energy without entropy =    -1214.95167198  energy(sigma->0) =    -1214.95167198


--------------------------------------------------------------------------------------------------------




--------------------------------------- Iteration      1(  13)  ---------------------------------------


    POTLOK:  cpu time    0.1717: real time    0.1725
    SETDIJ:  cpu time    4.9934: real time    4.9961
    EDDIAG:  cpu time    4.4141: real time    4.8544
  RMM-DIIS:  cpu time   17.3167: real time   17.3289
    ORTHCH:  cpu time    1.1830: real time    1.2664
       DOS:  cpu time    0.0020: real time    0.0020
    CHARGE:  cpu time    1.8288: real time    1.8294
    MIXING:  cpu time    0.0009: real time    0.0010
    --------------------------------------------
      LOOP:  cpu time   29.9106: real time   30.4507

 eigenvalue-minimisations  : 18795
 total energy-change (2. order) : 0.2284165E+03  (-0.1220494E+03)
 number of electron     672.0000116 magnetization      48.0000018
 augmentation part      269.2146190 magnetization      26.3076072

 Broyden mixing:
  rms(total) = 0.13987E+02    rms(broyden)= 0.13984E+02
  rms(prec ) = 0.15759E+02
  weight for this iteration     100.00

 eigenvalues of (default mixing * dielectric matrix)
  average eigenvalue GAMMA=   0.3177
  0.3177

 Free energy of the ion-electron system (eV)
  ---------------------------------------------------
  alpha Z        PSCENC =      2652.81237852
  Ewald energy   TEWEN  =    -41771.27123119
  -Hartree energ DENC   =    -25169.13636896
  -exchange      EXHF   =         0.00000000
  -V(xc)+E(xc)   XCENC  =      3696.25836970
  PAW double counting   =     59870.78779480   -63296.10326829
  entropy T*S    EENTRO =        -0.08502368
  eigenvalues    EBANDS =    -10831.99598871
  atomic energy  EATOM  =     73862.19814772
  Solvation  Ediel_sol  =         0.00000000
  ---------------------------------------------------
  free energy    TOTEN  =      -986.53519008 eV

  energy without entropy =     -986.45016640  energy(sigma->0) =     -986.49267824


--------------------------------------------------------------------------------------------------------




--------------------------------------- Iteration      1(  14)  ---------------------------------------


    POTLOK:  cpu time    0.1743: real time    0.1744
    SETDIJ:  cpu time    4.9784: real time    4.9815
    EDDIAG:  cpu time    4.4757: real time    4.9087
  RMM-DIIS:  cpu time   17.9480: real time   17.9598
    ORTHCH:  cpu time    1.1706: real time    1.2541
       DOS:  cpu time    0.0011: real time    0.0011
    CHARGE:  cpu time    1.8362: real time    1.8368
    MIXING:  cpu time    0.0009: real time    0.0009
    --------------------------------------------
      LOOP:  cpu time   30.5852: real time   31.1173

 eigenvalue-minimisations  : 19350
 total energy-change (2. order) : 0.7047414E+02  (-0.1802484E+02)
 number of electron     672.0000041 magnetization      48.0000029
 augmentation part      246.5252342 magnetization      32.1536006

 Broyden mixing:
  rms(total) = 0.52628E+01    rms(broyden)= 0.52586E+01
  rms(prec ) = 0.57005E+01
  weight for this iteration     100.00

 eigenvalues of (default mixing * dielectric matrix)
  average eigenvalue GAMMA=   0.7282
  1.0999  0.3565

 Free energy of the ion-electron system (eV)
  ---------------------------------------------------
  alpha Z        PSCENC =      2652.81237852
  Ewald energy   TEWEN  =    -41771.27123119
  -Hartree energ DENC   =    -25784.31755954
  -exchange      EXHF   =         0.00000000
  -V(xc)+E(xc)   XCENC  =      3673.44199478
  PAW double counting   =     63254.38820551   -66736.96917747
  entropy T*S    EENTRO =        -0.00000000
  eigenvalues    EBANDS =    -10066.34380546
  atomic energy  EATOM  =     73862.19814772
  Solvation  Ediel_sol  =         0.00000000
  ---------------------------------------------------
  free energy    TOTEN  =      -916.06104713 eV

  energy without entropy =     -916.06104713  energy(sigma->0) =     -916.06104713


--------------------------------------------------------------------------------------------------------




--------------------------------------- Iteration      1(  15)  ---------------------------------------


    POTLOK:  cpu time    0.1723: real time    0.1724
    SETDIJ:  cpu time    4.9210: real time    4.9914
    EDDIAG:  cpu time    4.4827: real time    4.8926
  RMM-DIIS:  cpu time   18.2396: real time   18.2574
    ORTHCH:  cpu time    1.1941: real time    1.2761
       DOS:  cpu time    0.0012: real time    0.0012
    CHARGE:  cpu time    1.8313: real time    1.8323
    MIXING:  cpu time    0.0010: real time    0.0010
    --------------------------------------------
      LOOP:  cpu time   30.8432: real time   31.4243

 eigenvalue-minimisations  : 20267
 total energy-change (2. order) : 0.1455383E+02  (-0.2036311E+01)
 number of electron     672.0000051 magnetization      48.0000039
 augmentation part      249.7092309 magnetization      33.8332163

 Broyden mixing:
  rms(total) = 0.21408E+01    rms(broyden)= 0.21405E+01
  rms(prec ) = 0.22183E+01
  weight for this iteration     100.00

 eigenvalues of (default mixing * dielectric matrix)
  average eigenvalue GAMMA=   0.9485
  0.3807  0.7567  1.7082

 Free energy of the ion-electron system (eV)
  ---------------------------------------------------
  alpha Z        PSCENC =      2652.81237852
  Ewald energy   TEWEN  =    -41771.27123119
  -Hartree energ DENC   =    -25704.01027870
  -exchange      EXHF   =         0.00000000
  -V(xc)+E(xc)   XCENC  =      3706.98481317
  PAW double counting   =     67324.27470087   -70847.04361368
  entropy T*S    EENTRO =        -0.00000000
  eigenvalues    EBANDS =    -10125.45212977
  atomic energy  EATOM  =     73862.19814772
  Solvation  Ediel_sol  =         0.00000000
  ---------------------------------------------------
  free energy    TOTEN  =      -901.50721306 eV

  energy without entropy =     -901.50721306  energy(sigma->0) =     -901.50721306


--------------------------------------------------------------------------------------------------------




--------------------------------------- Iteration      1(  16)  ---------------------------------------


    POTLOK:  cpu time    0.1681: real time    0.1689
    SETDIJ:  cpu time    5.5615: real time    5.5849
    EDDIAG:  cpu time    4.4865: real time    4.8871
  RMM-DIIS:  cpu time   17.5558: real time   17.5714
    ORTHCH:  cpu time    1.1680: real time    1.2527
       DOS:  cpu time    0.0017: real time    0.0017
    CHARGE:  cpu time    1.8176: real time    1.8380
    MIXING:  cpu time    0.0010: real time    0.0010
    --------------------------------------------
      LOOP:  cpu time   30.7601: real time   31.3057

 eigenvalue-minimisations  : 19055
 total energy-change (2. order) :-0.1626548E+01  (-0.6398053E+00)
 number of electron     672.0000061 magnetization      48.0000043
 augmentation part      251.2302801 magnetization      33.9297284

 Broyden mixing:
  rms(total) = 0.14323E+01    rms(broyden)= 0.14318E+01
  rms(prec ) = 0.15232E+01
  weight for this iteration     100.00

 eigenvalues of (default mixing * dielectric matrix)
  average eigenvalue GAMMA=   0.9743
  2.0750  0.9064  0.3875  0.5285

 Free energy of the ion-electron system (eV)
  ---------------------------------------------------
  alpha Z        PSCENC =      2652.81237852
  Ewald energy   TEWEN  =    -41771.27123119
  -Hartree energ DENC   =    -25653.57858894
  -exchange      EXHF   =         0.00000000
  -V(xc)+E(xc)   XCENC  =      3708.00593217
  PAW double counting   =     70248.19497598   -73800.64512352
  entropy T*S    EENTRO =        -0.00000000
  eigenvalues    EBANDS =    -10148.85025207
  atomic energy  EATOM  =     73862.19814772
  Solvation  Ediel_sol  =         0.00000000
  ---------------------------------------------------
  free energy    TOTEN  =      -903.13376133 eV

  energy without entropy =     -903.13376133  energy(sigma->0) =     -903.13376133


--------------------------------------------------------------------------------------------------------




--------------------------------------- Iteration      1(  17)  ---------------------------------------


    POTLOK:  cpu time    0.1723: real time    0.1727
    SETDIJ:  cpu time    5.0411: real time    5.0541
    EDDIAG:  cpu time    4.5178: real time    4.9246
  RMM-DIIS:  cpu time   18.6175: real time   18.6282
    ORTHCH:  cpu time    1.1833: real time    1.2704
       DOS:  cpu time    0.0012: real time    0.0012
    CHARGE:  cpu time    1.8285: real time    1.8316
    MIXING:  cpu time    0.0020: real time    0.0020
    --------------------------------------------
      LOOP:  cpu time   31.3636: real time   31.8847

 eigenvalue-minimisations  : 20539
 total energy-change (2. order) : 0.1531089E+00  (-0.5952291E-01)
 number of electron     672.0000058 magnetization      48.0000047
 augmentation part      251.1379955 magnetization      33.9267933

 Broyden mixing:
  rms(total) = 0.77310E+00    rms(broyden)= 0.77300E+00
  rms(prec ) = 0.87257E+00
  weight for this iteration     100.00

 eigenvalues of (default mixing * dielectric matrix)
  average eigenvalue GAMMA=   1.0025
  2.2318  1.1387  0.3785  0.6973  0.5665

 Free energy of the ion-electron system (eV)
  ---------------------------------------------------
  alpha Z        PSCENC =      2652.81237852
  Ewald energy   TEWEN  =    -41771.27123119
  -Hartree energ DENC   =    -25645.98442417
  -exchange      EXHF   =         0.00000000
  -V(xc)+E(xc)   XCENC  =      3705.13797181
  PAW double counting   =     71104.47056960   -74665.30870108
  entropy T*S    EENTRO =        -0.00000000
  eigenvalues    EBANDS =    -10145.03536366
  atomic energy  EATOM  =     73862.19814772
  Solvation  Ediel_sol  =         0.00000000
  ---------------------------------------------------
  free energy    TOTEN  =      -902.98065244 eV

  energy without entropy =     -902.98065244  energy(sigma->0) =     -902.98065244


--------------------------------------------------------------------------------------------------------




--------------------------------------- Iteration      1(  18)  ---------------------------------------


    POTLOK:  cpu time    0.1680: real time    0.1688
    SETDIJ:  cpu time    5.0001: real time    5.0129
    EDDIAG:  cpu time    4.4382: real time    4.8362
  RMM-DIIS:  cpu time   17.7704: real time   17.7827
    ORTHCH:  cpu time    1.1685: real time    1.2539
       DOS:  cpu time    0.0011: real time    0.0011
    CHARGE:  cpu time    1.8391: real time    1.8597
    MIXING:  cpu time    0.0014: real time    0.0014
    --------------------------------------------
      LOOP:  cpu time   30.3868: real time   30.9167

 eigenvalue-minimisations  : 19021
 total energy-change (2. order) : 0.4056988E+00  (-0.6995465E-01)
 number of electron     672.0000056 magnetization      48.0000048
 augmentation part      250.6158953 magnetization      33.8864707

 Broyden mixing:
  rms(total) = 0.27667E+00    rms(broyden)= 0.27638E+00
  rms(prec ) = 0.29059E+00
  weight for this iteration     100.00

 eigenvalues of (default mixing * dielectric matrix)
  average eigenvalue GAMMA=   1.0204
  2.4601  1.3686  0.8514  0.3797  0.5889  0.4738

 Free energy of the ion-electron system (eV)
[...]
   4      -0.959    -0.823     1.781     0.004     0.008     0.029
   5      -0.990    -0.938     1.928     0.087    -0.048     0.044
   6      -1.080    -0.826     1.907     0.027     0.056     0.007
   7      -1.133    -0.560     1.693     0.134     0.131     0.093
   8      -0.668    -0.863     1.531     0.166    -0.037     0.055
   9      -0.666    -0.883     1.549    -0.198     0.001    -0.040
  10      -0.608    -0.785     1.393     0.188     0.022     0.057
  11      -0.667    -0.819     1.486     0.189    -0.060    -0.008
  12      -0.658    -0.842     1.500     0.127     0.016    -0.058
  13      -1.243    -0.574     1.817    -0.078    -0.069    -0.093
  14      -0.628    -0.785     1.414    -0.162     0.036     0.019
  15      -0.596    -0.722     1.318    -0.111     0.006     0.009
  16      -1.144    -0.524     1.668    -0.146     0.042    -0.048
  17       1.462     1.501    -2.962     0.034     0.033     0.114
  18       1.386     1.493    -2.879    -0.079     0.072    -0.187
  19       1.436     1.619    -3.055    -0.340     0.040    -0.068
  20       1.335     1.851    -3.186     0.046    -0.088    -0.132
  21       1.425     1.531    -2.957     0.133    -0.028    -0.018
  22       1.394     1.551    -2.946     0.210     0.147     0.036
  23       1.372     1.431    -2.803     0.093    -0.035     0.014
  24       1.754     1.316    -3.069     0.102    -0.063     0.148
  25       0.395    -0.818     0.423    -0.704    -0.291     0.119
  26      -0.815     0.011     0.804     0.440     0.942    -0.159
  27      -1.198    -0.838     2.036    -1.582     0.493    -0.878
  28       1.163    -0.560    -0.603     0.534    -0.237     0.115
  29      -1.664     0.084     1.580    -0.725     0.268     0.611
  30      -0.549    -0.046     0.595     0.706    -0.784     0.334
  31       0.471     0.166    -0.637    -0.152    -0.405     0.429
  32      -0.548     0.284     0.263    -1.697     0.627    -1.889
  33       0.673     1.164    -1.837    -0.045     0.356     0.938
  34       0.972     0.283    -1.255    -0.110     1.094     0.250
  35      -0.666    -0.478     1.144    -0.229    -0.548    -1.127
  36      -0.479    -2.640     3.119    -0.051    -0.574     0.466
  37      -1.944     0.914     1.030     1.056    -0.418    -0.494
  38       0.672    -2.251     1.580    -0.116     0.431    -0.214
  39      -0.807    -1.445     2.252     1.034     0.772    -0.048
  40      -1.548    -1.613     3.161    -0.414     0.453    -0.221
  41      -5.299     2.280     3.019    -5.025     1.936    -4.395
  42      -4.634     2.571     2.063     3.939     2.363     4.463
  43       5.860    -6.915     1.055     0.115    -4.402     0.421
  44      -2.741     1.516     1.225    -4.893    -2.208     5.041
  45       6.286    -6.176    -0.110    -0.343     4.327    -0.355
  46      -2.033     1.073     0.960     5.029    -2.030    -4.560
  47      -2.993     3.597    -0.604    -4.935     2.575    -5.025
  48       6.321    -5.601    -0.720     0.071    -4.141    -0.078
  49      -2.573     2.795    -0.221     5.029     2.084     4.662
  50      -4.113     3.372     0.741    -5.302    -2.076     4.835
  51      -2.861     3.950    -1.089     4.798    -2.173    -1.786
  52       6.283    -6.264    -0.019     0.840     4.127    -1.010
  53      -4.020     2.250     1.770    -3.537     2.685    -4.178
  54      -3.214     0.600     2.614     4.599     2.088     4.795
  55       3.168    -5.378     2.210     0.577    -4.321     0.857
  56      -2.939     2.023     0.916    -5.760    -0.652     4.386
  57       6.075    -5.635    -0.440     1.744     3.832    -0.437
  58      -3.810     0.477     3.332     3.601    -0.360    -5.790
  59      -1.912     2.421    -0.510    -4.697     1.529    -3.670
  60       4.406    -4.684     0.278    -1.226    -4.772    -1.681
  61      -2.527     1.470     1.057     4.527     2.223     3.523
  62      -2.849     4.880    -2.032    -3.944    -4.227     2.744
  63      -4.887     3.666     1.221     3.129    -2.242    -4.614
  64       3.409    -5.597     2.188     1.091     5.513     0.626
  65      -2.813     3.770    -0.957    -5.604     2.079    -3.831
  66      -2.298     1.919     0.380     6.429     3.234     4.763
  67       7.131    -6.274    -0.857    -0.072    -3.078     0.897
  68      -2.136     1.987     0.149    -5.340    -2.811     3.493
  69       3.371    -5.185     1.815     0.227     5.399    -0.828
  70      -2.213    -0.182     2.395     4.010    -3.247    -3.299
  71      -4.144     5.130    -0.986    -5.095     1.327    -2.676
  72       5.779    -5.303    -0.476    -0.630    -4.104    -0.790
  73      -3.345     2.253     1.093     5.953     2.553     4.895
  74      -2.227     1.282     0.945    -5.117    -2.798     4.303
  75      -2.269    -0.922     3.191     3.909    -4.084    -4.321
  76       3.699    -5.583     1.883    -0.838     4.750     0.372
  77      -1.466     1.032     0.434    -4.058     3.429    -3.847
  78      -3.167     4.345    -1.178     5.437     2.077     3.564
  79       3.760    -4.702     0.941     0.607    -4.788     0.451
  80      -3.307     1.194     2.113    -4.097    -1.532     5.473
  81       5.374    -6.980     1.606    -0.463     4.699     1.065
  82      -5.443     4.195     1.248     4.479    -3.193    -4.641
  83      -3.699    -0.334     4.033    -5.719     3.064    -5.257
  84       5.026    -6.903     1.877     0.001    -4.916    -0.215
  85      -4.678     4.418     0.260     3.832     1.429     3.940
  86      -2.360     1.123     1.236    -4.594    -1.102     3.089
  87      -3.265     1.514     1.751     5.033    -1.737    -5.538
  88       4.185    -4.704     0.518     0.284     4.362     0.161
 ---------------------------------------------------------------------


 Total hyperfine coupling parameters after diagonalization (MHz)
 (convention: |A_zz| > |A_xx| > |A_yy|)
 ----------------------------------------------------------------------
  ion      A_xx      A_yy      A_zz     asymmetry (A_yy - A_xx)/ A_zz 
 ----------------------------------------------------------------------
   1       0.329    -0.003     2.960      -0.112
   2       1.154     0.692     3.673      -0.126
   3       2.382     2.040     4.311      -0.080
   4       0.216     0.080     2.820      -0.048
   5      -0.327    -0.145     2.658       0.069
   6       0.310     0.049     3.042      -0.086
   7       1.788     1.158     4.029      -0.157
   8       2.217     1.830     4.322      -0.090
   9       1.380     0.929     3.479      -0.130
  10       2.182     1.766     4.066      -0.102
  11       2.216     1.809     4.243      -0.096
  12       2.290     1.975     4.386      -0.072
  13       1.016     0.331     3.407      -0.201
  14       1.730     1.371     3.672      -0.098
  15       1.495     1.239     3.345      -0.077
  16       1.936     1.252     4.099      -0.167
  17      14.327     9.920    14.409      -0.306
  18      12.808     8.576    13.008      -0.325
  19      14.774    10.542    15.479      -0.273
  20      16.248    11.724    16.774      -0.270
  21      13.526     9.234    13.813      -0.311
  22      14.301    10.099    14.749      -0.285
  23      12.480     8.373    12.675      -0.324
  24      14.646    10.272    15.124      -0.289
  25      97.569    96.204    98.263      -0.014
  26      98.664    97.099    99.737      -0.016
  27      98.750    96.046   101.204      -0.027
  28      97.072    96.711    98.895      -0.004
  29      98.506    96.331   100.116      -0.022
  30      94.044    92.242    94.634      -0.019
  31      93.980    92.941    94.595      -0.011
  32      97.688    96.295   101.435      -0.014
  33      96.791    93.927    97.514      -0.029
  34      97.267    95.207    98.366      -0.021
  35     100.314    99.359   102.512      -0.009
  36      99.369    97.259   103.182      -0.020
  37     100.261    97.404   101.476      -0.028
  38      96.032    93.266    97.299      -0.028
  39      93.540    91.457    96.169      -0.022
  40      97.570    96.787   102.005      -0.008
  41      10.117     3.280    19.870      -0.344
  42       6.019     1.585    16.325      -0.272
  43       5.060    -0.364    15.059      -0.360
  44       4.826     1.262    16.087      -0.222
  45       4.104     0.193    14.874      -0.263
  46       5.161     1.322    15.442      -0.249
  47       3.010     1.155    16.208      -0.114
  48       1.696    -1.273    12.566      -0.236
  49       5.223     2.515    16.920      -0.160
  50       7.380     2.936    19.153      -0.232
  51       6.289     2.232    15.120      -0.268
  52       6.743     1.819    16.778      -0.293
  53       5.053     1.455    15.016      -0.240
  54       4.487    -0.008    14.754      -0.305
  55       6.738     2.491    15.172      -0.280
  56       8.328     1.992    17.357      -0.365
  57       6.307     2.093    16.189      -0.260
  58       6.766     1.646    16.815      -0.304
  59       4.329     1.566    14.017      -0.197
  60       6.357     1.817    15.400      -0.295
  61       4.508     0.783    13.491      -0.276
  62       5.734     0.429    15.566      -0.341
  63       4.342     0.657    15.004      -0.246
  64       4.346     1.344    15.524      -0.193
  65       4.342     1.199    16.126      -0.195
  66       6.080     2.170    19.146      -0.204
  67       6.406     1.727    16.349      -0.286
  68       4.851     1.348    15.325      -0.229
  69       5.067     2.267    15.753      -0.178
  70       5.685     2.192    14.863      -0.235
  71       6.384     1.922    16.660      -0.268
  72       5.605     2.179    15.614      -0.219
  73       6.389     1.662    18.420      -0.257
  74       4.083     0.740    15.078      -0.222
  75       3.438     0.996    15.320      -0.159
  76       5.807     1.895    15.311      -0.255
  77       2.738     1.258    13.510      -0.110
  78       4.510     1.338    16.251      -0.195
  79       3.838     1.315    13.595      -0.186
  80       1.998    -1.824    12.797      -0.299
  81       6.509     0.636    16.406      -0.358
  82       5.482     0.175    17.231      -0.308
  83       8.086     2.070    20.149      -0.299
  84       5.235     0.029    15.553      -0.335
  85       4.504     0.416    14.561      -0.281
  86       3.380    -1.626    10.328      -0.485
  87       5.332     0.754    16.659      -0.275
  88       3.990     1.657    13.463      -0.173
 ---------------------------------------------------------------------



--------------------------------------------------------------------------------------------------------


 stress matrix after NEB project (eV)
    -44.05293     -2.36520     -4.01695
     -2.37713    -47.09464     -2.81399
     -3.97891     -2.80766    -57.61981
  FORCES: max atom, RMS     2.568819    1.057009
  FORCE total and by dimension    9.915621    2.441133
  Stress total and by dimension   86.819482   57.619809
     LOOP+:  cpu time  691.4894: real time  705.6395
    4ORBIT:  cpu time    0.0000: real time    0.0000
 


 total charge     
 
# of ion       s       p       d       tot
------------------------------------------
    1        0.054   5.999   0.000   6.053
    2        0.048   5.991   0.000   6.038
    3        0.051   5.993   0.000   6.044
    4        0.047   5.990   0.000   6.037
    5        0.047   5.991   0.000   6.039
    6        0.052   5.995   0.000   6.047
    7        0.053   5.996   0.000   6.049
    8        0.051   5.993   0.000   6.044
    9        0.052   5.993   0.000   6.045
   10        0.051   5.993   0.000   6.043
   11        0.052   5.995   0.000   6.047
   12        0.051   5.993   0.000   6.045
   13        0.052   5.996   0.000   6.049
   14        0.045   5.987   0.000   6.032
   15        0.050   5.992   0.000   6.042
   16        0.055   5.999   0.000   6.053
   17        0.146   6.124   0.081   6.351
   18        0.146   6.124   0.080   6.350
   19        0.152   6.134   0.089   6.375
   20        0.159   6.147   0.100   6.406
   21        0.150   6.131   0.086   6.367
   22        0.149   6.127   0.084   6.360
   23        0.142   6.116   0.074   6.333
   24        0.156   6.140   0.094   6.390
   25        0.374   6.456   4.830  11.660
   26        0.378   6.462   4.839  11.680
   27        0.372   6.448   4.823  11.644
   28        0.381   6.464   4.850  11.696
   29        0.375   6.456   4.825  11.656
   30        0.384   6.472   4.847  11.702
   31        0.388   6.481   4.860  11.729
   32        0.368   6.440   4.820  11.629
   33        0.367   6.438   4.815  11.621
   34        0.382   6.467   4.852  11.701
   35        0.369   6.443   4.819  11.631
   36        0.371   6.447   4.816  11.634
   37        0.364   6.432   4.808  11.604
   38        0.371   6.442   4.819  11.632
   39        0.386   6.479   4.847  11.712
   40        0.370   6.442   4.814  11.627
   41        1.605   3.553   0.000   5.158
   42        1.599   3.523   0.000   5.122
   43        1.598   3.501   0.000   5.099
   44        1.599   3.489   0.000   5.089
   45        1.599   3.511   0.000   5.110
   46        1.598   3.491   0.000   5.089
   47        1.600   3.480   0.000   5.080
   48        1.598   3.502   0.000   5.100
   49        1.600   3.498   0.000   5.097
   50        1.604   3.513   0.000   5.118
   51        1.598   3.513   0.000   5.111
   52        1.599   3.507   0.000   5.106
   53        1.599   3.491   0.000   5.090
   54        1.601   3.520   0.000   5.121
   55        1.597   3.514   0.000   5.111
   56        1.598   3.507   0.000   5.105
   57        1.597   3.502   0.000   5.099
   58        1.600   3.518   0.000   5.118
   59        1.598   3.488   0.000   5.086
   60        1.598   3.503   0.000   5.101
   61        1.596   3.499   0.000   5.095
   62        1.600   3.486   0.000   5.086
   63        1.599   3.520   0.000   5.119
   64        1.601   3.535   0.000   5.135
   65        1.598   3.472   0.000   5.070
   66        1.602   3.496   0.000   5.098
   67        1.599   3.509   0.000   5.107
   68        1.600   3.515   0.000   5.115
   69        1.599   3.507   0.000   5.106
   70        1.600   3.517   0.000   5.117
   71        1.599   3.517   0.000   5.116
   72        1.597   3.499   0.000   5.096
   73        1.604   3.519   0.000   5.123
   74        1.597   3.489   0.000   5.086
   75        1.599   3.497   0.000   5.096
   76        1.596   3.513   0.000   5.109
   77        1.598   3.485   0.000   5.083
   78        1.598   3.466   0.000   5.064
   79        1.597   3.494   0.000   5.091
   80        1.599   3.500   0.000   5.100
   81        1.600   3.516   0.000   5.115
   82        1.600   3.505   0.000   5.105
   83        1.602   3.510   0.000   5.112
   84        1.600   3.519   0.000   5.118
   85        1.596   3.508   0.000   5.104
   86        1.596   3.517   0.000   5.114
   87        1.600   3.526   0.000   5.126
   88        1.598   3.528   0.000   5.125
--------------------------------------------------
tot         84.771 416.492  77.974 579.237
 


 magnetization (x)
 
# of ion       s       p       d       tot
------------------------------------------
    1        0.001   0.000   0.000   0.001
    2        0.001   0.001   0.000   0.002
    3        0.002   0.000   0.000   0.003
    4        0.001   0.000   0.000   0.001
    5        0.001   0.000   0.000   0.001
    6        0.001   0.000   0.000   0.001
    7        0.002   0.000   0.000   0.002
    8        0.002   0.000   0.000   0.002
    9        0.001  -0.000   0.000   0.001
   10        0.002   0.000   0.000   0.002
   11        0.002   0.000   0.000   0.002
   12        0.002   0.000   0.000   0.002
   13        0.001   0.000   0.000   0.001
   14        0.002   0.000   0.000   0.002
   15        0.001  -0.000   0.000   0.001
   16        0.002   0.000   0.000   0.002
   17        0.007   0.002   0.001   0.011
   18        0.006   0.002   0.001   0.009
   19        0.008   0.003   0.001   0.012
   20        0.008   0.004   0.001   0.013
   21        0.007   0.002   0.001   0.010
   22        0.007   0.003   0.001   0.011
   23        0.006   0.002   0.001   0.009
   24        0.007   0.003   0.001   0.012
   25        0.016   0.031   2.754   2.800
   26        0.016   0.031   2.752   2.799
   27        0.016   0.029   2.768   2.813
   28        0.015   0.030   2.734   2.780
   29        0.016   0.030   2.762   2.808
   30        0.014   0.029   2.737   2.781
   31        0.015   0.030   2.723   2.768
   32        0.016   0.030   2.770   2.816
   33        0.015   0.030   2.758   2.803
   34        0.015   0.031   2.730   2.777
   35        0.017   0.031   2.760   2.808
   36        0.016   0.031   2.776   2.823
   37        0.016   0.029   2.792   2.837
   38        0.015   0.029   2.758   2.802
   39        0.015   0.030   2.734   2.779
   40        0.016   0.030   2.772   2.818
   41        0.003   0.073   0.000   0.075
   42        0.002   0.039   0.000   0.041
   43        0.002   0.034   0.000   0.035
   44        0.002   0.034   0.000   0.036
   45        0.002   0.025   0.000   0.027
   46        0.002   0.034   0.000   0.036
   47        0.002   0.018   0.000   0.020
   48        0.001   0.006   0.000   0.007
   49        0.002   0.038   0.000   0.040
   50        0.003   0.049   0.000   0.052
   51        0.002   0.038   0.000   0.040
   52        0.002   0.043   0.000   0.045
   53        0.002   0.028   0.000   0.030
   54        0.002   0.032   0.000   0.033
   55        0.002   0.036   0.000   0.038
   56        0.002   0.048   0.000   0.051
   57        0.002   0.037   0.000   0.039
   58        0.002   0.041   0.000   0.043
   59        0.002   0.026   0.000   0.028
   60        0.002   0.031   0.000   0.033
   61        0.002   0.025   0.000   0.027
   62        0.002   0.023   0.000   0.025
   63        0.002   0.029   0.000   0.030
   64        0.002   0.040   0.000   0.042
   65        0.002   0.027   0.000   0.029
   66        0.002   0.040   0.000   0.042
   67        0.002   0.035   0.000   0.037
   68        0.002   0.037   0.000   0.039
   69        0.002   0.029   0.000   0.032
   70        0.002   0.035   0.000   0.037
   71        0.002   0.038   0.000   0.040
   72        0.002   0.034   0.000   0.036
   73        0.002   0.049   0.000   0.051
   74        0.002   0.020   0.000   0.022
   75        0.002   0.022   0.000   0.024
   76        0.002   0.039   0.000   0.041
   77        0.002   0.007   0.000   0.008
   78        0.002   0.021   0.000   0.023
   79        0.002   0.022   0.000   0.024
   80        0.001   0.008   0.000   0.009
   81        0.002   0.046   0.000   0.048
   82        0.002   0.037   0.000   0.039
   83        0.003   0.061   0.000   0.063
   84        0.002   0.033   0.000   0.035
   85        0.002   0.033   0.000   0.035
   86        0.001   0.016   0.000   0.017
   87        0.002   0.034   0.000   0.036
   88        0.002   0.024   0.000   0.026
--------------------------------------------------
tot          0.422   2.078  44.091  46.591
 

 total amount of memory used by VASP MPI-rank0    94456. kBytes
=======================================================================

   base      :      30000. kBytes
   nonlr-proj:      13697. kBytes
   fftplans  :       1275. kBytes
   grid      :      22786. kBytes
   one-center:       2737. kBytes
   wavefun   :      23961. kBytes
 
  
  
 General timing and accounting informations for this job:
 ========================================================
  
                  Total CPU time used (sec):      712.438
                            User time (sec):      704.928
                          System time (sec):        7.510
                         Elapsed time (sec):      729.120
  
                   Maximum memory used (kb):      192908.
                   Average memory used (kb):           0.
  
                          Minor page faults:       259993
                          Major page faults:            0
                 Voluntary context switches:       241624
