 vasp.5.4.4.18Apr17-6-g9f103f2a35 (build Dec 02 2020 12:53:39) complex          
  
 executed on             LinuxIFC date 2021.07.31  09:28:24
 running on   64 total cores
 distrk:  each k-point on   64 cores,    1 groups
 distr:  one band on NCORES_PER_BAND=   1 cores,   64 groups


--------------------------------------------------------------------------------------------------------


 INCAR:
 POTCAR:    PAW_PBE Na_pv 19Sep2006               
 POTCAR:    PAW_PBE Mg_pv 13Apr2007               
 POTCAR:    PAW_PBE Mn_pv 02Aug2007               
 POTCAR:    PAW_PBE O 08Apr2002                   

 ----------------------------------------------------------------------------- 
|                                                                             |
|           W    W    AA    RRRRR   N    N  II  N    N   GGGG   !!!           |
|           W    W   A  A   R    R  NN   N  II  NN   N  G    G  !!!           |
|           W    W  A    A  R    R  N N  N  II  N N  N  G       !!!           |
|           W WW W  AAAAAA  RRRRR   N  N N  II  N  N N  G  GGG   !            |
|           WW  WW  A    A  R   R   N   NN  II  N   NN  G    G                |
|           W    W  A    A  R    R  N    N  II  N    N   GGGG   !!!           |
|                                                                             |
|      For optimal performance we recommend to set                            |
|        NCORE= 4 - approx SQRT( number of cores)                             |
|      NCORE specifies how many cores store one orbital (NPAR=cpu/NCORE).     |
|      This setting can  greatly improve the performance of VASP for DFT.     |
|      The default,   NCORE=1            might be grossly inefficient         |
|      on modern multi-core architectures or massively parallel machines.     |
|      Do your own testing !!!!                                               |
|      Unfortunately you need to use the default for GW and RPA calculations. |
|      (for HF NCORE is supported but not extensively tested yet)             |
|                                                                             |
 ----------------------------------------------------------------------------- 

 POTCAR:    PAW_PBE Na_pv 19Sep2006               
   VRHFIN =Na: p6s1                                                             
   LEXCH  = PE                                                                  
   EATOM  =   766.0439 eV,   56.3026 Ry                                         
                                                                                
   TITEL  = PAW_PBE Na_pv 19Sep2006                                             
   LULTRA =        F    use ultrasoft PP ?                                      
   IUNSCR =        1    unscreen: 0-lin 1-nonlin 2-no                           
   RPACOR =    1.800    partial core radius                                     
   POMASS =   22.990; ZVAL   =    7.000    mass and valenz                      
   RCORE  =    2.200    outmost cutoff radius                                   
   RWIGS  =    2.200; RWIGS  =    1.164    wigner-seitz radius (au A)           
   ENMAX  =  259.561; ENMIN  =  194.671 eV                                      
   ICORE  =        2    local potential                                         
   LCOR   =        T    correct aug charges                                     
   LPAW   =        T    paw PP                                                  
   EAUG   =  368.056                                                            
   DEXC   =    0.000                                                            
   RMAX   =    2.245    core radius for proj-oper                               
   RAUG   =    1.300    factor for augmentation sphere                          
   RDEP   =    2.259    radius for radial grids                                 
   RDEPT  =    1.738    core radius for aug-charge                              
                                                                                
   Atomic configuration                                                         
    5 entries                                                                   
     n  l   j            E        occ.                                          
     1  0  0.50     -1033.6933   2.0000                                         
     2  0  0.50       -56.7526   2.0000                                         
     2  1  1.50       -28.6721   6.0000                                         
     3  0  0.50        -2.7440   1.0000                                         
     3  2  1.50        -1.3606   0.0000                                         
   Description                                                                  
     l       E           TYP  RCUT    TYP  RCUT                                 
     1    -28.6720912     23  2.000                                             
     1      6.8029130     23  2.000                                             
     0     -2.7439560     23  2.200                                             
     0     34.0145650     23  2.200                                             
     2     -1.3605826     23  2.200                                             
  local pseudopotential read in
  partial core-charges read in
  partial kinetic energy density read in
  atomic valenz-charges read in
  non local Contribution for L=           1  read in
    real space projection operators read in
  non local Contribution for L=           1  read in
    real space projection operators read in
  non local Contribution for L=           0  read in
    real space projection operators read in
  non local Contribution for L=           0  read in
    real space projection operators read in
    PAW grid and wavefunctions read in
 
   number of l-projection  operators is LMAX  =           4
   number of lm-projection operators is LMMAX =           8
 
 POTCAR:    PAW_PBE Mg_pv 13Apr2007               
   VRHFIN =Mg: p6s2                                                             
   LEXCH  = PE                                                                  
   EATOM  =  1056.7344 eV,   77.6678 Ry                                         
                                                                                
   TITEL  = PAW_PBE Mg_pv 13Apr2007                                             
   LULTRA =        F    use ultrasoft PP ?                                      
   IUNSCR =        1    unscreen: 0-lin 1-nonlin 2-no                           
   RPACOR =    1.500    partial core radius                                     
   POMASS =   24.305; ZVAL   =    8.000    mass and valenz                      
   RCORE  =    2.000    outmost cutoff radius                                   
   RWIGS  =    2.000; RWIGS  =    1.058    wigner-seitz radius (au A)           
   ENMAX  =  403.929; ENMIN  =  302.947 eV                                      
   RCLOC  =    1.506    cutoff for local pot                                    
   LCOR   =        T    correct aug charges                                     
   LPAW   =        T    paw PP                                                  
   EAUG   =  758.780                                                            
   DEXC   =    0.000                                                            
   RMAX   =    2.045    core radius for proj-oper                               
   RAUG   =    1.300    factor for augmentation sphere                          
   RDEP   =    2.025    radius for radial grids                                 
   RDEPT  =    1.557    core radius for aug-charge                              
                                                                                
   Atomic configuration                                                         
    5 entries                                                                   
     n  l   j            E        occ.                                          
     1  0  0.50     -1259.6230   2.0000                                         
     2  0  0.50       -79.8442   2.0000                                         
     2  1  1.50       -46.6121   6.0000                                         
     3  0  0.50        -4.7055   2.0000                                         
     3  2  1.50        -1.3606   0.0000                                         
   Description                                                                  
     l       E           TYP  RCUT    TYP  RCUT                                 
     1    -46.6121073     23  1.600                                             
     1      2.7211652     23  1.600                                             
     0     -4.7054661     23  2.000                                             
     0     61.2262170     23  2.000                                             
     2     -1.3605826     23  2.000                                             
  local pseudopotential read in
  partial core-charges read in
  partial kinetic energy density read in
  atomic valenz-charges read in
  non local Contribution for L=           1  read in
    real space projection operators read in
  non local Contribution for L=           1  read in
    real space projection operators read in
  non local Contribution for L=           0  read in
    real space projection operators read in
  non local Contribution for L=           0  read in
    real space projection operators read in
  non local Contribution for L=           2  read in
    real space projection operators read in
    PAW grid and wavefunctions read in
 
   number of l-projection  operators is LMAX  =           5
   number of lm-projection operators is LMMAX =          13
 
 POTCAR:    PAW_PBE Mn_pv 02Aug2007               
   VRHFIN =Mn: 3p4s3d                                                           
   LEXCH  = PE                                                                  
   EATOM  =  2025.2664 eV,  148.8529 Ry                                         
                                                                                
   TITEL  = PAW_PBE Mn_pv 02Aug2007                                             
   LULTRA =        F    use ultrasoft PP ?                                      
   IUNSCR =        1    unscreen: 0-lin 1-nonlin 2-no                           
   RPACOR =    2.080    partial core radius                                     
   POMASS =   54.938; ZVAL   =   13.000    mass and valenz                      
   RCORE  =    2.300    outmost cutoff radius                                   
   RWIGS  =    2.500; RWIGS  =    1.323    wigner-seitz radius (au A)           
   ENMAX  =  269.864; ENMIN  =  202.398 eV                                      
   ICORE  =        3    local potential                                         
   LCOR   =        T    correct aug charges                                     
   LPAW   =        T    paw PP                                                  
   EAUG   =  569.085                                                            
   DEXC   =    0.000                                                            
   RMAX   =    2.343    core radius for proj-oper                               
   RAUG   =    1.300    factor for augmentation sphere                          
   RDEP   =    2.338    radius for radial grids                                 
   RDEPT  =    1.798    core radius for aug-charge                              
                                                                                
   Atomic configuration                                                         
    8 entries                                                                   
     n  l   j            E        occ.                                          
     1  0  0.50     -6424.8287   2.0000                                         
     2  0  0.50      -739.1154   2.0000                                         
     2  1  1.50      -625.3949   6.0000                                         
     3  0  0.50       -81.6100   2.0000                                         
     3  1  1.50       -50.4667   6.0000                                         
     3  2  2.50        -3.3745   6.0000                                         
     4  0  0.50        -4.1331   1.0000                                         
     4  3  2.50        -1.3606   0.0000                                         
   Description                                                                  
     l       E           TYP  RCUT    TYP  RCUT                                 
     1    -50.4666628     23  2.000                                             
     1     -1.3605826     23  2.000                                             
     2     -3.3744729     23  2.300                                             
     2     -4.7350555     23  2.300                                             
     0     -4.1331431     23  2.300                                             
     0      7.6656591     23  2.300                                             
     3      9.5240782     23  2.300                                             
  local pseudopotential read in
  partial core-charges read in
  partial kinetic energy density read in
  atomic valenz-charges read in
  non local Contribution for L=           1  read in
    real space projection operators read in
  non local Contribution for L=           1  read in
    real space projection operators read in
  non local Contribution for L=           2  read in
    real space projection operators read in
  non local Contribution for L=           2  read in
    real space projection operators read in
  non local Contribution for L=           0  read in
    real space projection operators read in
  non local Contribution for L=           0  read in
    real space projection operators read in
    PAW grid and wavefunctions read in
 
   number of l-projection  operators is LMAX  =           6
   number of lm-projection operators is LMMAX =          18
 
 POTCAR:    PAW_PBE O 08Apr2002                   
   VRHFIN =O: s2p4                                                              
   LEXCH  = PE                                                                  
   EATOM  =   432.3788 eV,   31.7789 Ry                                         
                                                                                
   TITEL  = PAW_PBE O 08Apr2002                                                 
   LULTRA =        F    use ultrasoft PP ?                                      
   IUNSCR =        1    unscreen: 0-lin 1-nonlin 2-no                           
   RPACOR =    1.200    partial core radius                                     
   POMASS =   16.000; ZVAL   =    6.000    mass and valenz                      
   RCORE  =    1.520    outmost cutoff radius                                   
   RWIGS  =    1.550; RWIGS  =    0.820    wigner-seitz radius (au A)           
   ENMAX  =  400.000; ENMIN  =  300.000 eV                                      
   ICORE  =        2    local potential                                         
   LCOR   =        T    correct aug charges                                     
   LPAW   =        T    paw PP                                                  
   EAUG   =  605.392                                                            
   DEXC   =    0.000                                                            
   RMAX   =    1.553    core radius for proj-oper                               
   RAUG   =    1.300    factor for augmentation sphere                          
   RDEP   =    1.550    radius for radial grids                                 
   RDEPT  =    1.329    core radius for aug-charge                              
                                                                                
   Atomic configuration                                                         
    4 entries                                                                   
     n  l   j            E        occ.                                          
     1  0  0.50      -514.6923   2.0000                                         
     2  0  0.50       -23.9615   2.0000                                         
     2  1  0.50        -9.0305   4.0000                                         
     3  2  1.50        -9.5241   0.0000                                         
   Description                                                                  
     l       E           TYP  RCUT    TYP  RCUT                                 
     0    -23.9615318     23  1.200                                             
     0     -9.5240782     23  1.200                                             
     1     -9.0304911     23  1.520                                             
     1      8.1634956     23  1.520                                             
     2     -9.5240782      7  1.500                                             
  local pseudopotential read in
  partial core-charges read in
  partial kinetic energy density read in
  kinetic energy density of atom read in
  atomic valenz-charges read in
  non local Contribution for L=           0  read in
    real space projection operators read in
  non local Contribution for L=           0  read in
    real space projection operators read in
  non local Contribution for L=           1  read in
    real space projection operators read in
  non local Contribution for L=           1  read in
    real space projection operators read in
    PAW grid and wavefunctions read in
 
   number of l-projection  operators is LMAX  =           4
   number of lm-projection operators is LMMAX =           8
 
 Optimization of the real space projectors (new method)

 maximal supplied QI-value         = 17.01
 optimisation between [QCUT,QGAM] = [ 10.20, 20.41] = [ 29.16,116.64] Ry 
 Optimized for a Real-space Cutoff    1.30 Angstroem

   l    n(q)    QCUT    max X(q) W(low)/X(q) W(high)/X(q)  e(spline) 
   1      7    10.205     4.940    0.23E-03    0.84E-03    0.11E-06
   1      7    10.205     6.253    0.40E-03    0.13E-02    0.18E-06
   0      8    10.205    37.438    0.23E-03    0.37E-03    0.42E-07
   0      8    10.205     9.606    0.16E-03    0.26E-03    0.31E-07
 Optimization of the real space projectors (new method)

 maximal supplied QI-value         = 18.90
 optimisation between [QCUT,QGAM] = [ 10.20, 20.41] = [ 29.16,116.64] Ry 
 Optimized for a Real-space Cutoff    1.26 Angstroem

   l    n(q)    QCUT    max X(q) W(low)/X(q) W(high)/X(q)  e(spline) 
   1      7    10.205     2.974    0.63E-04    0.14E-03    0.13E-06
   1      7    10.205     4.279    0.11E-03    0.45E-03    0.24E-06
   0      8    10.205    16.381    0.44E-03    0.15E-03    0.55E-07
   0      8    10.205     5.611    0.31E-03    0.11E-03    0.40E-07
   2      7    10.205     4.652    0.50E-03    0.47E-03    0.57E-07
 Optimization of the real space projectors (new method)

 maximal supplied QI-value         = 16.25
 optimisation between [QCUT,QGAM] = [ 10.24, 20.48] = [ 29.35,117.42] Ry 
 Optimized for a Real-space Cutoff    1.34 Angstroem

   l    n(q)    QCUT    max X(q) W(low)/X(q) W(high)/X(q)  e(spline) 
   1      8    10.239     3.658    0.23E-03    0.30E-03    0.98E-07
   1      8    10.239     5.612    0.32E-03    0.65E-03    0.21E-06
   2      7    10.239    55.373    0.42E-03    0.45E-03    0.65E-07
   2      7    10.239    50.863    0.43E-03    0.48E-03    0.67E-07
   0      8    10.239    79.536    0.11E-03    0.21E-03    0.56E-07
   0      8    10.239    38.668    0.96E-04    0.19E-03    0.52E-07
 Optimization of the real space projectors (new method)

 maximal supplied QI-value         = 24.76
 optimisation between [QCUT,QGAM] = [ 10.15, 20.30] = [ 28.85,115.39] Ry 
 Optimized for a Real-space Cutoff    1.38 Angstroem

   l    n(q)    QCUT    max X(q) W(low)/X(q) W(high)/X(q)  e(spline) 
   0      8    10.150    20.381    0.22E-03    0.32E-03    0.29E-06
   0      8    10.150    15.268    0.23E-03    0.35E-03    0.30E-06
   1      8    10.150     5.964    0.46E-03    0.53E-03    0.21E-06
   1      8    10.150     5.382    0.38E-03    0.45E-03    0.19E-06
  PAW_PBE Na_pv 19Sep2006               :
 energy of atom  1       EATOM= -766.0439
 kinetic energy error for atom=    0.0103 (will be added to EATOM!!)
  PAW_PBE Mg_pv 13Apr2007               :
 energy of atom  2       EATOM=-1056.7344
 kinetic energy error for atom=    0.0820 (will be added to EATOM!!)
  PAW_PBE Mn_pv 02Aug2007               :
 energy of atom  3       EATOM=-2025.2664
 kinetic energy error for atom=    0.0284 (will be added to EATOM!!)
  PAW_PBE O 08Apr2002                   :
 energy of atom  4       EATOM= -432.3788
 kinetic energy error for atom=    0.1156 (will be added to EATOM!!)
 
 
 POSCAR: Na Mg Mn  O                             
  positions in cartesian coordinates
  No initial velocities read in

 METAGGA = SCAN     LMAXTAU =  6    LMIXTAU =  F

 exchange correlation table for  LEXCH =        8
   RHO(1)=    0.500       N(1)  =     2000
   RHO(2)=  100.500       N(2)  =     4000

 VTST: version 3.2, (02/03/18)

 CHAIN: initializing optimizer
 
 OPT: Using VASP Dynamics algorithm
 CHAIN: Read ICHAIN            0
 
 POSCAR: Na Mg Mn  O                             
  positions in cartesian coordinates
  No initial velocities read in
 


--------------------------------------------------------------------------------------------------------


 ion  position               nearest neighbor table
   1  0.476  0.670  0.250-  88 2.20  79 2.38
   2  0.478  0.504  0.750-  82 2.20  71 2.29  85 2.31  68 2.38  33 2.75  35 2.80
   3  0.277  0.116  0.758-  47 2.22  44 2.28  26 2.81  28 2.92
   4  0.005  0.327  0.766-  83 2.18  61 2.30  80 2.36
   5  0.006  0.971  0.250-  41 2.16  67 2.25  76 2.27  50 2.34  25 2.88  27 2.91
   6  0.263  0.795  0.243-  77 2.19
   7  0.988  0.831  0.745-  44 2.24
   8  0.290  0.673  0.746-  81 2.21  84 2.21  40 2.79  38 2.90
   9  0.794  0.128  0.245-  54 2.23  55 2.35  32 2.88  30 2.89
  10  0.487  0.162  0.241-  53 2.28
  11  0.002  0.469  0.254-  86 2.21  77 2.31  64 2.33  55 2.37  39 2.88  37 2.97
  12  0.530  0.058  0.753-  46 2.22  59 2.22  56 2.33  49 2.35  29 2.90
  13  0.779  0.465  0.745-  57 2.35  68 2.36  71 2.37
  14  0.770  0.950  0.744-  72 2.29  56 2.37  69 2.37
  15  0.775  0.629  0.244-  74 2.27  66 2.33  65 2.34  36 2.85  34 2.86
  16  0.269  0.313  0.257-  87 2.33  41 2.36
  17  0.619  0.310  0.996-  49 1.98  43 2.06  66 2.06  53 2.09  71 2.09  60 2.10
  18  0.628  0.305  0.503-  68 2.04  52 2.06  75 2.07  62 2.08  57 2.10  46 2.14  28 2.85  39 2.85

  19  0.126  0.306  0.015-  41 2.02  55 2.02  78 2.05  83 2.07  48 2.12  61 2.13  26 2.77
  20  0.139  0.309  0.513-  45 1.99  87 2.00  58 2.03  80 2.08  50 2.10  64 2.11  35 2.78  40 2.86

  21  0.123  0.808  0.005-  42 2.01  77 2.05  67 2.05  73 2.05  47 2.08  84 2.10
  22  0.135  0.809  0.500-  44 2.02  81 2.03  70 2.04  76 2.06  86 2.14  51 2.17  27 2.85  31 2.85

  23  0.623  0.813  0.996-  79 1.99  59 2.00  85 2.05  65 2.07  54 2.08  72 2.13  29 2.83
  24  0.635  0.815  0.495-  63 2.01  69 2.04  56 2.06  88 2.09  74 2.10  82 2.15  32 2.81  31 2.83

  25  0.959  0.975  0.998-  67 1.87  47 1.88  72 1.89  54 1.97  61 1.97  41 2.03  26 2.86  34 2.87
                             5 2.88  30 2.97
  26  0.288  0.150  0.008-  43 1.89  47 1.91  49 1.91  48 1.92  41 1.92  42 1.97  19 2.77   3 2.81
                            25 2.86  33 2.87  29 3.01
  27  0.966  0.969  0.507-  63 1.90  76 1.92  58 1.93  69 1.94  44 1.94  50 1.94  22 2.85  36 2.87
                            28 2.90  32 2.91   5 2.91
  28  0.300  0.139  0.499-  46 1.84  50 1.88  52 1.89  51 1.90  44 1.94  45 1.96  35 2.84  18 2.85
                            27 2.90  31 2.90   3 2.92
  29  0.454  0.970  0.000-  79 1.88  49 1.91  84 1.91  59 1.93  53 1.95  42 2.01  23 2.83  38 2.87
                            12 2.90  30 2.91  26 3.01
  30  0.789  0.147  0.988-  60 1.82  55 1.90  61 1.91  54 1.91  59 1.94  53 1.96  37 2.86   9 2.89
                            29 2.91  25 2.97
  31  0.464  0.969  0.490-  51 1.84  81 1.89  56 1.92  88 1.95  62 1.95  46 2.03  24 2.83  22 2.85
                            40 2.88  28 2.90  32 2.93
  32  0.801  0.139  0.502-  64 1.89  62 1.93  63 1.94  56 1.95  58 1.98  57 2.03  24 2.81  39 2.88
                             9 2.88  27 2.91  31 2.93
  33  0.459  0.480  0.994-  48 1.84  85 1.87  65 1.90  78 1.95  71 1.97  43 1.99   2 2.75  38 2.85
                            34 2.86  26 2.87
  34  0.789  0.644  0.990-  73 1.83  65 1.88  71 1.89  66 1.98  72 1.98  67 2.00  15 2.86  37 2.86
                            33 2.86  25 2.87
  35  0.459  0.467  0.502-  68 1.90  52 1.91  45 1.91  87 1.92  82 1.98  74 2.04  20 2.78   2 2.80
                            28 2.84  40 2.90  36 2.91
  36  0.794  0.638  0.498-  75 1.90  74 1.91  69 1.93  70 1.95  68 1.96  76 1.97  15 2.85  39 2.87
                            27 2.87  35 2.91
  37  0.950  0.476  0.995-  73 1.91  66 1.92  83 1.95  60 1.95  55 2.05  77 2.08  30 2.86  34 2.86
                            38 2.96  11 2.97
  38  0.290  0.639  0.003-  83 1.90  85 1.91  79 1.91  77 1.93  84 1.94  78 1.95  33 2.85  29 2.87
                             8 2.90  37 2.96
  39  0.957  0.470  0.507-  57 1.87  70 1.95  75 1.95  86 1.95  80 1.96  64 1.97  18 2.85  36 2.87
                            11 2.88  32 2.88  40 2.92
  40  0.294  0.637  0.500-  81 1.85  87 1.89  86 1.90  88 1.92  80 1.94  82 1.98   8 2.79  20 2.86
                            31 2.88  35 2.90  39 2.92
  41  0.124  0.133  0.107-  26 1.92  19 2.02  25 2.03   5 2.16  16 2.36
  42  0.293  0.984  0.097-  26 1.97  29 2.01  21 2.01
  43  0.447  0.312  0.096-  26 1.89  33 1.99  17 2.06
  44  0.138  0.981  0.596-  27 1.94  28 1.94  22 2.02   7 2.24   3 2.28
  45  0.310  0.303  0.600-  35 1.91  28 1.96  20 1.99
  46  0.438  0.120  0.595-  28 1.84  31 2.03  18 2.14  12 2.22
  47  0.129  0.992  0.914-  25 1.88  26 1.91  21 2.08   3 2.22
  48  0.307  0.317  0.911-  33 1.84  26 1.92  19 2.12
  49  0.442  0.131  0.920-  29 1.91  26 1.91  17 1.98  12 2.35
  50  0.133  0.128  0.414-  28 1.88  27 1.94  20 2.10   5 2.34
  51  0.324  0.996  0.404-  31 1.84  28 1.90  22 2.17
  52  0.452  0.305  0.408-  28 1.89  35 1.91  18 2.06
  53  0.623  0.133  0.090-  29 1.95  30 1.96  17 2.09  10 2.28
  54  0.802  0.997  0.086-  30 1.91  25 1.97  23 2.08   9 2.23
  55  0.939  0.298  0.091-  30 1.90  19 2.02  37 2.05   9 2.35  11 2.37
  56  0.625  0.984  0.592-  31 1.92  32 1.95  24 2.06  12 2.33  14 2.37
  57  0.809  0.311  0.602-  39 1.87  32 2.03  18 2.10  13 2.35
  58  0.960  0.129  0.599-  27 1.93  32 1.98  20 2.03
  59  0.618  0.981  0.903-  29 1.93  30 1.94  23 2.00  12 2.22
  60  0.796  0.304  0.901-  30 1.82  37 1.95  17 2.10
  61  0.949  0.136  0.905-  30 1.91  25 1.97  19 2.13   4 2.30
  62  0.639  0.134  0.406-  32 1.93  31 1.95  18 2.08
  63  0.819  0.984  0.410-  27 1.90  32 1.94  24 2.01
  64  0.957  0.304  0.414-  32 1.89  39 1.97  20 2.11  11 2.33
  65  0.627  0.632  0.084-  34 1.88  33 1.90  23 2.07  15 2.34
  66  0.797  0.486  0.090-  37 1.92  34 1.98  17 2.06  15 2.33
  67  0.946  0.815  0.091-  25 1.87  34 2.00  21 2.05   5 2.25
  68  0.624  0.480  0.593-  35 1.90  36 1.96  18 2.04  13 2.36   2 2.38
  69  0.798  0.800  0.593-  36 1.93  27 1.94  24 2.04  14 2.37
  70  0.957  0.639  0.593-  39 1.95  36 1.95  22 2.04
  71  0.629  0.490  0.897-  34 1.89  33 1.97  17 2.09   2 2.29  13 2.37
  72  0.809  0.822  0.897-  25 1.89  34 1.98  23 2.13  14 2.29
  73  0.945  0.638  0.909-  34 1.83  37 1.91  21 2.05
  74  0.634  0.632  0.402-  36 1.91  35 2.04  24 2.10  15 2.27
  75  0.805  0.483  0.408-  36 1.90  39 1.95  18 2.07
  76  0.958  0.810  0.407-  27 1.92  36 1.97  22 2.06   5 2.27
  77  0.130  0.636  0.099-  38 1.93  21 2.05  37 2.08   6 2.19  11 2.31
  78  0.309  0.488  0.099-  38 1.95  33 1.95  19 2.05
  79  0.451  0.809  0.088-  29 1.88  38 1.91  23 1.99   1 2.38
  80  0.129  0.487  0.600-  40 1.94  39 1.96  20 2.08   4 2.36
  81  0.312  0.805  0.583-  40 1.85  31 1.89  22 2.03   8 2.21
  82  0.455  0.631  0.597-  35 1.98  40 1.98  24 2.15   2 2.20
  83  0.125  0.480  0.916-  38 1.90  37 1.95  19 2.07   4 2.18
  84  0.300  0.805  0.907-  29 1.91  38 1.94  21 2.10   8 2.21
  85  0.446  0.633  0.908-  33 1.87  38 1.91  23 2.05   2 2.31
  86  0.126  0.618  0.408-  40 1.90  39 1.95  22 2.14  11 2.21
  87  0.300  0.478  0.414-  40 1.89  35 1.92  20 2.00  16 2.33
  88  0.446  0.795  0.400-  40 1.92  31 1.95  24 2.09   1 2.20
 
  LATTYP: Found a hexagonal cell.
 ALAT       =    10.0190000534
 C/A-ratio  =     1.1196726572
  
  Lattice vectors:
  
 A1 = (  10.0190000534,   0.0000000000,   0.0000000000)
 A2 = (  -5.0095000267,   8.6767085668,   0.0000000000)
 A3 = (   0.0000000000,   0.0000000000,  11.2180004120)


Analysis of symmetry for initial positions (statically):
=====================================================================
 Subroutine PRICEL returns:
 Original cell was already a primitive cell.
 

 Routine SETGRP: Setting up the symmetry group for a 
 hexagonal supercell.


 Subroutine GETGRP returns: Found  1 space group operations
 (whereof  1 operations were pure point group operations)
 out of a pool of 24 trial point group operations.


The static configuration has the point symmetry C_1 .


Analysis of symmetry for dynamics (positions and initial velocities):
=====================================================================
 Subroutine PRICEL returns:
 Original cell was already a primitive cell.
 

 Routine SETGRP: Setting up the symmetry group for a 
 hexagonal supercell.


 Subroutine GETGRP returns: Found  1 space group operations
 (whereof  1 operations were pure point group operations)
 out of a pool of 24 trial point group operations.


The dynamic configuration has the point symmetry C_1 .


Analysis of structural, dynamic, and magnetic symmetry:
=====================================================================
 Subroutine PRICEL returns:
 Original cell was already a primitive cell.
 

 Routine SETGRP: Setting up the symmetry group for a 
 hexagonal supercell.


 Subroutine GETGRP returns: Found  1 space group operations
 (whereof  1 operations were pure point group operations)
 out of a pool of 24 trial point group operations.


The magnetic configuration has the point symmetry C_1 .


 Subroutine INISYM returns: Found  1 space group operations
 (whereof  1 operations are pure point group operations),
 and found     1 'primitive' translations

 
 

Automatic generation of k-mesh.
 generate k-points for:    2    2    2
Space group operators:
 irot       det(A)        alpha          n_x          n_y          n_z        tau_x        tau_y        tau_z
    1     1.000000     0.000000     1.000000     0.000000     0.000000     0.000000     0.000000     0.000000
 
 Subroutine IBZKPT returns following result:
 ===========================================
 
 Found      8 irreducible k-points:
 
 Following reciprocal coordinates:
            Coordinates               Weight
  0.000000  0.000000  0.000000      1.000000
  0.500000 -0.000000 -0.000000      1.000000
  0.000000  0.500000  0.000000      1.000000
  0.500000  0.500000 -0.000000      1.000000
  0.000000  0.000000  0.500000      1.000000
  0.500000 -0.000000  0.500000      1.000000
  0.000000  0.500000  0.500000      1.000000
  0.500000  0.500000  0.500000      1.000000
 
 Following cartesian coordinates:
            Coordinates               Weight
  0.000000  0.000000  0.000000      1.000000
  0.049905  0.028813 -0.000000      1.000000
  0.000000  0.057626  0.000000      1.000000
  0.049905  0.086438 -0.000000      1.000000
  0.000000  0.000000  0.044571      1.000000
  0.049905  0.028813  0.044571      1.000000
  0.000000  0.057626  0.044571      1.000000
  0.049905  0.086438  0.044571      1.000000
 


--------------------------------------------------------------------------------------------------------




 Dimension of arrays:
   k-points           NKPTS =      8   k-points in BZ     NKDIM =      8   number of bands    NBANDS=    448
   number of dos      NEDOS =    301   number of ions     NIONS =     88
   non local maximal  LDIM  =      6   non local SUM 2l+1 LMDIM =     18
   total plane-waves  NPLWV = 140000
   max r-space proj   IRMAX =   1632   max aug-charges    IRDMAX=   4555
   dimension x,y,z NGX =    50 NGY =   50 NGZ =   56
   dimension x,y,z NGXF=   100 NGYF=  100 NGZF=  112
   support grid    NGXF=   100 NGYF=  100 NGZF=  112
   ions per type =              16   8  16  48
   NGX,Y,Z   is equivalent  to a cutoff of   8.30,  8.30,  8.30 a.u.
   NGXF,Y,Z  is equivalent  to a cutoff of  16.59, 16.59, 16.60 a.u.

 SYSTEM =  unknown system                          
 POSCAR =  Na Mg Mn  O                             

 Startparameter for this run:
   NWRITE =      2    write-flag & timer
   PREC   = normal    normal or accurate (medium, high low for compatibility)
   ISTART =      0    job   : 0-new  1-cont  2-samecut
   ICHARG =      1    charge: 1-file 2-atom 10-const
   ISPIN  =      2    spin polarized calculation?
   LNONCOLLINEAR =      F non collinear calculations
   LSORBIT =      F    spin-orbit coupling
   INIWAV =      1    electr: 0-lowe 1-rand  2-diag
   LASPH  =      T    aspherical Exc in radial PAW
   METAGGA=      F    non-selfconsistent MetaGGA calc.

 Electronic Relaxation 1
   ENCUT  =  400.0 eV  29.40 Ry    5.42 a.u.  16.34 16.34 18.29*2*pi/ulx,y,z
   ENINI  =  400.0     initial cutoff
   ENAUG  =  758.8 eV  augmentation charge cutoff
   NELM   =    200;   NELMIN=  6; NELMDL=-12     # of ELM steps 
   EDIFF  = 0.1E-04   stopping-criterion for ELM
   LREAL  =      T    real-space projection
   NLSPLINE    = F    spline interpolate recip. space projectors
   LCOMPAT=      F    compatible to vasp.4.4
   GGA_COMPAT  = T    GGA compatible to vasp.4.4-vasp.4.6
   LMAXPAW     = -100 max onsite density
   LMAXMIX     =    4 max onsite mixed and CHGCAR
   VOSKOWN=      0    Vosko Wilk Nusair interpolation
   ROPT   =   -0.00050  -0.00050  -0.00050  -0.00050
 Ionic relaxation
   EDIFFG = 0.1E-03   stopping-criterion for IOM
   NSW    =      1    number of steps for IOM
   NBLOCK =      1;   KBLOCK =      1    inner block; outer block 
   IBRION =     -1    ionic relax: 0-MD 1-quasi-New 2-CG
   NFREE  =      0    steps in history (QN), initial steepest desc. (CG)
   ISIF   =      2    stress and relaxation
   IWAVPR =     10    prediction:  0-non 1-charg 2-wave 3-comb
   ISYM   =      2    0-nonsym 1-usesym 2-fastsym
   LCORR  =      T    Harris-Foulkes like correction to forces

   POTIM  = 0.5000    time-step for ionic-motion
   TEIN   =    0.0    initial temperature
   TEBEG  =    0.0;   TEEND  =   0.0 temperature during run
   SMASS  =  -3.00    Nose mass-parameter (am)
   estimated Nose-frequenzy (Omega)   =  0.10E-29 period in steps =****** mass=  -0.229E-26a.u.
   SCALEE = 1.0000    scale energy and forces
   NPACO  =    256;   APACO  = 16.0  distance and # of slots for P.C.
   PSTRESS=    0.0 pullay stress

  Mass of Ions in am
   POMASS =  22.99 24.30 54.94 16.00
  Ionic Valenz
   ZVAL   =   7.00  8.00 13.00  6.00
  Atomic Wigner-Seitz radii
   RWIGS  =  -1.00 -1.00 -1.00 -1.00
  virtual crystal weights 
   VCA    =   1.00  1.00  1.00  1.00
   NELECT =     672.0000    total number of electrons
   NUPDOWN=      48.0000    fix difference up-down

 DOS related values:
   EMIN   =  10.00;   EMAX   =-10.00  energy-range for DOS
   EFERMI =   0.00
   ISMEAR =     0;   SIGMA  =   0.05  broadening in eV -4-tet -1-fermi 0-gaus

 Electronic relaxation 2 (details)
   IALGO  =     48    algorithm
   LDIAG  =      T    sub-space diagonalisation (order eigenvalues)
   LSUBROT=      F    optimize rotation matrix (better conditioning)
   TURBO    =      0    0=normal 1=particle mesh
   IRESTART =      0    0=no restart 2=restart with 2 vectors
   NREBOOT  =      0    no. of reboots
   NMIN     =      0    reboot dimension
   EREF     =   0.00    reference energy to select bands
   IMIX   =      4    mixing-type and parameters
     AMIX     =   0.40;   BMIX     =  1.00
     AMIX_MAG =   1.60;   BMIX_MAG =  1.00
     AMIN     =   0.10
     WC   =   100.;   INIMIX=   1;  MIXPRE=   1;  MAXMIX= -45

 Intra band minimization:
   WEIMIN = 0.0000     energy-eigenvalue tresh-hold
   EBREAK =  0.56E-08  absolut break condition
   DEPER  =   0.30     relativ break condition  

   TIME   =   0.40     timestep for ELM

  volume/ion in A,a.u.               =      11.08        74.78
  Fermi-wavevector in a.u.,A,eV,Ry     =   1.445993  2.732531 28.448379  2.090897
  Thomas-Fermi vector in A             =   2.564112
 
 Write flags
   LWAVE        =      F    write WAVECAR
   LDOWNSAMPLE  =      F    k-point downsampling of WAVECAR
   LCHARG       =      F    write CHGCAR
   LVTOT        =      F    write LOCPOT, total local potential
   LVHAR        =      F    write LOCPOT, Hartree potential only
   LELF         =      F    write electronic localiz. function (ELF)
   LORBIT       =     11    0 simple, 1 ext, 2 COOP (PROOUT), +10 PAW based schemes


 Dipole corrections
   LMONO  =      F    monopole corrections only (constant potential shift)
   LDIPOL =      F    correct potential (dipole corrections)
   IDIPOL =      0    1-x, 2-y, 3-z, 4-all directions 
   EPSILON=  1.0000000 bulk dielectric constant

 Exchange correlation treatment:
   GGA     =    --    GGA type
   LEXCH   =     8    internal setting for exchange type
   VOSKOWN=      0    Vosko Wilk Nusair interpolation
   LHFCALC =     F    Hartree Fock is set to
   LHFONE  =     F    Hartree Fock one center treatment
   AEXX    =    0.0000 exact exchange contribution

 Linear response parameters
   LEPSILON=     F    determine dielectric tensor
   LRPA    =     F    only Hartree local field effects (RPA)
   LNABLA  =     F    use nabla operator in PAW spheres
   LVEL    =     F    velocity operator in full k-point grid
   LINTERFAST=   F  fast interpolation
   KINTER  =     0    interpolate to denser k-point grid
   CSHIFT  =0.1000    complex shift for real part using Kramers Kronig
   OMEGAMAX=  -1.0    maximum frequency
   DEG_THRESHOLD= 0.2000000E-02 threshold for treating states as degnerate
   RTIME   =   -0.100 relaxation time in fs
  (WPLASMAI=    0.000 imaginary part of plasma frequency in eV, 0.658/RTIME)
   DFIELD  = 0.0000000 0.0000000 0.0000000 field for delta impulse in time
 
 Orbital magnetization related:
   ORBITALMAG=     F  switch on orbital magnetization
   LCHIMAG   =     F  perturbation theory with respect to B field
   DQ        =  0.001000  dq finite difference perturbation B field
   LLRAUG    =     F  two centre corrections for induced B field



--------------------------------------------------------------------------------------------------------


 Static calculation
 charge density and potential will be updated during run
 spin polarized calculation
 RMM-DIIS sequential band-by-band
 perform sub-space diagonalisation
    before iterative eigenvector-optimisation
 modified Broyden-mixing scheme, WC =      100.0
 initial mixing is a Kerker type mixing with AMIX =  0.4000 and BMIX =      1.0000
 Hartree-type preconditioning will be used
 using additional bands          112
 real space projection scheme for non local part
 use partial core corrections
 calculate Harris-corrections to forces 
   (improved forces if not selfconsistent)
 use gradient corrections 
 use of overlap-Matrix (Vanderbilt PP)
 Gauss-broadening in eV      SIGMA  =   0.05


--------------------------------------------------------------------------------------------------------


  energy-cutoff  :      400.00
  volume of cell :      975.20
      direct lattice vectors                 reciprocal lattice vectors
    10.019000053  0.000000000  0.000000000     0.099810360  0.057625538 -0.000000000
    -5.009500027  8.676708567  0.000000000     0.000000000  0.115251076  0.000000000
     0.000000000  0.000000000 11.218000412     0.000000000  0.000000000  0.089142446

  length of vectors
    10.019000053 10.019000053 11.218000412     0.115251076  0.115251076  0.089142446


 
 k-points in units of 2pi/SCALE and weight: read from INCAR                         
   0.00000000  0.00000000  0.00000000       0.125
   0.04990518  0.02881277 -0.00000000       0.125
   0.00000000  0.05762554  0.00000000       0.125
   0.04990518  0.08643831 -0.00000000       0.125
   0.00000000  0.00000000  0.04457122       0.125
   0.04990518  0.02881277  0.04457122       0.125
   0.00000000  0.05762554  0.04457122       0.125
   0.04990518  0.08643831  0.04457122       0.125
 
 k-points in reciprocal lattice and weights: read from INCAR                         
   0.00000000  0.00000000  0.00000000       0.125
   0.50000000 -0.00000000 -0.00000000       0.125
   0.00000000  0.50000000  0.00000000       0.125
   0.50000000  0.50000000 -0.00000000       0.125
   0.00000000  0.00000000  0.50000000       0.125
   0.50000000 -0.00000000  0.50000000       0.125
   0.00000000  0.50000000  0.50000000       0.125
   0.50000000  0.50000000  0.50000000       0.125
 
 position of ions in fractional coordinates (direct lattice) 
   0.47589560  0.66979299  0.25010161
   0.47774371  0.50444441  0.74954624
   0.27686843  0.11586882  0.75819484
   0.00549501  0.32677006  0.76632106
   0.00644568  0.97147207  0.25036280
   0.26325410  0.79519769  0.24332590
   0.98758808  0.83087036  0.74462379
   0.29029952  0.67276992  0.74618735
   0.79411483  0.12752301  0.24482438
   0.48685729  0.16209866  0.24116330
   0.00230357  0.46877124  0.25406845
   0.53002084  0.05816524  0.75252538
   0.77873305  0.46469036  0.74542340
   0.76963869  0.95033634  0.74386252
   0.77472581  0.62929393  0.24433855
   0.26929898  0.31252750  0.25705562
   0.61906697  0.31007726  0.99631071
   0.62792180  0.30519983  0.50293633
   0.12581236  0.30625092  0.01499385
   0.13877004  0.30853059  0.51347654
   0.12336367  0.80829037  0.00530394
   0.13496660  0.80945210  0.49993491
   0.62288745  0.81252009  0.99641829
   0.63515214  0.81476979  0.49484042
   0.95911333  0.97475326  0.99776075
   0.28823202  0.14996240  0.00761762
   0.96566135  0.96853201  0.50724102
   0.29989524  0.13935930  0.49871009
   0.45419185  0.96967184  0.00041893
   0.78854900  0.14676764  0.98798356
   0.46357336  0.96863689  0.49036012
   0.80095345  0.13873694  0.50169815
   0.45912945  0.48010141  0.99359402
   0.78884068  0.64433073  0.98988296
   0.45850062  0.46694435  0.50173202
   0.79396065  0.63790433  0.49810036
   0.94996224  0.47603189  0.99451868
   0.29036598  0.63947175  0.00261345
   0.95683416  0.47024283  0.50719734
   0.29377268  0.63699500  0.49983061
   0.12393690  0.13266090  0.10727402
   0.29284770  0.98350158  0.09733018
   0.44722730  0.31243645  0.09605544
   0.13776139  0.98082072  0.59612852
   0.31018809  0.30336849  0.59965054
   0.43828064  0.11951767  0.59477534
   0.12902138  0.99210803  0.91378139
   0.30671093  0.31656589  0.91082186
   0.44172201  0.13120528  0.92024422
   0.13293073  0.12835512  0.41424941
   0.32370481  0.99618096  0.40357460
   0.45151282  0.30486215  0.40801657
   0.62326657  0.13274734  0.09046710
   0.80178164  0.99748684  0.08611873
   0.93929366  0.29753333  0.09111428
   0.62531470  0.98437530  0.59185147
   0.80881438  0.31111913  0.60222141
   0.96039442  0.12904317  0.59894186
   0.61810768  0.98052718  0.90344978
   0.79633014  0.30398278  0.90090922
   0.94884077  0.13643192  0.90460863
   0.63894305  0.13430093  0.40629344
   0.81870441  0.98441552  0.41044391
   0.95708956  0.30359323  0.41424851
   0.62709500  0.63240340  0.08358236
   0.79705951  0.48616016  0.09034498
   0.94600036  0.81465569  0.09132465
   0.62428672  0.47967037  0.59346405
   0.79798334  0.79995311  0.59322604
   0.95743471  0.63897963  0.59347743
   0.62856579  0.49035645  0.89666604
   0.80902379  0.82197413  0.89690672
   0.94490598  0.63845754  0.90907467
   0.63370896  0.63183752  0.40181760
   0.80465711  0.48344138  0.40784809
   0.95808461  0.80971949  0.40722320
   0.12998346  0.63639570  0.09928329
   0.30867817  0.48786357  0.09896505
   0.45110378  0.80887470  0.08835371
   0.12933363  0.48679980  0.60044926
   0.31246299  0.80476369  0.58255658
   0.45539665  0.63095700  0.59745496
   0.12477879  0.48008758  0.91550184
   0.29975957  0.80521432  0.90683719
   0.44550723  0.63286095  0.90779102
   0.12581152  0.61798895  0.40760829
   0.30031747  0.47807760  0.41408984
   0.44634612  0.79462736  0.39960598
 
 position of ions in cartesian coordinates  (Angst):
   1.41267003  5.81159857  2.80564000
   2.25950000  4.37691713  8.40841000
   2.19349995  1.00536000  8.50543000
  -1.58190008  2.83528857  8.59659000
  -4.80201005  8.42918000  2.80857000
  -1.34600003  6.89969857  2.72963000
   5.73239989  7.20922000  8.35319000
  -0.46173003  5.83742857  8.37073000
   7.31741000  1.10648000  2.74644000
   4.06579000  1.40648287  2.70537000
  -2.32523003  4.06739143  2.85014000
   5.01890005  0.50468287  8.44183000
   5.47426005  4.03198287  8.36216000
   2.95030013  8.24579143  8.34465000
   4.60953000  5.46020000  2.74099000
   1.13249995  2.71171000  2.88365000
   4.64910000  2.69045000 11.17661401
   4.76225000  2.64813000  5.64194000
  -0.27365000  2.65725000  0.16820100
  -0.15524700  2.67703000  5.76018000
  -2.81315000  7.01330000  0.05949959
  -2.70272000  7.02338000  5.60827000
   2.17039000  7.05000000 11.17782081
   2.28200000  7.06952000  5.55112000
   4.72633000  8.45765000 11.19288051
   2.13656000  1.30118000  0.08545450
   4.82310000  8.40367000  5.69023000
   2.30653000  1.20918000  5.59453000
  -0.30702300  8.41356000  0.00469959
   7.16524000  1.27346000 11.08320000
  -0.20784500  8.40458000  5.50086000
   7.32975000  1.20378000  5.62805000
   2.19495000  4.16570000 11.14613811
   4.67562000  5.59067000 11.10450741
   2.25456000  4.05154000  5.62843000
   4.75911000  5.53491000  5.58769000
   7.13299000  4.13039000 11.15651091
  -0.29425700  5.54851000  0.02931770
   7.23084000  4.08016000  5.68974000
  -0.24771800  5.52702000  5.60710000
   0.57715900  1.15106000  1.20340000
  -1.99281003  8.53355657  1.09185000
   2.91562000  2.71092000  1.07755000
  -3.53319003  8.51029557  6.68737000
   1.58805000  2.63224000  6.72688000
   3.79241000  1.03702000  6.67219000
  -3.67730003  8.60823227 10.25080000
   1.48710000  2.74675000 10.21760000
   3.76834000  1.13843000 10.32330000
   0.68883800  1.11370000  4.64705000
  -1.74717003  8.64357187  4.52730000
   2.99650000  2.64520000  4.57713000
   5.57951000  1.15181000  1.01486000
   3.03613997  8.65490257  0.96608000
   7.92029000  2.58161000  1.02212000
   1.33379997  8.54113757  6.63939000
   6.54496000  2.69949000  6.75572000
   8.97575000  1.11967000  6.71893000
   1.28086997  8.50774857 10.13490000
   6.45563000  2.63757000 10.10640000
   8.82298000  1.18378000 10.14790000
   5.72879000  1.16529000  4.55780000
   3.27116997  8.54148657  4.60436000
   8.06823000  2.63419000  4.64704000
   3.11484000  5.48718000  0.93762700
   5.55032000  4.21827000  1.01349000
   5.39696000  7.06853000  1.02448000
   3.85182000  4.16196000  6.65748000
   3.98763000  6.94096000  6.65481000
   6.39157000  5.54424000  6.65763000
   3.84116000  4.25468000 10.05880000
   3.98793000  7.13203000 10.06150000
   6.26866000  5.53971000 10.19800000
   3.18394000  5.48227000  4.50759000
   5.64006000  4.19468000  4.57524000
   5.54276000  7.02570000  4.56823000
  -1.88572000  5.52182000  1.11376000
   0.64869400  4.23305000  1.11019000
   0.46755100  7.01837000  0.99115200
  -1.14283000  4.22382000  6.73584000
  -0.90089700  6.98270000  6.53512000
   1.40184000  5.47463000  6.70225000
  -1.15484000  4.16558000 10.27010000
  -1.03043000  6.98661000 10.17290000
   1.29322000  5.49115000 10.18360000
  -1.83531000  5.36211000  4.57255000
   0.61395100  4.14814000  4.64526000
   0.49125600  6.89475000  4.48278000
 


--------------------------------------------------------------------------------------------------------


 k-point  1 :   0.0000 0.0000 0.0000  plane waves:   17725
 k-point  2 :   0.5000-0.0000-0.0000  plane waves:   17736
 k-point  3 :   0.0000 0.5000 0.0000  plane waves:   17736
 k-point  4 :   0.5000 0.5000-0.0000  plane waves:   17736
 k-point  5 :   0.0000 0.0000 0.5000  plane waves:   17676
 k-point  6 :   0.5000-0.0000 0.5000  plane waves:   17700
 k-point  7 :   0.0000 0.5000 0.5000  plane waves:   17700
 k-point  8 :   0.5000 0.5000 0.5000  plane waves:   17700

 maximum and minimum number of plane-waves per node :     17736    17676

 maximum number of plane-waves:     17736
 maximum index in each direction: 
   IXMAX=   16   IYMAX=   16   IZMAX=   18
   IXMIN=  -16   IYMIN=  -16   IZMIN=  -18


 serial   3D FFT for wavefunctions
 parallel 3D FFT for charge:
    minimum data exchange during FFTs selected (reduces bandwidth)


 total amount of memory used by VASP MPI-rank0   104114. kBytes
=======================================================================

   base      :      30000. kBytes
   nonlr-proj:      13672. kBytes
   fftplans  :       1316. kBytes
   grid      :      22786. kBytes
   one-center:       2737. kBytes
   wavefun   :      33603. kBytes
 
     INWAV:  cpu time    0.0000: real time    0.0001
 Broyden mixing: mesh for mixing (old mesh)
   NGX = 33   NGY = 33   NGZ = 37
  (NGX  =100   NGY  =100   NGZ  =112)
  gives a total of  40293 points

 initial charge density was supplied:
 charge density of overlapping atoms calculated
 number of electron     672.0000000 magnetization      48.0000000
 keeping initial charge density in first step


--------------------------------------------------------------------------------------------------------


 Maximum index for non-local projection operator         1553
 Maximum index for augmentation-charges          268 (set IRDMAX)


--------------------------------------------------------------------------------------------------------


 First call to EWALD:  gamma=   0.179
 Maximum number of real-space cells 3x 3x 2
 Maximum number of reciprocal cells 3x 3x 3

    FEWALD:  cpu time    0.0040: real time    0.0060


--------------------------------------- Iteration      1(   1)  ---------------------------------------


    POTLOK:  cpu time    0.0658: real time    0.0694
    SETDIJ:  cpu time    2.5658: real time    2.5675
    EDDIAG:  cpu time    3.2853: real time    3.3114
  RMM-DIIS:  cpu time    8.6564: real time    8.6724
    ORTHCH:  cpu time    0.5872: real time    0.5916
       DOS:  cpu time    0.0012: real time    0.0015
    --------------------------------------------
      LOOP:  cpu time   15.1617: real time   15.2138

 eigenvalue-minimisations  :  7168
 total energy-change (2. order) : 0.1836409E+04  (-0.3584841E+05)
 number of electron     672.0000000 magnetization      48.0000000
 augmentation part      672.0000000 magnetization      48.0000000

 Free energy of the ion-electron system (eV)
  ---------------------------------------------------
  alpha Z        PSCENC =      2652.81237852
  Ewald energy   TEWEN  =    -41932.97031446
  -Hartree energ DENC   =    -25684.32851542
  -exchange      EXHF   =         0.00000000
  -V(xc)+E(xc)   XCENC  =      3605.59669654
  PAW double counting   =     55594.23204139   -59034.67079123
  entropy T*S    EENTRO =        -0.03809287
  eigenvalues    EBANDS =     -7226.42212265
  atomic energy  EATOM  =     73862.19814772
  Solvation  Ediel_sol  =         0.00000000
  ---------------------------------------------------
  free energy    TOTEN  =      1836.40942753 eV

  energy without entropy =     1836.44752040  energy(sigma->0) =     1836.42847397


--------------------------------------------------------------------------------------------------------




--------------------------------------- Iteration      1(   2)  ---------------------------------------


    EDDIAG:  cpu time    3.2034: real time    3.2114
  RMM-DIIS:  cpu time    8.6556: real time    8.6697
    ORTHCH:  cpu time    0.5816: real time    0.5857
       DOS:  cpu time    0.0010: real time    0.0010
    --------------------------------------------
      LOOP:  cpu time   12.4416: real time   12.4678

 eigenvalue-minimisations  :  7168
 total energy-change (2. order) :-0.2670196E+04  (-0.8648640E+04)
 number of electron     672.0000000 magnetization      48.0000000
 augmentation part      672.0000000 magnetization      48.0000000

 Free energy of the ion-electron system (eV)
  ---------------------------------------------------
  alpha Z        PSCENC =      2652.81237852
  Ewald energy   TEWEN  =    -41932.97031446
  -Hartree energ DENC   =    -25684.32851542
  -exchange      EXHF   =         0.00000000
  -V(xc)+E(xc)   XCENC  =      3605.59669654
  PAW double counting   =     55594.23204139   -59034.67079123
  entropy T*S    EENTRO =        -0.04019366
  eigenvalues    EBANDS =     -9896.61614205
  atomic energy  EATOM  =     73862.19814772
  Solvation  Ediel_sol  =         0.00000000
  ---------------------------------------------------
  free energy    TOTEN  =      -833.78669266 eV

  energy without entropy =     -833.74649899  energy(sigma->0) =     -833.76659582


--------------------------------------------------------------------------------------------------------




--------------------------------------- Iteration      1(   3)  ---------------------------------------


    EDDIAG:  cpu time    3.2325: real time    3.2394
  RMM-DIIS:  cpu time    8.6333: real time    8.6685
    ORTHCH:  cpu time    0.5824: real time    0.5880
       DOS:  cpu time    0.0010: real time    0.0010
    --------------------------------------------
      LOOP:  cpu time   12.4493: real time   12.4969

 eigenvalue-minimisations  :  7168
 total energy-change (2. order) : 0.2973092E+03  (-0.1557011E+04)
 number of electron     672.0000000 magnetization      48.0000000
 augmentation part      672.0000000 magnetization      48.0000000

 Free energy of the ion-electron system (eV)
  ---------------------------------------------------
  alpha Z        PSCENC =      2652.81237852
  Ewald energy   TEWEN  =    -41932.97031446
  -Hartree energ DENC   =    -25684.32851542
  -exchange      EXHF   =         0.00000000
  -V(xc)+E(xc)   XCENC  =      3605.59669654
  PAW double counting   =     55594.23204139   -59034.67079123
  entropy T*S    EENTRO =        -0.04680126
  eigenvalues    EBANDS =     -9599.30038181
  atomic energy  EATOM  =     73862.19814772
  Solvation  Ediel_sol  =         0.00000000
  ---------------------------------------------------
  free energy    TOTEN  =      -536.47754001 eV

  energy without entropy =     -536.43073875  energy(sigma->0) =     -536.45413938


--------------------------------------------------------------------------------------------------------




--------------------------------------- Iteration      1(   4)  ---------------------------------------


    EDDIAG:  cpu time    3.2309: real time    3.2380
  RMM-DIIS:  cpu time    8.6473: real time    8.6597
    ORTHCH:  cpu time    0.5807: real time    0.5846
       DOS:  cpu time    0.0008: real time    0.0008
    --------------------------------------------
      LOOP:  cpu time   12.4596: real time   12.4832

 eigenvalue-minimisations  :  7168
 total energy-change (2. order) :-0.5222875E+03  (-0.5062861E+03)
 number of electron     672.0000000 magnetization      48.0000000
 augmentation part      672.0000000 magnetization      48.0000000

 Free energy of the ion-electron system (eV)
  ---------------------------------------------------
  alpha Z        PSCENC =      2652.81237852
  Ewald energy   TEWEN  =    -41932.97031446
  -Hartree energ DENC   =    -25684.32851542
  -exchange      EXHF   =         0.00000000
  -V(xc)+E(xc)   XCENC  =      3605.59669654
  PAW double counting   =     55594.23204139   -59034.67079123
  entropy T*S    EENTRO =        -0.00230553
  eigenvalues    EBANDS =    -10121.63237553
  atomic energy  EATOM  =     73862.19814772
  Solvation  Ediel_sol  =         0.00000000
  ---------------------------------------------------
  free energy    TOTEN  =     -1058.76503800 eV

  energy without entropy =    -1058.76273247  energy(sigma->0) =    -1058.76388523


--------------------------------------------------------------------------------------------------------




--------------------------------------- Iteration      1(   5)  ---------------------------------------


    EDDIAG:  cpu time    3.3218: real time    3.3301
  RMM-DIIS:  cpu time    8.6328: real time    8.6683
    ORTHCH:  cpu time    0.5832: real time    0.5869
       DOS:  cpu time    0.0006: real time    0.0007
    --------------------------------------------
      LOOP:  cpu time   12.5384: real time   12.5859

 eigenvalue-minimisations  :  7168
 total energy-change (2. order) :-0.1475218E+03  (-0.2119542E+03)
 number of electron     672.0000000 magnetization      48.0000000
 augmentation part      672.0000000 magnetization      48.0000000

 Free energy of the ion-electron system (eV)
  ---------------------------------------------------
  alpha Z        PSCENC =      2652.81237852
  Ewald energy   TEWEN  =    -41932.97031446
  -Hartree energ DENC   =    -25684.32851542
  -exchange      EXHF   =         0.00000000
  -V(xc)+E(xc)   XCENC  =      3605.59669654
  PAW double counting   =     55594.23204139   -59034.67079123
  entropy T*S    EENTRO =        -0.00000000
  eigenvalues    EBANDS =    -10269.15646828
  atomic energy  EATOM  =     73862.19814772
  Solvation  Ediel_sol  =         0.00000000
  ---------------------------------------------------
  free energy    TOTEN  =     -1206.28682523 eV

  energy without entropy =    -1206.28682523  energy(sigma->0) =    -1206.28682523


--------------------------------------------------------------------------------------------------------




--------------------------------------- Iteration      1(   6)  ---------------------------------------


    EDDIAG:  cpu time    3.2392: real time    3.2466
  RMM-DIIS:  cpu time    8.6551: real time    8.6699
    ORTHCH:  cpu time    0.5789: real time    0.5835
       DOS:  cpu time    0.0006: real time    0.0006
    --------------------------------------------
      LOOP:  cpu time   12.4739: real time   12.5007

 eigenvalue-minimisations  :  7168
 total energy-change (2. order) :-0.2152650E+02  (-0.1147118E+03)
 number of electron     672.0000000 magnetization      48.0000000
 augmentation part      672.0000000 magnetization      48.0000000

 Free energy of the ion-electron system (eV)
  ---------------------------------------------------
  alpha Z        PSCENC =      2652.81237852
  Ewald energy   TEWEN  =    -41932.97031446
  -Hartree energ DENC   =    -25684.32851542
  -exchange      EXHF   =         0.00000000
  -V(xc)+E(xc)   XCENC  =      3605.59669654
  PAW double counting   =     55594.23204139   -59034.67079123
  entropy T*S    EENTRO =        -0.00000000
  eigenvalues    EBANDS =    -10290.68296805
  atomic energy  EATOM  =     73862.19814772
  Solvation  Ediel_sol  =         0.00000000
  ---------------------------------------------------
  free energy    TOTEN  =     -1227.81332499 eV

  energy without entropy =    -1227.81332499  energy(sigma->0) =    -1227.81332499


--------------------------------------------------------------------------------------------------------




--------------------------------------- Iteration      1(   7)  ---------------------------------------


    EDDIAG:  cpu time    3.2351: real time    3.2433
  RMM-DIIS:  cpu time    8.6543: real time    8.6684
    ORTHCH:  cpu time    0.5826: real time    0.5864
       DOS:  cpu time    0.0006: real time    0.0006
    --------------------------------------------
      LOOP:  cpu time   12.4727: real time   12.4988

 eigenvalue-minimisations  :  7168
 total energy-change (2. order) :-0.6488857E+01  (-0.7550694E+02)
 number of electron     672.0000000 magnetization      48.0000000
 augmentation part      672.0000000 magnetization      48.0000000

 Free energy of the ion-electron system (eV)
  ---------------------------------------------------
  alpha Z        PSCENC =      2652.81237852
  Ewald energy   TEWEN  =    -41932.97031446
  -Hartree energ DENC   =    -25684.32851542
  -exchange      EXHF   =         0.00000000
  -V(xc)+E(xc)   XCENC  =      3605.59669654
  PAW double counting   =     55594.23204139   -59034.67079123
  entropy T*S    EENTRO =        -0.00000000
  eigenvalues    EBANDS =    -10297.17182485
  atomic energy  EATOM  =     73862.19814772
  Solvation  Ediel_sol  =         0.00000000
  ---------------------------------------------------
  free energy    TOTEN  =     -1234.30218179 eV

  energy without entropy =    -1234.30218179  energy(sigma->0) =    -1234.30218179


--------------------------------------------------------------------------------------------------------




--------------------------------------- Iteration      1(   8)  ---------------------------------------


    EDDIAG:  cpu time    3.2514: real time    3.2699
  RMM-DIIS:  cpu time    8.6630: real time    8.6777
    ORTHCH:  cpu time    0.5811: real time    0.5850
       DOS:  cpu time    0.0007: real time    0.0007
    --------------------------------------------
      LOOP:  cpu time   12.4962: real time   12.5332

 eigenvalue-minimisations  :  7168
 total energy-change (2. order) : 0.4625765E+01  (-0.5217687E+02)
 number of electron     672.0000000 magnetization      48.0000000
 augmentation part      672.0000000 magnetization      48.0000000

 Free energy of the ion-electron system (eV)
  ---------------------------------------------------
  alpha Z        PSCENC =      2652.81237852
  Ewald energy   TEWEN  =    -41932.97031446
  -Hartree energ DENC   =    -25684.32851542
  -exchange      EXHF   =         0.00000000
  -V(xc)+E(xc)   XCENC  =      3605.59669654
  PAW double counting   =     55594.23204139   -59034.67079123
  entropy T*S    EENTRO =        -0.00000000
  eigenvalues    EBANDS =    -10292.54605956
  atomic energy  EATOM  =     73862.19814772
  Solvation  Ediel_sol  =         0.00000000
  ---------------------------------------------------
  free energy    TOTEN  =     -1229.67641650 eV

  energy without entropy =    -1229.67641650  energy(sigma->0) =    -1229.67641650


--------------------------------------------------------------------------------------------------------




--------------------------------------- Iteration      1(   9)  ---------------------------------------


    EDDIAG:  cpu time    3.2342: real time    3.2414
  RMM-DIIS:  cpu time   18.0482: real time   18.1348
    ORTHCH:  cpu time    0.5782: real time    0.5823
       DOS:  cpu time    0.0006: real time    0.0006
    --------------------------------------------
      LOOP:  cpu time   21.8612: real time   21.9592

 eigenvalue-minimisations  : 20253
 total energy-change (2. order) : 0.1788302E+02  (-0.2330342E+02)
 number of electron     672.0000000 magnetization      48.0000000
 augmentation part      672.0000000 magnetization      48.0000000

 Free energy of the ion-electron system (eV)
  ---------------------------------------------------
  alpha Z        PSCENC =      2652.81237852
  Ewald energy   TEWEN  =    -41932.97031446
  -Hartree energ DENC   =    -25684.32851542
  -exchange      EXHF   =         0.00000000
  -V(xc)+E(xc)   XCENC  =      3605.59669654
  PAW double counting   =     55594.23204139   -59034.67079123
  entropy T*S    EENTRO =        -0.00000000
  eigenvalues    EBANDS =    -10274.66303860
  atomic energy  EATOM  =     73862.19814772
  Solvation  Ediel_sol  =         0.00000000
  ---------------------------------------------------
  free energy    TOTEN  =     -1211.79339554 eV

  energy without entropy =    -1211.79339554  energy(sigma->0) =    -1211.79339554


--------------------------------------------------------------------------------------------------------




--------------------------------------- Iteration      1(  10)  ---------------------------------------


    EDDIAG:  cpu time    3.2286: real time    3.2357
  RMM-DIIS:  cpu time   18.4848: real time   18.5168
    ORTHCH:  cpu time    0.5816: real time    0.5858
       DOS:  cpu time    0.0007: real time    0.0007
    --------------------------------------------
      LOOP:  cpu time   22.2957: real time   22.3390

 eigenvalue-minimisations  : 20178
 total energy-change (2. order) :-0.3039144E+01  (-0.1020031E+01)
 number of electron     672.0000000 magnetization      48.0000000
 augmentation part      672.0000000 magnetization      48.0000000

 Free energy of the ion-electron system (eV)
  ---------------------------------------------------
  alpha Z        PSCENC =      2652.81237852
  Ewald energy   TEWEN  =    -41932.97031446
  -Hartree energ DENC   =    -25684.32851542
  -exchange      EXHF   =         0.00000000
  -V(xc)+E(xc)   XCENC  =      3605.59669654
  PAW double counting   =     55594.23204139   -59034.67079123
  entropy T*S    EENTRO =        -0.00000000
  eigenvalues    EBANDS =    -10277.70218279
  atomic energy  EATOM  =     73862.19814772
  Solvation  Ediel_sol  =         0.00000000
  ---------------------------------------------------
  free energy    TOTEN  =     -1214.83253973 eV

  energy without entropy =    -1214.83253973  energy(sigma->0) =    -1214.83253973


--------------------------------------------------------------------------------------------------------




--------------------------------------- Iteration      1(  11)  ---------------------------------------


    EDDIAG:  cpu time    3.2218: real time    3.2304
  RMM-DIIS:  cpu time   19.2163: real time   19.2704
    ORTHCH:  cpu time    0.5800: real time    0.5837
       DOS:  cpu time    0.0007: real time    0.0007
    --------------------------------------------
      LOOP:  cpu time   23.0188: real time   23.0852

 eigenvalue-minimisations  : 21676
 total energy-change (2. order) : 0.1058233E+00  (-0.9456634E-01)
 number of electron     672.0000000 magnetization      48.0000000
 augmentation part      672.0000000 magnetization      48.0000000

 Free energy of the ion-electron system (eV)
  ---------------------------------------------------
  alpha Z        PSCENC =      2652.81237852
  Ewald energy   TEWEN  =    -41932.97031446
  -Hartree energ DENC   =    -25684.32851542
  -exchange      EXHF   =         0.00000000
  -V(xc)+E(xc)   XCENC  =      3605.59669654
  PAW double counting   =     55594.23204139   -59034.67079123
  entropy T*S    EENTRO =        -0.00000000
  eigenvalues    EBANDS =    -10277.59635952
  atomic energy  EATOM  =     73862.19814772
  Solvation  Ediel_sol  =         0.00000000
  ---------------------------------------------------
  free energy    TOTEN  =     -1214.72671646 eV

  energy without entropy =    -1214.72671646  energy(sigma->0) =    -1214.72671646


--------------------------------------------------------------------------------------------------------




--------------------------------------- Iteration      1(  12)  ---------------------------------------


    EDDIAG:  cpu time    3.2262: real time    3.2331
  RMM-DIIS:  cpu time   19.9263: real time   19.9697
    ORTHCH:  cpu time    0.5798: real time    0.5839
       DOS:  cpu time    0.0007: real time    0.0007
    CHARGE:  cpu time    1.8024: real time    1.8051
    MIXING:  cpu time    0.0012: real time    0.0015
    --------------------------------------------
      LOOP:  cpu time   25.5366: real time   25.5940

 eigenvalue-minimisations  : 22773
 total energy-change (2. order) : 0.6339490E-02  (-0.6763638E-02)
 number of electron     671.9999578 magnetization      47.9999972
 augmentation part      239.0265598 magnetization      29.0426011

 Broyden mixing:
  rms(total) = 0.12473E+02    rms(broyden)= 0.12464E+02
  rms(prec ) = 0.14340E+02
  weight for this iteration     100.00

 Free energy of the ion-electron system (eV)
  ---------------------------------------------------
  alpha Z        PSCENC =      2652.81237852
  Ewald energy   TEWEN  =    -41932.97031446
  -Hartree energ DENC   =    -25684.32851542
  -exchange      EXHF   =         0.00000000
  -V(xc)+E(xc)   XCENC  =      3605.59669654
  PAW double counting   =     55594.23204139   -59034.67079123
  entropy T*S    EENTRO =        -0.00000000
  eigenvalues    EBANDS =    -10277.59002003
  atomic energy  EATOM  =     73862.19814772
  Solvation  Ediel_sol  =         0.00000000
  ---------------------------------------------------
  free energy    TOTEN  =     -1214.72037697 eV

  energy without entropy =    -1214.72037697  energy(sigma->0) =    -1214.72037697


--------------------------------------------------------------------------------------------------------




--------------------------------------- Iteration      1(  13)  ---------------------------------------


    POTLOK:  cpu time    0.0612: real time    0.0633
    SETDIJ:  cpu time    2.7094: real time    2.7111
    EDDIAG:  cpu time    3.2299: real time    3.2378
  RMM-DIIS:  cpu time   16.2426: real time   16.2904
    ORTHCH:  cpu time    0.5833: real time    0.5873
       DOS:  cpu time    0.0008: real time    0.0008
    CHARGE:  cpu time    1.8110: real time    1.8154
    MIXING:  cpu time    0.0009: real time    0.0010
    --------------------------------------------
      LOOP:  cpu time   24.6393: real time   24.7071

 eigenvalue-minimisations  : 17300
 total energy-change (2. order) : 0.2232506E+03  (-0.1385306E+03)
 number of electron     671.9999622 magnetization      47.9999966
 augmentation part      269.3644747 magnetization      26.2808779

 Broyden mixing:
  rms(total) = 0.14066E+02    rms(broyden)= 0.14063E+02
  rms(prec ) = 0.15849E+02
  weight for this iteration     100.00

 eigenvalues of (default mixing * dielectric matrix)
  average eigenvalue GAMMA=   0.3152
  0.3152

 Free energy of the ion-electron system (eV)
  ---------------------------------------------------
  alpha Z        PSCENC =      2652.81237852
  Ewald energy   TEWEN  =    -41932.97031446
  -Hartree energ DENC   =    -25008.68254018
  -exchange      EXHF   =         0.00000000
  -V(xc)+E(xc)   XCENC  =      3695.60161934
  PAW double counting   =     59828.21822259   -63253.02266411
  entropy T*S    EENTRO =        -0.06966546
  eigenvalues    EBANDS =    -10835.55495535
  atomic energy  EATOM  =     73862.19814772
  Solvation  Ediel_sol  =         0.00000000
  ---------------------------------------------------
  free energy    TOTEN  =      -991.46977140 eV

  energy without entropy =     -991.40010593  energy(sigma->0) =     -991.43493867


--------------------------------------------------------------------------------------------------------




--------------------------------------- Iteration      1(  14)  ---------------------------------------


    POTLOK:  cpu time    0.0609: real time    0.0610
    SETDIJ:  cpu time    2.7089: real time    2.7105
    EDDIAG:  cpu time    3.2291: real time    3.2376
  RMM-DIIS:  cpu time   16.9753: real time   17.0059
    ORTHCH:  cpu time    0.5882: real time    0.5920
       DOS:  cpu time    0.0006: real time    0.0006
    CHARGE:  cpu time    1.8010: real time    1.8037
    MIXING:  cpu time    0.0008: real time    0.0008
    --------------------------------------------
      LOOP:  cpu time   25.3647: real time   25.4120

 eigenvalue-minimisations  : 17749
 total energy-change (2. order) : 0.7523798E+02  (-0.1955064E+02)
 number of electron     671.9999589 magnetization      47.9999945
 augmentation part      246.5662997 magnetization      32.1672364

 Broyden mixing:
  rms(total) = 0.52127E+01    rms(broyden)= 0.52084E+01
  rms(prec ) = 0.56483E+01
  weight for this iteration     100.00

 eigenvalues of (default mixing * dielectric matrix)
  average eigenvalue GAMMA=   0.7259
  1.0946  0.3573

 Free energy of the ion-electron system (eV)
  ---------------------------------------------------
  alpha Z        PSCENC =      2652.81237852
  Ewald energy   TEWEN  =    -41932.97031446
  -Hartree energ DENC   =    -25622.89649776
  -exchange      EXHF   =         0.00000000
  -V(xc)+E(xc)   XCENC  =      3672.95962092
  PAW double counting   =     63220.07204795   -66701.80145663
  entropy T*S    EENTRO =        -0.00000000
  eigenvalues    EBANDS =    -10066.60571507
  atomic energy  EATOM  =     73862.19814772
  Solvation  Ediel_sol  =         0.00000000
  ---------------------------------------------------
  free energy    TOTEN  =      -916.23178881 eV

  energy without entropy =     -916.23178881  energy(sigma->0) =     -916.23178881


--------------------------------------------------------------------------------------------------------




--------------------------------------- Iteration      1(  15)  ---------------------------------------


    POTLOK:  cpu time    0.0610: real time    0.0633
    SETDIJ:  cpu time    2.7116: real time    2.7132
    EDDIAG:  cpu time    3.2476: real time    3.2567
  RMM-DIIS:  cpu time   16.9114: real time   16.9365
    ORTHCH:  cpu time    0.5833: real time    0.5888
       DOS:  cpu time    0.0006: real time    0.0006
    CHARGE:  cpu time    1.7977: real time    1.8001
    MIXING:  cpu time    0.0007: real time    0.0007
    --------------------------------------------
      LOOP:  cpu time   25.3139: real time   25.3599

 eigenvalue-minimisations  : 18435
 total energy-change (2. order) : 0.1417343E+02  (-0.2302595E+01)
 number of electron     671.9999597 magnetization      47.9999932
 augmentation part      249.6902673 magnetization      33.8186192

 Broyden mixing:
  rms(total) = 0.21846E+01    rms(broyden)= 0.21842E+01
  rms(prec ) = 0.22695E+01
  weight for this iteration     100.00

 eigenvalues of (default mixing * dielectric matrix)
  average eigenvalue GAMMA=   0.9248
  1.6503  0.3817  0.7423

 Free energy of the ion-electron system (eV)
  ---------------------------------------------------
  alpha Z        PSCENC =      2652.81237852
  Ewald energy   TEWEN  =    -41932.97031446
  -Hartree energ DENC   =    -25539.87916785
  -exchange      EXHF   =         0.00000000
  -V(xc)+E(xc)   XCENC  =      3705.88571656
  PAW double counting   =     67266.99902119   -70788.99034012
  entropy T*S    EENTRO =        -0.00000000
  eigenvalues    EBANDS =    -10128.11379934
  atomic energy  EATOM  =     73862.19814772
  Solvation  Ediel_sol  =         0.00000000
  ---------------------------------------------------
  free energy    TOTEN  =      -902.05835777 eV

  energy without entropy =     -902.05835777  energy(sigma->0) =     -902.05835777


--------------------------------------------------------------------------------------------------------




--------------------------------------- Iteration      1(  16)  ---------------------------------------


    POTLOK:  cpu time    0.0608: real time    0.0610
    SETDIJ:  cpu time    2.7383: real time    2.7488
    EDDIAG:  cpu time    3.2253: real time    3.2312
  RMM-DIIS:  cpu time   16.3596: real time   16.3825
    ORTHCH:  cpu time    0.5857: real time    0.5895
       DOS:  cpu time    0.0007: real time    0.0007
    CHARGE:  cpu time    1.8134: real time    1.8178
    MIXING:  cpu time    0.0008: real time    0.0008
    --------------------------------------------
      LOOP:  cpu time   24.7846: real time   24.8322

 eigenvalue-minimisations  : 17487
 total energy-change (2. order) :-0.1456745E+01  (-0.7060118E+00)
 number of electron     671.9999603 magnetization      47.9999928
 augmentation part      251.1046140 magnetization      33.9301400

 Broyden mixing:
  rms(total) = 0.15099E+01    rms(broyden)= 0.15094E+01
  rms(prec ) = 0.15974E+01
  weight for this iteration     100.00

 eigenvalues of (default mixing * dielectric matrix)
  average eigenvalue GAMMA=   0.9597
  2.0523  0.8925  0.3881  0.5056

 Free energy of the ion-electron system (eV)
  ---------------------------------------------------
  alpha Z        PSCENC =      2652.81237852
  Ewald energy   TEWEN  =    -41932.97031446
  -Hartree energ DENC   =    -25491.46587144
  -exchange      EXHF   =         0.00000000
  -V(xc)+E(xc)   XCENC  =      3706.83215178
  PAW double counting   =     70071.15325244   -73621.90441665
  entropy T*S    EENTRO =        -0.00000000
  eigenvalues    EBANDS =    -10150.17043070
  atomic energy  EATOM  =     73862.19814772
  Solvation  Ediel_sol  =         0.00000000
  ---------------------------------------------------
  free energy    TOTEN  =      -903.51510277 eV

  energy without entropy =     -903.51510277  energy(sigma->0) =     -903.51510277


--------------------------------------------------------------------------------------------------------




--------------------------------------- Iteration      1(  17)  ---------------------------------------


    POTLOK:  cpu time    0.0901: real time    0.0925
    SETDIJ:  cpu time    2.7487: real time    2.7503
    EDDIAG:  cpu time    3.2210: real time    3.2279
  RMM-DIIS:  cpu time   16.9642: real time   17.0121
    ORTHCH:  cpu time    0.5820: real time    0.5858
       DOS:  cpu time    0.0008: real time    0.0008
    CHARGE:  cpu time    1.7998: real time    1.8024
    MIXING:  cpu time    0.0022: real time    0.0022
    --------------------------------------------
      LOOP:  cpu time   25.4087: real time   25.4741

 eigenvalue-minimisations  : 18684
 total energy-change (2. order) : 0.1281187E+00  (-0.8950741E-01)
 number of electron     671.9999602 magnetization      47.9999927
 augmentation part      251.1110366 magnetization      33.9373027

 Broyden mixing:
  rms(total) = 0.80079E+00    rms(broyden)= 0.80060E+00
  rms(prec ) = 0.90533E+00
  weight for this iteration     100.00

 eigenvalues of (default mixing * dielectric matrix)
  average eigenvalue GAMMA=   0.9793
  2.2065  1.0980  0.3769  0.6708  0.5443

 Free energy of the ion-electron system (eV)
  ---------------------------------------------------
  alpha Z        PSCENC =      2652.81237852
  Ewald energy   TEWEN  =    -41932.97031446
  -Hartree energ DENC   =    -25481.70583625
  -exchange      EXHF   =         0.00000000
  -V(xc)+E(xc)   XCENC  =      3704.37861649
  PAW double counting   =     70988.14591483   -74547.99016573
  entropy T*S    EENTRO =        -0.00000000
  eigenvalues    EBANDS =    -10148.25572522
  atomic energy  EATOM  =     73862.19814772
  Solvation  Ediel_sol  =         0.00000000
  ---------------------------------------------------
  free energy    TOTEN  =      -903.38698408 eV

  energy without entropy =     -903.38698408  energy(sigma->0) =     -903.38698408


--------------------------------------------------------------------------------------------------------




--------------------------------------- Iteration      1(  18)  ---------------------------------------


    POTLOK:  cpu time    0.0606: real time    0.0607
    SETDIJ:  cpu time    2.7273: real time    2.7288
    EDDIAG:  cpu time    3.2424: real time    3.2506
  RMM-DIIS:  cpu time   16.7177: real time   16.7617
    ORTHCH:  cpu time    0.5826: real time    0.5867
       DOS:  cpu time    0.0006: real time    0.0006
    CHARGE:  cpu time    1.7993: real time    1.8017
    MIXING:  cpu time    0.0010: real time    0.0010
    --------------------------------------------
      LOOP:  cpu time   25.1315: real time   25.1918

 eigenvalue-minimisations  : 17633
 total energy-change (2. order) : 0.4186035E+00  (-0.7224274E-01)
 number of electron     671.9999601 magnetization      47.9999926
 augmentation part      250.6224718 magnetization      33.9062800

 Broyden mixing:
  rms(total) = 0.31460E+00    rms(broyden)= 0.31437E+00
  rms(prec ) = 0.33376E+00
  weight for this iteration     100.00

 eigenvalues of (default mixing * dielectric matrix)
  average eigenvalue GAMMA=   1.0130
  2.4524  1.3605  0.8455  0.5857  0.3791  0.4548

 Free energy of the ion-electron system (eV)
[...]
   4      -0.725    -0.495     1.220     0.041    -0.129     0.004
   5      -0.915    -0.965     1.880     0.265    -0.039    -0.026
   6      -0.844    -0.590     1.435    -0.006    -0.063     0.034
   7      -0.966    -0.507     1.474     0.011     0.008    -0.035
   8      -1.035    -0.820     1.855     0.112     0.023     0.029
   9      -0.791    -1.031     1.822     0.004    -0.033    -0.009
  10      -0.652    -0.798     1.450    -0.139     0.020    -0.027
  11      -0.844    -0.992     1.835     0.233     0.013    -0.083
  12      -0.641    -1.023     1.664     0.189     0.005    -0.016
  13      -0.649    -0.872     1.521    -0.214    -0.030     0.019
  14      -0.620    -0.750     1.370    -0.155    -0.016    -0.052
  15      -0.893    -1.035     1.929     0.087     0.029    -0.042
  16      -0.901    -0.540     1.441    -0.057     0.032     0.040
  17       1.471     1.474    -2.945     0.105    -0.155    -0.115
  18       1.522     1.381    -2.904    -0.004     0.055     0.109
  19       1.519     1.342    -2.862     0.044     0.101    -0.079
  20       1.496     1.452    -2.949     0.100    -0.079    -0.058
  21       1.501     1.431    -2.932    -0.017     0.117     0.119
  22       1.579     1.365    -2.943    -0.011    -0.063    -0.049
  23       1.470     1.497    -2.967    -0.075    -0.086    -0.071
  24       1.495     1.366    -2.861    -0.014     0.078     0.038
  25      -0.448     1.267    -0.818     0.663    -0.549    -0.392
  26       0.767    -1.299     0.532    -0.781     0.762    -0.205
  27      -0.528    -0.375     0.903    -0.266    -0.380    -0.761
  28      -0.157     1.405    -1.248     1.018    -0.387     1.290
  29      -0.166    -2.087     2.254     1.135    -0.145    -0.465
  30      -0.682     0.134     0.548     0.541    -0.997    -0.086
  31       0.077     0.477    -0.554     0.780    -1.083     0.989
  32      -1.094     0.210     0.884    -0.219     0.702     0.610
  33       1.218    -0.878    -0.340    -0.341     0.021    -0.471
  34      -0.749     0.843    -0.094    -0.589     0.703     0.298
  35      -0.267     0.234     0.032     0.598    -0.535     0.330
  36      -0.725     0.109     0.616     0.058     0.158    -1.060
  37      -1.251    -0.529     1.781     1.306     0.525    -0.669
  38      -0.006    -0.578     0.584    -0.512    -0.099     0.509
  39       0.533    -0.403    -0.129    -0.039     0.020     0.945
  40       0.984    -0.855    -0.129    -0.094     0.279    -0.679
  41      -1.707     2.220    -0.514    -4.870     3.556    -2.556
  42      -3.086     1.563     1.523     4.486     3.598     3.933
  43       5.150    -5.444     0.294    -2.599    -5.053    -0.192
  44      -3.957     3.175     0.782    -4.012    -2.665     3.362
  45       5.697    -5.655    -0.042    -0.916     3.834     1.486
  46      -1.257     4.199    -2.942     5.819    -1.830    -2.564
  47      -2.565     1.762     0.803    -5.277     2.467    -3.310
  48       7.237    -7.326     0.089    -0.578    -5.194     0.629
  49      -2.518     0.509     2.009     4.523     2.184     3.018
  50      -3.667     2.041     1.627    -5.049    -1.426     4.795
  51      -4.092     3.586     0.506     6.976    -2.131    -2.760
  52       5.025    -6.067     1.042     0.405     4.977    -0.060
  53      -0.535     0.438     0.097    -5.393     2.102    -3.505
  54      -1.877     3.225    -1.349     5.641     1.836     3.264
  55       4.552    -3.498    -1.055     1.271    -4.686     0.241
  56      -1.287     2.668    -1.381    -6.571    -1.672     2.764
  57       5.684    -6.177     0.493    -0.636     4.394     1.459
  58      -3.047     1.454     1.593     4.584    -3.375    -3.958
  59      -2.206     0.201     2.005    -4.544     3.977    -2.529
  60       5.490    -7.518     2.028    -0.312    -4.527    -2.092
  61      -4.766     2.667     2.099     4.678     2.849     4.313
  62      -4.101     2.283     1.818    -5.003    -4.250     4.744
  63      -1.864     1.607     0.257     6.039    -2.301    -4.270
  64       5.096    -6.228     1.132     0.398     5.621     0.987
  65      -2.780     3.856    -1.076    -5.226     2.844    -3.312
  66      -2.336     4.177    -1.842     5.406     3.902     4.551
  67       5.434    -5.006    -0.429     0.372    -4.061     1.244
  68      -2.145     2.053     0.092    -4.936    -1.940     3.840
  69       3.827    -5.468     1.641    -1.537     4.637    -0.305
  70      -2.601     0.263     2.339     3.944    -3.087    -4.574
  71      -3.269     1.555     1.713    -5.130     1.650    -5.447
  72       5.009    -6.238     1.229    -1.027    -4.982    -1.227
  73      -4.131     0.376     3.756     5.341     2.124     5.358
  74      -3.633     2.911     0.722    -3.638    -3.416     3.537
  75      -2.361     1.993     0.368     6.052    -2.971    -3.864
  76       4.494    -5.007     0.514    -0.513     4.522    -0.989
  77      -3.458     3.766    -0.308    -3.499     2.080    -3.965
  78      -2.607     3.019    -0.412     4.318     2.539     3.114
  79       4.774    -5.862     1.087    -0.356    -5.202     0.513
  80      -3.055     2.440     0.615    -4.961    -1.935     4.039
  81       6.491    -6.201    -0.289     0.016     4.649     0.500
  82      -1.978     1.403     0.575     5.211    -2.825    -4.708
  83      -5.313     2.156     3.156    -3.794     1.520    -5.161
  84       5.719    -6.108     0.389    -0.019    -5.029     0.215
  85      -3.373     1.198     2.175     4.923     2.126     4.144
  86      -3.672     3.961    -0.289    -4.500    -1.980     2.814
  87      -4.056     2.829     1.227     4.938    -2.871    -3.419
  88       5.048    -6.319     1.271     0.469     4.518     0.184
 ---------------------------------------------------------------------


 Total hyperfine coupling parameters after diagonalization (MHz)
 (convention: |A_zz| > |A_xx| > |A_yy|)
 ----------------------------------------------------------------------
  ion      A_xx      A_yy      A_zz     asymmetry (A_yy - A_xx)/ A_zz 
 ----------------------------------------------------------------------
   1       1.840     1.472     3.776      -0.098
   2      -0.755    -0.361     2.474       0.159
   3       0.535     0.345     3.151      -0.060
   4       1.691     1.439     3.408      -0.074
   5       0.892     0.360     3.447      -0.154
   6       1.984     1.729     4.012      -0.064
   7       2.026     1.567     4.008      -0.114
   8       0.271    -0.038     2.900      -0.107
   9       0.504     0.264     3.117      -0.077
  10       1.974     1.661     3.994      -0.079
  11       0.410    -0.080     2.922      -0.168
  12       1.112     0.574     3.340      -0.161
  13       2.146     1.664     4.188      -0.115
  14       1.929     1.591     3.817      -0.088
  15      -0.415    -0.189     2.592       0.087
  16       2.302     1.923     4.275      -0.089
  17      14.272     9.951    14.489      -0.298
  18      13.915     9.624    14.054      -0.305
  19      13.162     8.962    13.359      -0.314
  20      14.330    10.008    14.538      -0.297
  21      14.210     9.840    14.286      -0.306
  22      14.385    10.076    14.600      -0.295
  23      15.000    10.621    15.149      -0.289
  24      12.955     8.726    13.087      -0.323
  25      94.310    93.501    96.336      -0.008
  26      95.607    94.089    97.259      -0.016
  27      95.772    94.957    97.297      -0.008
  28      94.300    92.349    96.645      -0.020
  29      97.607    94.660    99.635      -0.030
  30      93.190    91.676    94.260      -0.016
  31     100.045    97.152   100.277      -0.029
  32      98.834    97.348   100.119      -0.015
  33      98.000    96.907    99.370      -0.011
  34      99.223    97.484    99.916      -0.017
  35      97.822    96.387    98.055      -0.015
  36      95.685    95.398    97.725      -0.003
  37     104.356   101.512   105.892      -0.027
  38      97.571    96.482    98.338      -0.011
  39      97.213    95.458    97.370      -0.018
  40      95.270    93.832    96.182      -0.015
  41       5.700     2.062    15.323      -0.237
  42      -2.337     1.379    12.038       0.309
  43       5.821     1.629    16.693      -0.251
  44       4.891     0.505    14.038      -0.312
  45       5.906     0.832    14.797      -0.343
  46       2.485     1.274    14.997      -0.081
  47       7.246     2.770    16.634      -0.269
  48       8.503     3.747    21.133      -0.225
  49       2.988    -1.845    10.643      -0.454
  50       5.710     0.531    15.840      -0.327
  51       8.563     1.191    18.533      -0.398
  52       6.085     2.298    16.792      -0.226
  53       4.241     0.541    13.698      -0.270
  54       2.430    -0.325    13.521      -0.204
  55       1.682     0.011    11.797      -0.142
  56       6.960     3.161    17.945      -0.212
  57       7.070     1.840    16.746      -0.312
  58       4.918     1.164    15.473      -0.243
  59       5.762     0.953    14.522      -0.331
  60       9.162     1.651    18.397      -0.408
  61       4.327    -1.019    14.910      -0.359
  62       5.034     0.511    17.586      -0.257
  63       3.581    -0.614    14.749      -0.284
  64       4.701     1.080    16.580      -0.218
  65       7.442     4.282    18.794      -0.168
  66       5.011     2.826    19.129      -0.114
  67       5.624     2.048    15.110      -0.237
  68       4.509     1.279    14.472      -0.223
  69       6.150     2.292    15.692      -0.246
  70       3.920     1.396    14.975      -0.169
  71       5.716     0.912    16.838      -0.285
  72       4.962    -0.176    15.066      -0.341
  73       8.487     2.334    19.688      -0.312
  74       4.691     0.635    14.204      -0.286
  75       6.286     2.035    17.655      -0.241
  76       3.815     0.953    13.664      -0.209
  77       2.791     0.572    13.194      -0.168
  78       3.550     0.680    13.175      -0.218
  79       5.565     2.240    16.614      -0.200
  80       3.302    -0.668    13.388      -0.297
  81       6.148     2.489    17.606      -0.208
  82       3.203     0.369    15.023      -0.189
  83       6.474     1.393    17.159      -0.296
  84       5.326     1.837    16.702      -0.209
  85       6.370     1.307    15.875      -0.319
  86       4.236     0.078    13.434      -0.310
  87       6.817     1.433    16.378      -0.329
  88       4.449    -0.155    14.256      -0.323
 ---------------------------------------------------------------------



--------------------------------------------------------------------------------------------------------


 stress matrix after NEB project (eV)
    -49.12180     -0.20357      3.76901
     -0.21059    -48.46246      0.23620
      3.77717      0.24300    -62.58626
  FORCES: max atom, RMS     2.763272    1.056403
  FORCE total and by dimension    9.909943    1.913113
  Stress total and by dimension   93.312778   62.586257
     LOOP+:  cpu time  620.5762: real time  622.1243
    4ORBIT:  cpu time    0.0000: real time    0.0000
 


 total charge     
 
# of ion       s       p       d       tot
------------------------------------------
    1        0.048   5.990   0.000   6.039
    2        0.056   6.001   0.000   6.057
    3        0.053   5.997   0.000   6.051
    4        0.050   5.994   0.000   6.044
    5        0.057   6.002   0.000   6.059
    6        0.050   5.992   0.000   6.041
    7        0.049   5.991   0.000   6.040
    8        0.053   5.997   0.000   6.050
    9        0.051   5.994   0.000   6.045
   10        0.046   5.988   0.000   6.034
   11        0.053   5.996   0.000   6.049
   12        0.055   5.999   0.000   6.054
   13        0.049   5.991   0.000   6.040
   14        0.049   5.991   0.000   6.040
   15        0.050   5.994   0.000   6.044
   16        0.048   5.990   0.000   6.037
   17        0.148   6.127   0.083   6.358
   18        0.144   6.121   0.078   6.343
   19        0.148   6.126   0.082   6.356
   20        0.149   6.130   0.086   6.365
   21        0.148   6.127   0.084   6.359
   22        0.146   6.123   0.080   6.350
   23        0.148   6.129   0.085   6.362
   24        0.145   6.123   0.080   6.348
   25        0.374   6.449   4.828  11.651
   26        0.379   6.463   4.837  11.678
   27        0.374   6.452   4.823  11.648
   28        0.391   6.490   4.867  11.748
   29        0.373   6.450   4.819  11.642
   30        0.388   6.482   4.855  11.725
   31        0.375   6.453   4.833  11.661
   32        0.364   6.428   4.804  11.595
   33        0.382   6.469   4.852  11.702
   34        0.377   6.460   4.839  11.676
   35        0.368   6.439   4.816  11.623
   36        0.369   6.443   4.812  11.623
   37        0.351   6.402   4.786  11.540
   38        0.376   6.459   4.827  11.662
   39        0.367   6.438   4.810  11.615
   40        0.385   6.475   4.847  11.706
   41        1.598   3.508   0.000   5.105
   42        1.597   3.484   0.000   5.081
   43        1.600   3.491   0.000   5.091
   44        1.597   3.525   0.000   5.123
   45        1.601   3.495   0.000   5.096
   46        1.600   3.505   0.000   5.104
   47        1.599   3.533   0.000   5.131
   48        1.602   3.504   0.000   5.106
   49        1.597   3.540   0.000   5.137
   50        1.599   3.514   0.000   5.113
   51        1.601   3.512   0.000   5.113
   52        1.601   3.504   0.000   5.105
   53        1.598   3.493   0.000   5.091
   54        1.600   3.493   0.000   5.093
   55        1.599   3.494   0.000   5.093
   56        1.597   3.511   0.000   5.108
   57        1.598   3.483   0.000   5.081
   58        1.598   3.485   0.000   5.083
   59        1.598   3.524   0.000   5.121
   60        1.600   3.514   0.000   5.114
   61        1.598   3.489   0.000   5.087
   62        1.598   3.491   0.000   5.089
   63        1.601   3.499   0.000   5.099
   64        1.600   3.489   0.000   5.090
   65        1.600   3.520   0.000   5.120
   66        1.602   3.472   0.000   5.074
   67        1.599   3.509   0.000   5.108
   68        1.598   3.508   0.000   5.106
   69        1.599   3.503   0.000   5.102
   70        1.598   3.493   0.000   5.091
   71        1.598   3.504   0.000   5.102
   72        1.600   3.486   0.000   5.085
   73        1.601   3.520   0.000   5.121
   74        1.597   3.484   0.000   5.080
   75        1.601   3.486   0.000   5.086
   76        1.598   3.497   0.000   5.095
   77        1.597   3.495   0.000   5.092
   78        1.598   3.493   0.000   5.091
   79        1.600   3.528   0.000   5.128
   80        1.597   3.495   0.000   5.092
   81        1.604   3.534   0.000   5.138
   82        1.598   3.474   0.000   5.072
   83        1.599   3.511   0.000   5.110
   84        1.600   3.493   0.000   5.094
   85        1.601   3.520   0.000   5.120
   86        1.598   3.508   0.000   5.106
   87        1.599   3.526   0.000   5.125
   88        1.598   3.502   0.000   5.100
--------------------------------------------------
tot         84.741 416.305  77.912 578.958
 


 magnetization (x)
 
# of ion       s       p       d       tot
------------------------------------------
    1        0.002   0.000   0.000   0.002
    2        0.000   0.000   0.000   0.000
    3        0.001   0.000   0.000   0.001
    4        0.002   0.000   0.000   0.002
    5        0.001   0.000   0.000   0.001
    6        0.002   0.000   0.000   0.002
    7        0.002   0.000   0.000   0.002
    8        0.001   0.000   0.000   0.001
    9        0.001   0.000   0.000   0.001
   10        0.002   0.000   0.000   0.002
   11        0.001   0.000   0.000   0.001
   12        0.001   0.000   0.000   0.001
   13        0.002   0.000   0.000   0.002
   14        0.002   0.000   0.000   0.002
   15        0.001   0.000   0.000   0.001
   16        0.002   0.000   0.000   0.003
   17        0.007   0.002   0.001   0.011
   18        0.007   0.002   0.001   0.010
   19        0.007   0.002   0.001   0.010
   20        0.007   0.002   0.001   0.011
   21        0.007   0.002   0.001   0.011
   22        0.007   0.002   0.001   0.010
   23        0.007   0.002   0.001   0.011
   24        0.007   0.002   0.001   0.009
   25        0.015   0.029   2.749   2.793
   26        0.015   0.031   2.748   2.794
   27        0.015   0.030   2.764   2.809
   28        0.015   0.032   2.711   2.758
   29        0.015   0.030   2.771   2.816
   30        0.014   0.031   2.728   2.773
   31        0.016   0.032   2.749   2.797
   32        0.016   0.029   2.788   2.833
   33        0.016   0.031   2.733   2.779
   34        0.016   0.031   2.751   2.798
   35        0.015   0.029   2.772   2.817
   36        0.015   0.029   2.771   2.815
   37        0.017   0.029   2.824   2.870
   38        0.016   0.030   2.760   2.806
   39        0.015   0.029   2.770   2.815
   40        0.015   0.031   2.739   2.785
   41        0.002   0.031   0.000   0.033
   42        0.001  -0.001   0.000   0.000
   43        0.002   0.034   0.000   0.036
   44        0.002   0.030   0.000   0.031
   45        0.002   0.026   0.000   0.028
   46        0.002   0.022   0.000   0.024
   47        0.002   0.050   0.000   0.052
   48        0.003   0.062   0.000   0.065
   49        0.001   0.022   0.000   0.023
   50        0.002   0.042   0.000   0.044
   51        0.002   0.057   0.000   0.059
   52        0.002   0.041   0.000   0.043
   53        0.002   0.020   0.000   0.022
   54        0.002   0.015   0.000   0.017
   55        0.001   0.001   0.000   0.003
   56        0.002   0.043   0.000   0.045
   57        0.002   0.037   0.000   0.039
   58        0.002   0.025   0.000   0.027
   59        0.002   0.030   0.000   0.032
   60        0.003   0.050   0.000   0.053
   61        0.002   0.029   0.000   0.030
   62        0.002   0.035   0.000   0.037
   63        0.002   0.019   0.000   0.021
   64        0.002   0.030   0.000   0.032
   65        0.003   0.057   0.000   0.059
   66        0.003   0.025   0.000   0.027
   67        0.002   0.034   0.000   0.036
   68        0.002   0.026   0.000   0.028
   69        0.002   0.035   0.000   0.038
   70        0.002   0.026   0.000   0.028
   71        0.002   0.038   0.000   0.040
   72        0.002   0.024   0.000   0.026
   73        0.002   0.060   0.000   0.062
   74        0.002   0.024   0.000   0.026
   75        0.002   0.040   0.000   0.042
   76        0.002   0.021   0.000   0.023
   77        0.002   0.008   0.000   0.010
   78        0.002   0.016   0.000   0.017
   79        0.002   0.040   0.000   0.042
   80        0.002   0.019   0.000   0.021
   81        0.002   0.045   0.000   0.047
   82        0.002   0.019   0.000   0.021
   83        0.002   0.043   0.000   0.046
   84        0.002   0.033   0.000   0.035
   85        0.002   0.043   0.000   0.045
   86        0.002   0.026   0.000   0.027
   87        0.002   0.046   0.000   0.048
   88        0.002   0.026   0.000   0.028
--------------------------------------------------
tot          0.420   2.030  44.136  46.586
 

 total amount of memory used by VASP MPI-rank0   104114. kBytes
=======================================================================

   base      :      30000. kBytes
   nonlr-proj:      13672. kBytes
   fftplans  :       1316. kBytes
   grid      :      22786. kBytes
   one-center:       2737. kBytes
   wavefun   :      33603. kBytes
 
  
  
 General timing and accounting informations for this job:
 ========================================================
  
                  Total CPU time used (sec):      634.219
                            User time (sec):      629.950
                          System time (sec):        4.269
                         Elapsed time (sec):      637.068
  
                   Maximum memory used (kb):      197432.
                   Average memory used (kb):           0.
  
                          Minor page faults:       298220
                          Major page faults:            0
                 Voluntary context switches:         4849
