 vasp.5.4.4.18Apr17-6-g9f103f2a35 (build Dec 02 2020 12:53:39) complex          
  
 executed on             LinuxIFC date 2021.08.02  23:35:27
 running on   96 total cores
 distrk:  each k-point on   96 cores,    1 groups
 distr:  one band on NCORES_PER_BAND=   1 cores,   96 groups


--------------------------------------------------------------------------------------------------------


 INCAR:
 POTCAR:    PAW_PBE Na_pv 19Sep2006               
 POTCAR:    PAW_PBE Mg_pv 13Apr2007               
 POTCAR:    PAW_PBE Mn_pv 02Aug2007               
 POTCAR:    PAW_PBE O 08Apr2002                   

 ----------------------------------------------------------------------------- 
|                                                                             |
|           W    W    AA    RRRRR   N    N  II  N    N   GGGG   !!!           |
|           W    W   A  A   R    R  NN   N  II  NN   N  G    G  !!!           |
|           W    W  A    A  R    R  N N  N  II  N N  N  G       !!!           |
|           W WW W  AAAAAA  RRRRR   N  N N  II  N  N N  G  GGG   !            |
|           WW  WW  A    A  R   R   N   NN  II  N   NN  G    G                |
|           W    W  A    A  R    R  N    N  II  N    N   GGGG   !!!           |
|                                                                             |
|      For optimal performance we recommend to set                            |
|        NCORE= 4 - approx SQRT( number of cores)                             |
|      NCORE specifies how many cores store one orbital (NPAR=cpu/NCORE).     |
|      This setting can  greatly improve the performance of VASP for DFT.     |
|      The default,   NCORE=1            might be grossly inefficient         |
|      on modern multi-core architectures or massively parallel machines.     |
|      Do your own testing !!!!                                               |
|      Unfortunately you need to use the default for GW and RPA calculations. |
|      (for HF NCORE is supported but not extensively tested yet)             |
|                                                                             |
 ----------------------------------------------------------------------------- 

 POTCAR:    PAW_PBE Na_pv 19Sep2006               
   VRHFIN =Na: p6s1                                                             
   LEXCH  = PE                                                                  
   EATOM  =   766.0439 eV,   56.3026 Ry                                         
                                                                                
   TITEL  = PAW_PBE Na_pv 19Sep2006                                             
   LULTRA =        F    use ultrasoft PP ?                                      
   IUNSCR =        1    unscreen: 0-lin 1-nonlin 2-no                           
   RPACOR =    1.800    partial core radius                                     
   POMASS =   22.990; ZVAL   =    7.000    mass and valenz                      
   RCORE  =    2.200    outmost cutoff radius                                   
   RWIGS  =    2.200; RWIGS  =    1.164    wigner-seitz radius (au A)           
   ENMAX  =  259.561; ENMIN  =  194.671 eV                                      
   ICORE  =        2    local potential                                         
   LCOR   =        T    correct aug charges                                     
   LPAW   =        T    paw PP                                                  
   EAUG   =  368.056                                                            
   DEXC   =    0.000                                                            
   RMAX   =    2.245    core radius for proj-oper                               
   RAUG   =    1.300    factor for augmentation sphere                          
   RDEP   =    2.259    radius for radial grids                                 
   RDEPT  =    1.738    core radius for aug-charge                              
                                                                                
   Atomic configuration                                                         
    5 entries                                                                   
     n  l   j            E        occ.                                          
     1  0  0.50     -1033.6933   2.0000                                         
     2  0  0.50       -56.7526   2.0000                                         
     2  1  1.50       -28.6721   6.0000                                         
     3  0  0.50        -2.7440   1.0000                                         
     3  2  1.50        -1.3606   0.0000                                         
   Description                                                                  
     l       E           TYP  RCUT    TYP  RCUT                                 
     1    -28.6720912     23  2.000                                             
     1      6.8029130     23  2.000                                             
     0     -2.7439560     23  2.200                                             
     0     34.0145650     23  2.200                                             
     2     -1.3605826     23  2.200                                             
  local pseudopotential read in
  partial core-charges read in
  partial kinetic energy density read in
  atomic valenz-charges read in
  non local Contribution for L=           1  read in
    real space projection operators read in
  non local Contribution for L=           1  read in
    real space projection operators read in
  non local Contribution for L=           0  read in
    real space projection operators read in
  non local Contribution for L=           0  read in
    real space projection operators read in
    PAW grid and wavefunctions read in
 
   number of l-projection  operators is LMAX  =           4
   number of lm-projection operators is LMMAX =           8
 
 POTCAR:    PAW_PBE Mg_pv 13Apr2007               
   VRHFIN =Mg: p6s2                                                             
   LEXCH  = PE                                                                  
   EATOM  =  1056.7344 eV,   77.6678 Ry                                         
                                                                                
   TITEL  = PAW_PBE Mg_pv 13Apr2007                                             
   LULTRA =        F    use ultrasoft PP ?                                      
   IUNSCR =        1    unscreen: 0-lin 1-nonlin 2-no                           
   RPACOR =    1.500    partial core radius                                     
   POMASS =   24.305; ZVAL   =    8.000    mass and valenz                      
   RCORE  =    2.000    outmost cutoff radius                                   
   RWIGS  =    2.000; RWIGS  =    1.058    wigner-seitz radius (au A)           
   ENMAX  =  403.929; ENMIN  =  302.947 eV                                      
   RCLOC  =    1.506    cutoff for local pot                                    
   LCOR   =        T    correct aug charges                                     
   LPAW   =        T    paw PP                                                  
   EAUG   =  758.780                                                            
   DEXC   =    0.000                                                            
   RMAX   =    2.045    core radius for proj-oper                               
   RAUG   =    1.300    factor for augmentation sphere                          
   RDEP   =    2.025    radius for radial grids                                 
   RDEPT  =    1.557    core radius for aug-charge                              
                                                                                
   Atomic configuration                                                         
    5 entries                                                                   
     n  l   j            E        occ.                                          
     1  0  0.50     -1259.6230   2.0000                                         
     2  0  0.50       -79.8442   2.0000                                         
     2  1  1.50       -46.6121   6.0000                                         
     3  0  0.50        -4.7055   2.0000                                         
     3  2  1.50        -1.3606   0.0000                                         
   Description                                                                  
     l       E           TYP  RCUT    TYP  RCUT                                 
     1    -46.6121073     23  1.600                                             
     1      2.7211652     23  1.600                                             
     0     -4.7054661     23  2.000                                             
     0     61.2262170     23  2.000                                             
     2     -1.3605826     23  2.000                                             
  local pseudopotential read in
  partial core-charges read in
  partial kinetic energy density read in
  atomic valenz-charges read in
  non local Contribution for L=           1  read in
    real space projection operators read in
  non local Contribution for L=           1  read in
    real space projection operators read in
  non local Contribution for L=           0  read in
    real space projection operators read in
  non local Contribution for L=           0  read in
    real space projection operators read in
  non local Contribution for L=           2  read in
    real space projection operators read in
    PAW grid and wavefunctions read in
 
   number of l-projection  operators is LMAX  =           5
   number of lm-projection operators is LMMAX =          13
 
 POTCAR:    PAW_PBE Mn_pv 02Aug2007               
   VRHFIN =Mn: 3p4s3d                                                           
   LEXCH  = PE                                                                  
   EATOM  =  2025.2664 eV,  148.8529 Ry                                         
                                                                                
   TITEL  = PAW_PBE Mn_pv 02Aug2007                                             
   LULTRA =        F    use ultrasoft PP ?                                      
   IUNSCR =        1    unscreen: 0-lin 1-nonlin 2-no                           
   RPACOR =    2.080    partial core radius                                     
   POMASS =   54.938; ZVAL   =   13.000    mass and valenz                      
   RCORE  =    2.300    outmost cutoff radius                                   
   RWIGS  =    2.500; RWIGS  =    1.323    wigner-seitz radius (au A)           
   ENMAX  =  269.864; ENMIN  =  202.398 eV                                      
   ICORE  =        3    local potential                                         
   LCOR   =        T    correct aug charges                                     
   LPAW   =        T    paw PP                                                  
   EAUG   =  569.085                                                            
   DEXC   =    0.000                                                            
   RMAX   =    2.343    core radius for proj-oper                               
   RAUG   =    1.300    factor for augmentation sphere                          
   RDEP   =    2.338    radius for radial grids                                 
   RDEPT  =    1.798    core radius for aug-charge                              
                                                                                
   Atomic configuration                                                         
    8 entries                                                                   
     n  l   j            E        occ.                                          
     1  0  0.50     -6424.8287   2.0000                                         
     2  0  0.50      -739.1154   2.0000                                         
     2  1  1.50      -625.3949   6.0000                                         
     3  0  0.50       -81.6100   2.0000                                         
     3  1  1.50       -50.4667   6.0000                                         
     3  2  2.50        -3.3745   6.0000                                         
     4  0  0.50        -4.1331   1.0000                                         
     4  3  2.50        -1.3606   0.0000                                         
   Description                                                                  
     l       E           TYP  RCUT    TYP  RCUT                                 
     1    -50.4666628     23  2.000                                             
     1     -1.3605826     23  2.000                                             
     2     -3.3744729     23  2.300                                             
     2     -4.7350555     23  2.300                                             
     0     -4.1331431     23  2.300                                             
     0      7.6656591     23  2.300                                             
     3      9.5240782     23  2.300                                             
  local pseudopotential read in
  partial core-charges read in
  partial kinetic energy density read in
  atomic valenz-charges read in
  non local Contribution for L=           1  read in
    real space projection operators read in
  non local Contribution for L=           1  read in
    real space projection operators read in
  non local Contribution for L=           2  read in
    real space projection operators read in
  non local Contribution for L=           2  read in
    real space projection operators read in
  non local Contribution for L=           0  read in
    real space projection operators read in
  non local Contribution for L=           0  read in
    real space projection operators read in
    PAW grid and wavefunctions read in
 
   number of l-projection  operators is LMAX  =           6
   number of lm-projection operators is LMMAX =          18
 
 POTCAR:    PAW_PBE O 08Apr2002                   
   VRHFIN =O: s2p4                                                              
   LEXCH  = PE                                                                  
   EATOM  =   432.3788 eV,   31.7789 Ry                                         
                                                                                
   TITEL  = PAW_PBE O 08Apr2002                                                 
   LULTRA =        F    use ultrasoft PP ?                                      
   IUNSCR =        1    unscreen: 0-lin 1-nonlin 2-no                           
   RPACOR =    1.200    partial core radius                                     
   POMASS =   16.000; ZVAL   =    6.000    mass and valenz                      
   RCORE  =    1.520    outmost cutoff radius                                   
   RWIGS  =    1.550; RWIGS  =    0.820    wigner-seitz radius (au A)           
   ENMAX  =  400.000; ENMIN  =  300.000 eV                                      
   ICORE  =        2    local potential                                         
   LCOR   =        T    correct aug charges                                     
   LPAW   =        T    paw PP                                                  
   EAUG   =  605.392                                                            
   DEXC   =    0.000                                                            
   RMAX   =    1.553    core radius for proj-oper                               
   RAUG   =    1.300    factor for augmentation sphere                          
   RDEP   =    1.550    radius for radial grids                                 
   RDEPT  =    1.329    core radius for aug-charge                              
                                                                                
   Atomic configuration                                                         
    4 entries                                                                   
     n  l   j            E        occ.                                          
     1  0  0.50      -514.6923   2.0000                                         
     2  0  0.50       -23.9615   2.0000                                         
     2  1  0.50        -9.0305   4.0000                                         
     3  2  1.50        -9.5241   0.0000                                         
   Description                                                                  
     l       E           TYP  RCUT    TYP  RCUT                                 
     0    -23.9615318     23  1.200                                             
     0     -9.5240782     23  1.200                                             
     1     -9.0304911     23  1.520                                             
     1      8.1634956     23  1.520                                             
     2     -9.5240782      7  1.500                                             
  local pseudopotential read in
  partial core-charges read in
  partial kinetic energy density read in
  kinetic energy density of atom read in
  atomic valenz-charges read in
  non local Contribution for L=           0  read in
    real space projection operators read in
  non local Contribution for L=           0  read in
    real space projection operators read in
  non local Contribution for L=           1  read in
    real space projection operators read in
  non local Contribution for L=           1  read in
    real space projection operators read in
    PAW grid and wavefunctions read in
 
   number of l-projection  operators is LMAX  =           4
   number of lm-projection operators is LMMAX =           8
 
 Optimization of the real space projectors (new method)

 maximal supplied QI-value         = 17.01
 optimisation between [QCUT,QGAM] = [ 10.20, 20.41] = [ 29.16,116.64] Ry 
 Optimized for a Real-space Cutoff    1.30 Angstroem

   l    n(q)    QCUT    max X(q) W(low)/X(q) W(high)/X(q)  e(spline) 
   1      7    10.205     4.940    0.23E-03    0.84E-03    0.11E-06
   1      7    10.205     6.253    0.40E-03    0.13E-02    0.18E-06
   0      8    10.205    37.438    0.23E-03    0.37E-03    0.42E-07
   0      8    10.205     9.606    0.16E-03    0.26E-03    0.31E-07
 Optimization of the real space projectors (new method)

 maximal supplied QI-value         = 18.90
 optimisation between [QCUT,QGAM] = [ 10.20, 20.41] = [ 29.16,116.64] Ry 
 Optimized for a Real-space Cutoff    1.26 Angstroem

   l    n(q)    QCUT    max X(q) W(low)/X(q) W(high)/X(q)  e(spline) 
   1      7    10.205     2.974    0.63E-04    0.14E-03    0.13E-06
   1      7    10.205     4.279    0.11E-03    0.45E-03    0.24E-06
   0      8    10.205    16.381    0.44E-03    0.15E-03    0.55E-07
   0      8    10.205     5.611    0.31E-03    0.11E-03    0.40E-07
   2      7    10.205     4.652    0.50E-03    0.47E-03    0.57E-07
 Optimization of the real space projectors (new method)

 maximal supplied QI-value         = 16.25
 optimisation between [QCUT,QGAM] = [ 10.24, 20.48] = [ 29.35,117.42] Ry 
 Optimized for a Real-space Cutoff    1.34 Angstroem

   l    n(q)    QCUT    max X(q) W(low)/X(q) W(high)/X(q)  e(spline) 
   1      8    10.239     3.658    0.23E-03    0.30E-03    0.98E-07
   1      8    10.239     5.612    0.32E-03    0.65E-03    0.21E-06
   2      7    10.239    55.373    0.42E-03    0.45E-03    0.65E-07
   2      7    10.239    50.863    0.43E-03    0.48E-03    0.67E-07
   0      8    10.239    79.536    0.11E-03    0.21E-03    0.56E-07
   0      8    10.239    38.668    0.96E-04    0.19E-03    0.52E-07
 Optimization of the real space projectors (new method)

 maximal supplied QI-value         = 24.76
 optimisation between [QCUT,QGAM] = [ 10.15, 20.30] = [ 28.85,115.39] Ry 
 Optimized for a Real-space Cutoff    1.38 Angstroem

   l    n(q)    QCUT    max X(q) W(low)/X(q) W(high)/X(q)  e(spline) 
   0      8    10.150    20.381    0.22E-03    0.32E-03    0.29E-06
   0      8    10.150    15.268    0.23E-03    0.35E-03    0.30E-06
   1      8    10.150     5.964    0.46E-03    0.53E-03    0.21E-06
   1      8    10.150     5.382    0.38E-03    0.45E-03    0.19E-06
  PAW_PBE Na_pv 19Sep2006               :
 energy of atom  1       EATOM= -766.0439
 kinetic energy error for atom=    0.0103 (will be added to EATOM!!)
  PAW_PBE Mg_pv 13Apr2007               :
 energy of atom  2       EATOM=-1056.7344
 kinetic energy error for atom=    0.0820 (will be added to EATOM!!)
  PAW_PBE Mn_pv 02Aug2007               :
 energy of atom  3       EATOM=-2025.2664
 kinetic energy error for atom=    0.0284 (will be added to EATOM!!)
  PAW_PBE O 08Apr2002                   :
 energy of atom  4       EATOM= -432.3788
 kinetic energy error for atom=    0.1156 (will be added to EATOM!!)
 
 
 POSCAR: Na Mg Mn  O                             
  positions in cartesian coordinates
  No initial velocities read in

 METAGGA = SCAN     LMAXTAU =  6    LMIXTAU =  F

 exchange correlation table for  LEXCH =        8
   RHO(1)=    0.500       N(1)  =     2000
   RHO(2)=  100.500       N(2)  =     4000

 VTST: version 3.2, (02/03/18)

 CHAIN: initializing optimizer
 
 OPT: Using VASP Dynamics algorithm
 CHAIN: Read ICHAIN            0
 
 POSCAR: Na Mg Mn  O                             
  positions in cartesian coordinates
  No initial velocities read in
 


--------------------------------------------------------------------------------------------------------


 ion  position               nearest neighbor table
   1  0.347  0.265  0.259-  50 2.25  43 2.29  52 2.35  87 2.35
   2  0.023  0.233  0.748-  58 2.33  61 2.33  57 2.37
   3  0.392  0.392  0.741-  48 2.20  45 2.22
   4  0.542  0.763  0.751-  59 2.33
   5  0.012  0.428  0.245-  75 2.29  66 2.33  55 2.36  77 2.36  37 2.73  39 2.89
   6  0.925  0.095  0.249-  55 2.14  63 2.30  64 2.36  54 2.37  32 2.87  30 2.92
   7  0.161  0.587  0.757-  83 2.26
   8  0.800  0.548  0.749-  68 2.15  71 2.25  34 2.94  36 2.97
   9  0.171  0.899  0.257-  76 2.15  50 2.23
  10  0.803  0.762  0.246-  74 2.30  54 2.32  63 2.37
  11  0.689  0.404  0.246-  66 2.21  52 2.33
  12  0.674  0.113  0.758-  60 2.35  46 2.37
  13  0.979  0.907  0.758-  47 2.36  61 2.36  72 2.37  25 2.74
  14  0.349  0.044  0.755-  49 2.27  47 2.27  44 2.28  46 2.35  26 2.77
  15  0.378  0.616  0.238-  79 2.22  78 2.36  38 2.77
  16  0.547  0.061  0.261-  53 2.20  51 2.22  62 2.22
  17  0.676  0.256  0.006-  49 1.99  53 2.01  71 2.01  66 2.02  60 2.05  43 2.18  30 2.81  34 2.84
                            37 2.85
  18  0.703  0.261  0.510-  57 1.97  68 1.99  46 2.06  62 2.13  75 2.15  52 2.23  39 2.82
  19  0.165  0.262  0.004-  78 1.97  55 1.99  83 2.07  61 2.08  41 2.13  48 2.14  37 2.74
  20  0.187  0.259  0.502-  64 1.95  45 2.04  58 2.05  80 2.11  87 2.12  32 2.84
  21  0.170  0.757  0.008-  42 2.00  77 2.04  73 2.05  67 2.15  84 2.17  47 2.17  25 2.83
  22  0.197  0.766  0.506-  81 1.97  70 1.99  86 2.04  44 2.06  76 2.08  51 2.11  27 2.81
  23  0.668  0.747  0.991-  85 1.93  72 1.96  79 2.03  54 2.05  59 2.10  65 2.14  38 2.83  33 2.84

  24  0.695  0.760  0.500-  82 1.98  56 2.01  63 2.02  88 2.09  69 2.10  74 2.11  32 2.84
  25  0.001  0.913  0.001-  41 1.87  54 1.90  72 1.91  47 1.94  61 1.94  67 1.95  13 2.74  21 2.83
                            26 2.87  34 2.87  30 2.98
  26  0.331  0.091  0.997-  48 1.87  49 1.91  42 1.96  47 1.97  43 1.97  41 2.02  14 2.77  33 2.85
                            25 2.87  29 2.96
  27  0.032  0.925  0.494-  44 1.87  63 1.90  69 1.92  58 1.93  76 1.95  50 1.99  22 2.81  28 2.86
                            36 2.88  32 2.90
  28  0.362  0.097  0.488-  45 1.87  51 1.88  52 1.89  50 1.94  46 1.97  44 2.04  27 2.86  35 2.86
                            31 2.92
  29  0.506  0.925  0.997-  79 1.87  84 1.87  49 1.90  59 1.94  42 1.94  53 1.98  30 2.84  38 2.84
                            26 2.96
  30  0.833  0.089  0.001-  60 1.87  53 1.89  59 1.90  55 1.94  54 1.95  61 1.96  17 2.81  29 2.84
                            37 2.85   6 2.92  25 2.98
  31  0.528  0.927  0.507-  62 1.85  46 1.91  81 1.92  51 1.93  88 1.96  56 1.98  32 2.89  40 2.89
                            28 2.92
  32  0.860  0.086  0.499-  62 1.88  63 1.89  56 1.89  58 1.96  57 1.96  64 1.99  24 2.84  20 2.84
                             6 2.87  31 2.89  27 2.90  39 2.99
  33  0.501  0.420  0.003-  65 1.88  85 1.93  71 1.93  78 1.96  43 1.96  48 2.03  23 2.84  26 2.85
                            34 2.88  38 2.92
  34  0.832  0.583  0.009-  72 1.84  67 1.87  73 1.89  66 1.90  71 1.93  65 2.02  17 2.84  25 2.87
                            33 2.88  37 2.94   8 2.94
  35  0.525  0.426  0.495-  87 1.87  45 1.88  68 1.92  82 1.94  74 1.96  52 2.01  28 2.86  40 2.90
                            36 2.92
  36  0.862  0.593  0.489-  75 1.85  69 1.85  70 1.89  68 1.92  76 1.93  74 1.97  39 2.84  27 2.88
                            35 2.92   8 2.97
  37  0.005  0.417  0.002-  83 1.88  60 1.89  77 1.91  73 1.94  55 1.96  66 1.98   5 2.73  19 2.74
                            17 2.85  30 2.85  38 2.93  34 2.94
  38  0.342  0.597  0.993-  79 1.88  77 1.90  83 1.93  78 1.95  84 1.96  85 1.96  15 2.77  23 2.83
                            29 2.84  33 2.92  37 2.93
  39  0.027  0.431  0.503-  75 1.80  70 1.86  86 1.88  64 1.93  57 1.96  80 2.00  18 2.82  36 2.84
                            40 2.87   5 2.89  32 2.99
  40  0.358  0.593  0.504-  88 1.81  86 1.84  82 1.88  87 1.94  81 1.96  80 1.96  39 2.87  31 2.89
                            35 2.90
  41  0.153  0.069  0.095-  25 1.87  26 2.02  19 2.13
  42  0.347  0.934  0.090-  29 1.94  26 1.96  21 2.00
  43  0.485  0.251  0.102-  33 1.96  26 1.97  17 2.18   1 2.29
  44  0.189  0.942  0.595-  27 1.87  28 2.04  22 2.06  14 2.28
  45  0.371  0.257  0.579-  28 1.87  35 1.88  20 2.04   3 2.22
  46  0.513  0.084  0.593-  31 1.91  28 1.97  18 2.06  14 2.35  12 2.37
  47  0.165  0.932  0.898-  25 1.94  26 1.97  21 2.17  14 2.27  13 2.36
  48  0.338  0.247  0.901-  26 1.87  33 2.03  19 2.14   3 2.20
  49  0.499  0.089  0.918-  29 1.90  26 1.91  17 1.99  14 2.27
  50  0.196  0.078  0.387-  28 1.94  27 1.99   9 2.23   1 2.25
  51  0.379  0.942  0.407-  28 1.88  31 1.93  22 2.11  16 2.22
  52  0.518  0.256  0.396-  28 1.89  35 2.01  18 2.23  11 2.33   1 2.35
  53  0.675  0.082  0.096-  30 1.89  29 1.98  17 2.01  16 2.20
  54  0.842  0.923  0.085-  25 1.90  30 1.95  23 2.05  10 2.32   6 2.37
  55  0.991  0.248  0.099-  30 1.94  37 1.96  19 1.99   6 2.14   5 2.36
  56  0.703  0.934  0.595-  32 1.89  31 1.98  24 2.01
  57  0.873  0.257  0.595-  39 1.96  32 1.96  18 1.97   2 2.37
  58  0.020  0.075  0.593-  27 1.93  32 1.96  20 2.05   2 2.33
  59  0.674  0.936  0.905-  30 1.90  29 1.94  23 2.10   4 2.33
  60  0.850  0.254  0.910-  30 1.87  37 1.89  17 2.05  12 2.35
  61  0.994  0.076  0.911-  25 1.94  30 1.96  19 2.08   2 2.33  13 2.36
  62  0.690  0.070  0.416-  31 1.85  32 1.88  18 2.13  16 2.22
  63  0.871  0.933  0.410-  32 1.89  27 1.90  24 2.02   6 2.30  10 2.37
  64  0.025  0.266  0.412-  39 1.93  20 1.95  32 1.99   6 2.36
  65  0.653  0.567  0.103-  33 1.88  34 2.02  23 2.14
  66  0.846  0.429  0.100-  34 1.90  37 1.98  17 2.02  11 2.21   5 2.33
  67  0.979  0.745  0.103-  34 1.87  25 1.95  21 2.15
  68  0.696  0.439  0.582-  35 1.92  36 1.92  18 1.99   8 2.15
  69  0.878  0.752  0.583-  36 1.85  27 1.92  24 2.10
  70  0.016  0.588  0.582-  39 1.86  36 1.89  22 1.99
  71  0.669  0.425  0.914-  33 1.93  34 1.93  17 2.01   8 2.25
  72  0.842  0.741  0.918-  34 1.84  25 1.91  23 1.96  13 2.37
  73  0.989  0.579  0.920-  34 1.89  37 1.94  21 2.05
  74  0.691  0.583  0.396-  35 1.96  36 1.97  24 2.11  10 2.30
  75  0.887  0.445  0.411-  39 1.80  36 1.85  18 2.15   5 2.29
  76  0.024  0.758  0.398-  36 1.93  27 1.95  22 2.08   9 2.15
  77  0.175  0.576  0.087-  38 1.90  37 1.91  21 2.04   5 2.36
  78  0.339  0.434  0.089-  38 1.95  33 1.96  19 1.97  15 2.36
  79  0.498  0.760  0.081-  29 1.87  38 1.88  23 2.03  15 2.22
  80  0.194  0.438  0.605-  40 1.96  39 2.00  20 2.11
  81  0.365  0.763  0.596-  31 1.92  40 1.96  22 1.97
  82  0.520  0.589  0.585-  40 1.88  35 1.94  24 1.98
  83  0.169  0.439  0.906-  37 1.88  38 1.93  19 2.07   7 2.26
  84  0.357  0.770  0.901-  29 1.87  38 1.96  21 2.17
  85  0.501  0.579  0.906-  33 1.93  23 1.93  38 1.96
  86  0.198  0.587  0.420-  40 1.84  39 1.88  22 2.04
  87  0.373  0.441  0.409-  35 1.87  40 1.94  20 2.12   1 2.35
  88  0.504  0.749  0.416-  40 1.81  31 1.96  24 2.09
 
  LATTYP: Found a hexagonal cell.
 ALAT       =    10.0190000534
 C/A-ratio  =     1.1196726572
  
  Lattice vectors:
  
 A1 = (  10.0190000534,   0.0000000000,   0.0000000000)
 A2 = (  -5.0095000267,   8.6767085668,   0.0000000000)
 A3 = (   0.0000000000,   0.0000000000,  11.2180004120)


Analysis of symmetry for initial positions (statically):
=====================================================================
 Subroutine PRICEL returns:
 Original cell was already a primitive cell.
 

 Routine SETGRP: Setting up the symmetry group for a 
 hexagonal supercell.


 Subroutine GETGRP returns: Found  1 space group operations
 (whereof  1 operations were pure point group operations)
 out of a pool of 24 trial point group operations.


The static configuration has the point symmetry C_1 .


Analysis of symmetry for dynamics (positions and initial velocities):
=====================================================================
 Subroutine PRICEL returns:
 Original cell was already a primitive cell.
 

 Routine SETGRP: Setting up the symmetry group for a 
 hexagonal supercell.


 Subroutine GETGRP returns: Found  1 space group operations
 (whereof  1 operations were pure point group operations)
 out of a pool of 24 trial point group operations.


The dynamic configuration has the point symmetry C_1 .


Analysis of structural, dynamic, and magnetic symmetry:
=====================================================================
 Subroutine PRICEL returns:
 Original cell was already a primitive cell.
 

 Routine SETGRP: Setting up the symmetry group for a 
 hexagonal supercell.


 Subroutine GETGRP returns: Found  1 space group operations
 (whereof  1 operations were pure point group operations)
 out of a pool of 24 trial point group operations.


The magnetic configuration has the point symmetry C_1 .


 Subroutine INISYM returns: Found  1 space group operations
 (whereof  1 operations are pure point group operations),
 and found     1 'primitive' translations

 
 

Automatic generation of k-mesh.
 generate k-points for:    2    2    2
Space group operators:
 irot       det(A)        alpha          n_x          n_y          n_z        tau_x        tau_y        tau_z
    1     1.000000     0.000000     1.000000     0.000000     0.000000     0.000000     0.000000     0.000000
 
 Subroutine IBZKPT returns following result:
 ===========================================
 
 Found      8 irreducible k-points:
 
 Following reciprocal coordinates:
            Coordinates               Weight
  0.000000  0.000000  0.000000      1.000000
  0.500000 -0.000000 -0.000000      1.000000
  0.000000  0.500000  0.000000      1.000000
  0.500000  0.500000 -0.000000      1.000000
  0.000000  0.000000  0.500000      1.000000
  0.500000 -0.000000  0.500000      1.000000
  0.000000  0.500000  0.500000      1.000000
  0.500000  0.500000  0.500000      1.000000
 
 Following cartesian coordinates:
            Coordinates               Weight
  0.000000  0.000000  0.000000      1.000000
  0.049905  0.028813 -0.000000      1.000000
  0.000000  0.057626  0.000000      1.000000
  0.049905  0.086438 -0.000000      1.000000
  0.000000  0.000000  0.044571      1.000000
  0.049905  0.028813  0.044571      1.000000
  0.000000  0.057626  0.044571      1.000000
  0.049905  0.086438  0.044571      1.000000
 


--------------------------------------------------------------------------------------------------------




 Dimension of arrays:
   k-points           NKPTS =      8   k-points in BZ     NKDIM =      8   number of bands    NBANDS=    480
   number of dos      NEDOS =    301   number of ions     NIONS =     88
   non local maximal  LDIM  =      6   non local SUM 2l+1 LMDIM =     18
   total plane-waves  NPLWV = 140000
   max r-space proj   IRMAX =   1632   max aug-charges    IRDMAX=   4555
   dimension x,y,z NGX =    50 NGY =   50 NGZ =   56
   dimension x,y,z NGXF=   100 NGYF=  100 NGZF=  112
   support grid    NGXF=   100 NGYF=  100 NGZF=  112
   ions per type =              16   8  16  48
   NGX,Y,Z   is equivalent  to a cutoff of   8.30,  8.30,  8.30 a.u.
   NGXF,Y,Z  is equivalent  to a cutoff of  16.59, 16.59, 16.60 a.u.

 SYSTEM =  unknown system                          
 POSCAR =  Na Mg Mn  O                             

 Startparameter for this run:
   NWRITE =      2    write-flag & timer
   PREC   = normal    normal or accurate (medium, high low for compatibility)
   ISTART =      0    job   : 0-new  1-cont  2-samecut
   ICHARG =      1    charge: 1-file 2-atom 10-const
   ISPIN  =      2    spin polarized calculation?
   LNONCOLLINEAR =      F non collinear calculations
   LSORBIT =      F    spin-orbit coupling
   INIWAV =      1    electr: 0-lowe 1-rand  2-diag
   LASPH  =      T    aspherical Exc in radial PAW
   METAGGA=      F    non-selfconsistent MetaGGA calc.

 Electronic Relaxation 1
   ENCUT  =  400.0 eV  29.40 Ry    5.42 a.u.  16.34 16.34 18.29*2*pi/ulx,y,z
   ENINI  =  400.0     initial cutoff
   ENAUG  =  758.8 eV  augmentation charge cutoff
   NELM   =    200;   NELMIN=  6; NELMDL=-12     # of ELM steps 
   EDIFF  = 0.1E-04   stopping-criterion for ELM
   LREAL  =      T    real-space projection
   NLSPLINE    = F    spline interpolate recip. space projectors
   LCOMPAT=      F    compatible to vasp.4.4
   GGA_COMPAT  = T    GGA compatible to vasp.4.4-vasp.4.6
   LMAXPAW     = -100 max onsite density
   LMAXMIX     =    4 max onsite mixed and CHGCAR
   VOSKOWN=      0    Vosko Wilk Nusair interpolation
   ROPT   =   -0.00050  -0.00050  -0.00050  -0.00050
 Ionic relaxation
   EDIFFG = 0.1E-03   stopping-criterion for IOM
   NSW    =      1    number of steps for IOM
   NBLOCK =      1;   KBLOCK =      1    inner block; outer block 
   IBRION =     -1    ionic relax: 0-MD 1-quasi-New 2-CG
   NFREE  =      0    steps in history (QN), initial steepest desc. (CG)
   ISIF   =      2    stress and relaxation
   IWAVPR =     10    prediction:  0-non 1-charg 2-wave 3-comb
   ISYM   =      2    0-nonsym 1-usesym 2-fastsym
   LCORR  =      T    Harris-Foulkes like correction to forces

   POTIM  = 0.5000    time-step for ionic-motion
   TEIN   =    0.0    initial temperature
   TEBEG  =    0.0;   TEEND  =   0.0 temperature during run
   SMASS  =  -3.00    Nose mass-parameter (am)
   estimated Nose-frequenzy (Omega)   =  0.10E-29 period in steps =****** mass=  -0.229E-26a.u.
   SCALEE = 1.0000    scale energy and forces
   NPACO  =    256;   APACO  = 16.0  distance and # of slots for P.C.
   PSTRESS=    0.0 pullay stress

  Mass of Ions in am
   POMASS =  22.99 24.30 54.94 16.00
  Ionic Valenz
   ZVAL   =   7.00  8.00 13.00  6.00
  Atomic Wigner-Seitz radii
   RWIGS  =  -1.00 -1.00 -1.00 -1.00
  virtual crystal weights 
   VCA    =   1.00  1.00  1.00  1.00
   NELECT =     672.0000    total number of electrons
   NUPDOWN=      48.0000    fix difference up-down

 DOS related values:
   EMIN   =  10.00;   EMAX   =-10.00  energy-range for DOS
   EFERMI =   0.00
   ISMEAR =     0;   SIGMA  =   0.05  broadening in eV -4-tet -1-fermi 0-gaus

 Electronic relaxation 2 (details)
   IALGO  =     48    algorithm
   LDIAG  =      T    sub-space diagonalisation (order eigenvalues)
   LSUBROT=      F    optimize rotation matrix (better conditioning)
   TURBO    =      0    0=normal 1=particle mesh
   IRESTART =      0    0=no restart 2=restart with 2 vectors
   NREBOOT  =      0    no. of reboots
   NMIN     =      0    reboot dimension
   EREF     =   0.00    reference energy to select bands
   IMIX   =      4    mixing-type and parameters
     AMIX     =   0.40;   BMIX     =  1.00
     AMIX_MAG =   1.60;   BMIX_MAG =  1.00
     AMIN     =   0.10
     WC   =   100.;   INIMIX=   1;  MIXPRE=   1;  MAXMIX= -45

 Intra band minimization:
   WEIMIN = 0.0000     energy-eigenvalue tresh-hold
   EBREAK =  0.52E-08  absolut break condition
   DEPER  =   0.30     relativ break condition  

   TIME   =   0.40     timestep for ELM

  volume/ion in A,a.u.               =      11.08        74.78
  Fermi-wavevector in a.u.,A,eV,Ry     =   1.445993  2.732531 28.448379  2.090897
  Thomas-Fermi vector in A             =   2.564112
 
 Write flags
   LWAVE        =      F    write WAVECAR
   LDOWNSAMPLE  =      F    k-point downsampling of WAVECAR
   LCHARG       =      F    write CHGCAR
   LVTOT        =      F    write LOCPOT, total local potential
   LVHAR        =      F    write LOCPOT, Hartree potential only
   LELF         =      F    write electronic localiz. function (ELF)
   LORBIT       =     11    0 simple, 1 ext, 2 COOP (PROOUT), +10 PAW based schemes


 Dipole corrections
   LMONO  =      F    monopole corrections only (constant potential shift)
   LDIPOL =      F    correct potential (dipole corrections)
   IDIPOL =      0    1-x, 2-y, 3-z, 4-all directions 
   EPSILON=  1.0000000 bulk dielectric constant

 Exchange correlation treatment:
   GGA     =    --    GGA type
   LEXCH   =     8    internal setting for exchange type
   VOSKOWN=      0    Vosko Wilk Nusair interpolation
   LHFCALC =     F    Hartree Fock is set to
   LHFONE  =     F    Hartree Fock one center treatment
   AEXX    =    0.0000 exact exchange contribution

 Linear response parameters
   LEPSILON=     F    determine dielectric tensor
   LRPA    =     F    only Hartree local field effects (RPA)
   LNABLA  =     F    use nabla operator in PAW spheres
   LVEL    =     F    velocity operator in full k-point grid
   LINTERFAST=   F  fast interpolation
   KINTER  =     0    interpolate to denser k-point grid
   CSHIFT  =0.1000    complex shift for real part using Kramers Kronig
   OMEGAMAX=  -1.0    maximum frequency
   DEG_THRESHOLD= 0.2000000E-02 threshold for treating states as degnerate
   RTIME   =   -0.100 relaxation time in fs
  (WPLASMAI=    0.000 imaginary part of plasma frequency in eV, 0.658/RTIME)
   DFIELD  = 0.0000000 0.0000000 0.0000000 field for delta impulse in time
 
 Orbital magnetization related:
   ORBITALMAG=     F  switch on orbital magnetization
   LCHIMAG   =     F  perturbation theory with respect to B field
   DQ        =  0.001000  dq finite difference perturbation B field
   LLRAUG    =     F  two centre corrections for induced B field



--------------------------------------------------------------------------------------------------------


 Static calculation
 charge density and potential will be updated during run
 spin polarized calculation
 RMM-DIIS sequential band-by-band
 perform sub-space diagonalisation
    before iterative eigenvector-optimisation
 modified Broyden-mixing scheme, WC =      100.0
 initial mixing is a Kerker type mixing with AMIX =  0.4000 and BMIX =      1.0000
 Hartree-type preconditioning will be used
 using additional bands          144
 real space projection scheme for non local part
 use partial core corrections
 calculate Harris-corrections to forces 
   (improved forces if not selfconsistent)
 use gradient corrections 
 use of overlap-Matrix (Vanderbilt PP)
 Gauss-broadening in eV      SIGMA  =   0.05


--------------------------------------------------------------------------------------------------------


  energy-cutoff  :      400.00
  volume of cell :      975.20
      direct lattice vectors                 reciprocal lattice vectors
    10.019000053  0.000000000  0.000000000     0.099810360  0.057625538 -0.000000000
    -5.009500027  8.676708567  0.000000000     0.000000000  0.115251076  0.000000000
     0.000000000  0.000000000 11.218000412     0.000000000  0.000000000  0.089142446

  length of vectors
    10.019000053 10.019000053 11.218000412     0.115251076  0.115251076  0.089142446


 
 k-points in units of 2pi/SCALE and weight: read from INCAR                         
   0.00000000  0.00000000  0.00000000       0.125
   0.04990518  0.02881277 -0.00000000       0.125
   0.00000000  0.05762554  0.00000000       0.125
   0.04990518  0.08643831 -0.00000000       0.125
   0.00000000  0.00000000  0.04457122       0.125
   0.04990518  0.02881277  0.04457122       0.125
   0.00000000  0.05762554  0.04457122       0.125
   0.04990518  0.08643831  0.04457122       0.125
 
 k-points in reciprocal lattice and weights: read from INCAR                         
   0.00000000  0.00000000  0.00000000       0.125
   0.50000000 -0.00000000 -0.00000000       0.125
   0.00000000  0.50000000  0.00000000       0.125
   0.50000000  0.50000000 -0.00000000       0.125
   0.00000000  0.00000000  0.50000000       0.125
   0.50000000 -0.00000000  0.50000000       0.125
   0.00000000  0.50000000  0.50000000       0.125
   0.50000000  0.50000000  0.50000000       0.125
 
 position of ions in fractional coordinates (direct lattice) 
   0.34697469  0.26534371  0.25856391
   0.02343170  0.23260548  0.74773397
   0.39241633  0.39236636  0.74142090
   0.54188722  0.76260468  0.75084950
   0.01176123  0.42792609  0.24528792
   0.92487949  0.09508087  0.24897040
   0.16144507  0.58706824  0.75679174
   0.80002433  0.54818121  0.74862361
   0.17131584  0.89877300  0.25682295
   0.80302253  0.76204868  0.24580138
   0.68860619  0.40383780  0.24606168
   0.67376420  0.11279438  0.75809856
   0.97864211  0.90708261  0.75759313
   0.34894967  0.04426119  0.75483595
   0.37770898  0.61584314  0.23835086
   0.54706606  0.06127455  0.26125333
   0.67641972  0.25608328  0.00568038
   0.70284140  0.26095379  0.51010517
   0.16549348  0.26232182  0.00428029
   0.18737501  0.25948204  0.50155463
   0.17035417  0.75694948  0.00770187
   0.19721401  0.76626753  0.50584416
   0.66763184  0.74689958  0.99123092
   0.69477434  0.75953571  0.49986181
   0.00095959  0.91331753  0.00097561
   0.33092882  0.09092042  0.99660085
   0.03219781  0.92452339  0.49368781
   0.36186477  0.09651724  0.48796308
   0.50550802  0.92464555  0.99748615
   0.83318311  0.08868582  0.00073093
   0.52809333  0.92686298  0.50695309
   0.86038514  0.08640558  0.49938757
   0.50070365  0.41969256  0.00251266
   0.83194106  0.58268639  0.00937689
   0.52546510  0.42624112  0.49536457
   0.86214102  0.59326298  0.48888659
   0.00456584  0.41707059  0.00167563
   0.34160801  0.59684153  0.99316118
   0.02727073  0.43147928  0.50251558
   0.35810389  0.59347159  0.50449454
   0.15259844  0.06930508  0.09494116
   0.34655874  0.93403973  0.09010964
   0.48545165  0.25145826  0.10159475
   0.18903135  0.94175568  0.59455872
   0.37052515  0.25690617  0.57865304
   0.51317850  0.08394958  0.59301032
   0.16510652  0.93231904  0.89788729
   0.33754286  0.24749016  0.90146190
   0.49922911  0.08875266  0.91796217
   0.19599748  0.07802152  0.38747458
   0.37931542  0.94170900  0.40708948
   0.51845617  0.25589427  0.39607326
   0.67488618  0.08244428  0.09585755
   0.84211880  0.92322354  0.08531422
   0.99117372  0.24849976  0.09944286
   0.70259386  0.93379736  0.59507575
   0.87298652  0.25652700  0.59492332
   0.01964294  0.07496610  0.59299962
   0.67419478  0.93577553  0.90462646
   0.85014632  0.25365725  0.91044746
   0.99415642  0.07582656  0.91112494
   0.69026400  0.07009582  0.41586199
   0.87130051  0.93282960  0.40963807
   0.02458935  0.26615046  0.41155106
   0.65323727  0.56738681  0.10325102
   0.84646020  0.42943703  0.09950882
   0.97853250  0.74530335  0.10262881
   0.69622661  0.43865943  0.58197716
   0.87847213  0.75249272  0.58329825
   0.01607179  0.58819309  0.58237562
   0.66850338  0.42472211  0.91402207
   0.84194085  0.74056999  0.91822068
   0.98906730  0.57877938  0.91969153
   0.69055749  0.58267602  0.39570065
   0.88668187  0.44460638  0.41054821
   0.02396503  0.75828639  0.39842038
   0.17483292  0.57555465  0.08717454
   0.33859535  0.43370132  0.08924139
   0.49805827  0.75998519  0.08086593
   0.19380022  0.43767749  0.60541360
   0.36455058  0.76326984  0.59552770
   0.51996720  0.58893530  0.58531198
   0.16875260  0.43904667  0.90593685
   0.35678662  0.76979882  0.90110533
   0.50112664  0.57905137  0.90560703
   0.19776405  0.58724803  0.41985914
   0.37340019  0.44078581  0.40856925
   0.50395119  0.74930372  0.41623996
 
 position of ions in cartesian coordinates  (Angst):
   2.14710011  2.30231000  2.90057000
  -0.93047500  2.01825000  8.38808000
   1.96605997  3.40444857  8.31726000
   1.60889992  6.61689857  8.42303000
  -2.02586005  3.71299000  2.75164000
   8.79006000  0.82498900  2.79295000
  -1.32340016  5.09382000  8.48969000
   5.26933008  4.75640857  8.39806000
  -2.78598997  7.79839143  2.88104000
   4.22799992  6.61207430  2.75740000
   4.87612000  3.50398287  2.76032000
   6.18540005  0.97868400  8.50435000
   5.26098503  7.87049143  8.49868000
   3.27440029  0.38404143  8.46775000
   0.69920008  5.34349143  2.67382000
   5.17409997  0.53166143  2.93074000
   5.49420000  2.22196000  0.06372250
   5.73452000  2.26422000  5.72236000
   0.34397800  2.27609000  0.04801630
   0.57743500  2.25145000  5.62644000
  -2.08516000  6.56783000  0.08639959
  -1.86273000  6.64868000  5.67456000
   2.94741000  6.48063000 11.11962891
   3.15605000  6.59027000  5.60745000
  -4.56565005  7.92459000  0.01094440
   2.86011000  0.78889000 11.17986871
  -4.30881005  8.02182000  5.53819000
   3.14202000  0.83745200  5.47397000
   0.43267300  8.02288000 11.18980000
   7.90339000  0.76950100  0.00819959
   0.64784700  8.04212000  5.68700000
   8.18735000  0.74971600  5.60213000
   2.91410000  3.64155000  0.02818700
   5.41625000  5.05580000  0.10519000
   3.12938000  3.69837000  5.55700000
   5.66584000  5.14757000  5.48433000
  -2.04357005  3.61880000  0.01879720
   0.43269300  5.17862000 11.14128251
  -1.88827005  3.74382000  5.63722000
   0.61484700  5.14938000  5.65942000
   1.18170000  0.60134000  1.06505000
  -1.20690003  8.10439057  1.01085000
   3.60406000  2.18183000  1.13969000
  -2.82382003  8.17133957  6.66976000
   2.42532000  2.22910000  6.49133000
   4.72099000  0.72840600  6.65239000
  -3.01625003  8.08946057 10.07250000
   2.14204000  2.14740000 10.11260000
   4.55717000  0.77008100 10.29770000
   1.57285000  0.67697000  4.34669000
  -0.91713003  8.17093457  4.56673000
   3.91251000  2.22032000  4.44315000
   6.34868000  0.71534500  1.07533000
   3.81229997  8.01054157  0.95705500
   8.68571000  2.15616000  1.11555000
   2.36142997  8.10228757  6.67556000
   7.46138000  2.22581000  6.67385000
  -0.17874005  0.65045900  6.65227000
   2.06698997  8.11945157 10.14810000
   7.24692000  2.20091000 10.21340000
   9.58060000  0.65792500 10.22100000
   6.56461000  0.60820100  4.66514000
   4.05654997  8.09389057  4.59532000
  -1.08692005  2.30931000  4.61678000
   3.70246000  4.92305000  1.15827000
   6.32942000  3.72610000  1.11629000
   6.07032000  6.46678000  1.15129000
   4.77803000  3.80612000  6.52862000
   5.03180000  6.52916000  6.54344000
  -2.78553005  5.10358000  6.53309000
   4.57009000  3.68519000 10.25350000
   4.72552000  6.42571000 10.30060000
   7.01007000  5.02190000 10.31710000
   3.99978000  5.05571000  4.43897000
   6.65641000  3.85772000  4.60553000
  -3.55853005  6.57943000  4.46948000
  -1.13159000  4.99392000  0.97792400
   1.21976000  3.76310000  1.00111000
   1.18290000  6.59417000  0.90715400
  -0.25086100  3.79760000  6.79153000
  -0.17116800  6.62267000  6.68063000
   2.25928000  5.11002000  6.56603000
  -0.50867200  3.80948000 10.16280000
  -0.28166200  6.67932000 10.10860000
   2.12003000  5.02426000 10.15910000
  -0.96042100  5.09538000  4.70998000
   1.53298000  3.82457000  4.58333000
   1.29545000  6.50149000  4.66938000
 


--------------------------------------------------------------------------------------------------------


 k-point  1 :   0.0000 0.0000 0.0000  plane waves:   17725
 k-point  2 :   0.5000-0.0000-0.0000  plane waves:   17736
 k-point  3 :   0.0000 0.5000 0.0000  plane waves:   17736
 k-point  4 :   0.5000 0.5000-0.0000  plane waves:   17736
 k-point  5 :   0.0000 0.0000 0.5000  plane waves:   17676
 k-point  6 :   0.5000-0.0000 0.5000  plane waves:   17700
 k-point  7 :   0.0000 0.5000 0.5000  plane waves:   17700
 k-point  8 :   0.5000 0.5000 0.5000  plane waves:   17700

 maximum and minimum number of plane-waves per node :     17736    17676

 maximum number of plane-waves:     17736
 maximum index in each direction: 
   IXMAX=   16   IYMAX=   16   IZMAX=   18
   IXMIN=  -16   IYMIN=  -16   IZMIN=  -18


 serial   3D FFT for wavefunctions
 parallel 3D FFT for charge:
    minimum data exchange during FFTs selected (reduces bandwidth)


 total amount of memory used by VASP MPI-rank0    94436. kBytes
=======================================================================

   base      :      30000. kBytes
   nonlr-proj:      13677. kBytes
   fftplans  :       1275. kBytes
   grid      :      22786. kBytes
   one-center:       2737. kBytes
   wavefun   :      23961. kBytes
 
     INWAV:  cpu time    0.0000: real time    0.0000
 Broyden mixing: mesh for mixing (old mesh)
   NGX = 33   NGY = 33   NGZ = 37
  (NGX  =100   NGY  =100   NGZ  =112)
  gives a total of  40293 points

 initial charge density was supplied:
 charge density of overlapping atoms calculated
 number of electron     672.0000000 magnetization      48.0000000
 keeping initial charge density in first step


--------------------------------------------------------------------------------------------------------


 Maximum index for non-local projection operator         1551
 Maximum index for augmentation-charges          534 (set IRDMAX)


--------------------------------------------------------------------------------------------------------


 First call to EWALD:  gamma=   0.179
 Maximum number of real-space cells 3x 3x 2
 Maximum number of reciprocal cells 3x 3x 3

    FEWALD:  cpu time    0.0029: real time    0.0029


--------------------------------------- Iteration      1(   1)  ---------------------------------------


    POTLOK:  cpu time    0.1983: real time    0.2003
    SETDIJ:  cpu time    4.6424: real time    4.6448
    EDDIAG:  cpu time    4.3877: real time    4.7835
  RMM-DIIS:  cpu time    9.0812: real time    9.0919
    ORTHCH:  cpu time    1.1601: real time    1.2402
       DOS:  cpu time    0.0025: real time    0.0026
    --------------------------------------------
      LOOP:  cpu time   19.4722: real time   19.9634

 eigenvalue-minimisations  :  7680
 total energy-change (2. order) : 0.1599285E+04  (-0.3496729E+05)
 number of electron     672.0000000 magnetization      48.0000000
 augmentation part      672.0000000 magnetization      48.0000000

 Free energy of the ion-electron system (eV)
  ---------------------------------------------------
  alpha Z        PSCENC =      2652.81237852
  Ewald energy   TEWEN  =    -41677.58789773
  -Hartree energ DENC   =    -25926.73875129
  -exchange      EXHF   =         0.00000000
  -V(xc)+E(xc)   XCENC  =      3606.68695733
  PAW double counting   =     55594.23204139   -59034.67079123
  entropy T*S    EENTRO =        -0.04514270
  eigenvalues    EBANDS =     -7477.60230793
  atomic energy  EATOM  =     73862.19814772
  Solvation  Ediel_sol  =         0.00000000
  ---------------------------------------------------
  free energy    TOTEN  =      1599.28463407 eV

  energy without entropy =     1599.32977677  energy(sigma->0) =     1599.30720542


--------------------------------------------------------------------------------------------------------




--------------------------------------- Iteration      1(   2)  ---------------------------------------


    EDDIAG:  cpu time    4.3672: real time    4.7769
  RMM-DIIS:  cpu time    9.0544: real time    9.0734
    ORTHCH:  cpu time    1.1588: real time    1.2391
       DOS:  cpu time    0.0022: real time    0.0022
    --------------------------------------------
      LOOP:  cpu time   14.5826: real time   15.0916

 eigenvalue-minimisations  :  7680
 total energy-change (2. order) :-0.2324309E+04  (-0.8028961E+04)
 number of electron     672.0000000 magnetization      48.0000000
 augmentation part      672.0000000 magnetization      48.0000000

 Free energy of the ion-electron system (eV)
  ---------------------------------------------------
  alpha Z        PSCENC =      2652.81237852
  Ewald energy   TEWEN  =    -41677.58789773
  -Hartree energ DENC   =    -25926.73875129
  -exchange      EXHF   =         0.00000000
  -V(xc)+E(xc)   XCENC  =      3606.68695733
  PAW double counting   =     55594.23204139   -59034.67079123
  entropy T*S    EENTRO =        -0.05532927
  eigenvalues    EBANDS =     -9801.90112393
  atomic energy  EATOM  =     73862.19814772
  Solvation  Ediel_sol  =         0.00000000
  ---------------------------------------------------
  free energy    TOTEN  =      -725.02436849 eV

  energy without entropy =     -724.96903922  energy(sigma->0) =     -724.99670386


--------------------------------------------------------------------------------------------------------




--------------------------------------- Iteration      1(   3)  ---------------------------------------


    EDDIAG:  cpu time    4.3837: real time    4.7705
  RMM-DIIS:  cpu time    9.0280: real time    9.0507
    ORTHCH:  cpu time    1.1614: real time    1.2427
       DOS:  cpu time    0.0018: real time    0.0018
    --------------------------------------------
      LOOP:  cpu time   14.5749: real time   15.0658

 eigenvalue-minimisations  :  7680
 total energy-change (2. order) : 0.8173138E+02  (-0.1420760E+04)
 number of electron     672.0000000 magnetization      48.0000000
 augmentation part      672.0000000 magnetization      48.0000000

 Free energy of the ion-electron system (eV)
  ---------------------------------------------------
  alpha Z        PSCENC =      2652.81237852
  Ewald energy   TEWEN  =    -41677.58789773
  -Hartree energ DENC   =    -25926.73875129
  -exchange      EXHF   =         0.00000000
  -V(xc)+E(xc)   XCENC  =      3606.68695733
  PAW double counting   =     55594.23204139   -59034.67079123
  entropy T*S    EENTRO =        -0.02679406
  eigenvalues    EBANDS =     -9720.19827564
  atomic energy  EATOM  =     73862.19814772
  Solvation  Ediel_sol  =         0.00000000
  ---------------------------------------------------
  free energy    TOTEN  =      -643.29298500 eV

  energy without entropy =     -643.26619094  energy(sigma->0) =     -643.27958797


--------------------------------------------------------------------------------------------------------




--------------------------------------- Iteration      1(   4)  ---------------------------------------


    EDDIAG:  cpu time    4.3791: real time    4.7990
  RMM-DIIS:  cpu time    9.0473: real time    9.0584
    ORTHCH:  cpu time    1.1609: real time    1.2396
       DOS:  cpu time    0.0014: real time    0.0014
    --------------------------------------------
      LOOP:  cpu time   14.5888: real time   15.0984

 eigenvalue-minimisations  :  7680
 total energy-change (2. order) :-0.4675941E+03  (-0.4300491E+03)
 number of electron     672.0000000 magnetization      48.0000000
 augmentation part      672.0000000 magnetization      48.0000000

 Free energy of the ion-electron system (eV)
  ---------------------------------------------------
  alpha Z        PSCENC =      2652.81237852
  Ewald energy   TEWEN  =    -41677.58789773
  -Hartree energ DENC   =    -25926.73875129
  -exchange      EXHF   =         0.00000000
  -V(xc)+E(xc)   XCENC  =      3606.68695733
  PAW double counting   =     55594.23204139   -59034.67079123
  entropy T*S    EENTRO =        -0.00000000
  eigenvalues    EBANDS =    -10187.81912612
  atomic energy  EATOM  =     73862.19814772
  Solvation  Ediel_sol  =         0.00000000
  ---------------------------------------------------
  free energy    TOTEN  =     -1110.88704142 eV

  energy without entropy =    -1110.88704142  energy(sigma->0) =    -1110.88704142


--------------------------------------------------------------------------------------------------------




--------------------------------------- Iteration      1(   5)  ---------------------------------------


    EDDIAG:  cpu time    4.3787: real time    4.7759
  RMM-DIIS:  cpu time    9.0501: real time    9.0567
    ORTHCH:  cpu time    1.1588: real time    1.2397
       DOS:  cpu time    0.0011: real time    0.0011
    --------------------------------------------
      LOOP:  cpu time   14.5887: real time   15.0734

 eigenvalue-minimisations  :  7680
 total energy-change (2. order) :-0.1046483E+03  (-0.1601294E+03)
 number of electron     672.0000000 magnetization      48.0000000
 augmentation part      672.0000000 magnetization      48.0000000

 Free energy of the ion-electron system (eV)
  ---------------------------------------------------
  alpha Z        PSCENC =      2652.81237852
  Ewald energy   TEWEN  =    -41677.58789773
  -Hartree energ DENC   =    -25926.73875129
  -exchange      EXHF   =         0.00000000
  -V(xc)+E(xc)   XCENC  =      3606.68695733
  PAW double counting   =     55594.23204139   -59034.67079123
  entropy T*S    EENTRO =        -0.00000000
  eigenvalues    EBANDS =    -10292.46741583
  atomic energy  EATOM  =     73862.19814772
  Solvation  Ediel_sol  =         0.00000000
  ---------------------------------------------------
  free energy    TOTEN  =     -1215.53533112 eV

  energy without entropy =    -1215.53533112  energy(sigma->0) =    -1215.53533112


--------------------------------------------------------------------------------------------------------




--------------------------------------- Iteration      1(   6)  ---------------------------------------


    EDDIAG:  cpu time    4.4227: real time    4.8346
  RMM-DIIS:  cpu time    9.0581: real time    9.0672
    ORTHCH:  cpu time    1.1667: real time    1.2444
       DOS:  cpu time    0.0012: real time    0.0012
    --------------------------------------------
      LOOP:  cpu time   14.6487: real time   15.1475

 eigenvalue-minimisations  :  7680
 total energy-change (2. order) :-0.8994196E+01  (-0.7951640E+02)
 number of electron     672.0000000 magnetization      48.0000000
 augmentation part      672.0000000 magnetization      48.0000000

 Free energy of the ion-electron system (eV)
  ---------------------------------------------------
  alpha Z        PSCENC =      2652.81237852
  Ewald energy   TEWEN  =    -41677.58789773
  -Hartree energ DENC   =    -25926.73875129
  -exchange      EXHF   =         0.00000000
  -V(xc)+E(xc)   XCENC  =      3606.68695733
  PAW double counting   =     55594.23204139   -59034.67079123
  entropy T*S    EENTRO =        -0.00000000
  eigenvalues    EBANDS =    -10301.46161158
  atomic energy  EATOM  =     73862.19814772
  Solvation  Ediel_sol  =         0.00000000
  ---------------------------------------------------
  free energy    TOTEN  =     -1224.52952687 eV

  energy without entropy =    -1224.52952687  energy(sigma->0) =    -1224.52952687


--------------------------------------------------------------------------------------------------------




--------------------------------------- Iteration      1(   7)  ---------------------------------------


    EDDIAG:  cpu time    4.3850: real time    4.7930
  RMM-DIIS:  cpu time    9.0521: real time    9.0597
    ORTHCH:  cpu time    1.1724: real time    1.2481
       DOS:  cpu time    0.0011: real time    0.0011
    --------------------------------------------
      LOOP:  cpu time   14.6107: real time   15.1019

 eigenvalue-minimisations  :  7680
 total energy-change (2. order) :-0.1863446E+01  (-0.4855318E+02)
 number of electron     672.0000000 magnetization      48.0000000
 augmentation part      672.0000000 magnetization      48.0000000

 Free energy of the ion-electron system (eV)
  ---------------------------------------------------
  alpha Z        PSCENC =      2652.81237852
  Ewald energy   TEWEN  =    -41677.58789773
  -Hartree energ DENC   =    -25926.73875129
  -exchange      EXHF   =         0.00000000
  -V(xc)+E(xc)   XCENC  =      3606.68695733
  PAW double counting   =     55594.23204139   -59034.67079123
  entropy T*S    EENTRO =        -0.00000000
  eigenvalues    EBANDS =    -10303.32505770
  atomic energy  EATOM  =     73862.19814772
  Solvation  Ediel_sol  =         0.00000000
  ---------------------------------------------------
  free energy    TOTEN  =     -1226.39297300 eV

  energy without entropy =    -1226.39297300  energy(sigma->0) =    -1226.39297300


--------------------------------------------------------------------------------------------------------




--------------------------------------- Iteration      1(   8)  ---------------------------------------


    EDDIAG:  cpu time    4.3882: real time    4.7954
  RMM-DIIS:  cpu time    9.0388: real time    9.0517
    ORTHCH:  cpu time    1.1586: real time    1.2400
       DOS:  cpu time    0.0017: real time    0.0017
    --------------------------------------------
      LOOP:  cpu time   14.5873: real time   15.0888

 eigenvalue-minimisations  :  7680
 total energy-change (2. order) : 0.5080309E+01  (-0.3014338E+02)
 number of electron     672.0000000 magnetization      48.0000000
 augmentation part      672.0000000 magnetization      48.0000000

 Free energy of the ion-electron system (eV)
  ---------------------------------------------------
  alpha Z        PSCENC =      2652.81237852
  Ewald energy   TEWEN  =    -41677.58789773
  -Hartree energ DENC   =    -25926.73875129
  -exchange      EXHF   =         0.00000000
  -V(xc)+E(xc)   XCENC  =      3606.68695733
  PAW double counting   =     55594.23204139   -59034.67079123
  entropy T*S    EENTRO =        -0.00000000
  eigenvalues    EBANDS =    -10298.24474869
  atomic energy  EATOM  =     73862.19814772
  Solvation  Ediel_sol  =         0.00000000
  ---------------------------------------------------
  free energy    TOTEN  =     -1221.31266399 eV

  energy without entropy =    -1221.31266399  energy(sigma->0) =    -1221.31266399


--------------------------------------------------------------------------------------------------------




--------------------------------------- Iteration      1(   9)  ---------------------------------------


    EDDIAG:  cpu time    4.4709: real time    4.8536
  RMM-DIIS:  cpu time   18.6963: real time   18.7546
    ORTHCH:  cpu time    1.1673: real time    1.2465
       DOS:  cpu time    0.0015: real time    0.0015
    --------------------------------------------
      LOOP:  cpu time   24.3359: real time   24.8561

 eigenvalue-minimisations  : 21779
 total energy-change (2. order) : 0.9313449E+01  (-0.1332929E+02)
 number of electron     672.0000000 magnetization      48.0000000
 augmentation part      672.0000000 magnetization      48.0000000

 Free energy of the ion-electron system (eV)
  ---------------------------------------------------
  alpha Z        PSCENC =      2652.81237852
  Ewald energy   TEWEN  =    -41677.58789773
  -Hartree energ DENC   =    -25926.73875129
  -exchange      EXHF   =         0.00000000
  -V(xc)+E(xc)   XCENC  =      3606.68695733
  PAW double counting   =     55594.23204139   -59034.67079123
  entropy T*S    EENTRO =        -0.00000000
  eigenvalues    EBANDS =    -10288.93129985
  atomic energy  EATOM  =     73862.19814772
  Solvation  Ediel_sol  =         0.00000000
  ---------------------------------------------------
  free energy    TOTEN  =     -1211.99921514 eV

  energy without entropy =    -1211.99921514  energy(sigma->0) =    -1211.99921514


--------------------------------------------------------------------------------------------------------




--------------------------------------- Iteration      1(  10)  ---------------------------------------


    EDDIAG:  cpu time    4.3725: real time    4.7766
  RMM-DIIS:  cpu time   17.7718: real time   17.8302
    ORTHCH:  cpu time    1.1734: real time    1.2751
       DOS:  cpu time    0.0012: real time    0.0012
    --------------------------------------------
      LOOP:  cpu time   23.3189: real time   23.8832

 eigenvalue-minimisations  : 19696
 total energy-change (2. order) :-0.1891485E+01  (-0.5296643E+00)
 number of electron     672.0000000 magnetization      48.0000000
 augmentation part      672.0000000 magnetization      48.0000000

 Free energy of the ion-electron system (eV)
  ---------------------------------------------------
  alpha Z        PSCENC =      2652.81237852
  Ewald energy   TEWEN  =    -41677.58789773
  -Hartree energ DENC   =    -25926.73875129
  -exchange      EXHF   =         0.00000000
  -V(xc)+E(xc)   XCENC  =      3606.68695733
  PAW double counting   =     55594.23204139   -59034.67079123
  entropy T*S    EENTRO =        -0.00000001
  eigenvalues    EBANDS =    -10290.82278460
  atomic energy  EATOM  =     73862.19814772
  Solvation  Ediel_sol  =         0.00000000
  ---------------------------------------------------
  free energy    TOTEN  =     -1213.89069991 eV

  energy without entropy =    -1213.89069990  energy(sigma->0) =    -1213.89069991


--------------------------------------------------------------------------------------------------------




--------------------------------------- Iteration      1(  11)  ---------------------------------------


    EDDIAG:  cpu time    4.3561: real time    4.7654
  RMM-DIIS:  cpu time   19.7822: real time   19.8122
    ORTHCH:  cpu time    1.1613: real time    1.2414
       DOS:  cpu time    0.0015: real time    0.0015
    --------------------------------------------
      LOOP:  cpu time   25.3011: real time   25.8206

 eigenvalue-minimisations  : 22620
 total energy-change (2. order) : 0.7110845E-01  (-0.4350637E-01)
 number of electron     672.0000000 magnetization      48.0000000
 augmentation part      672.0000000 magnetization      48.0000000

 Free energy of the ion-electron system (eV)
  ---------------------------------------------------
  alpha Z        PSCENC =      2652.81237852
  Ewald energy   TEWEN  =    -41677.58789773
  -Hartree energ DENC   =    -25926.73875129
  -exchange      EXHF   =         0.00000000
  -V(xc)+E(xc)   XCENC  =      3606.68695733
  PAW double counting   =     55594.23204139   -59034.67079123
  entropy T*S    EENTRO =        -0.00000001
  eigenvalues    EBANDS =    -10290.75167616
  atomic energy  EATOM  =     73862.19814772
  Solvation  Ediel_sol  =         0.00000000
  ---------------------------------------------------
  free energy    TOTEN  =     -1213.81959146 eV

  energy without entropy =    -1213.81959145  energy(sigma->0) =    -1213.81959146


--------------------------------------------------------------------------------------------------------




--------------------------------------- Iteration      1(  12)  ---------------------------------------


    EDDIAG:  cpu time    4.4328: real time    4.8758
  RMM-DIIS:  cpu time   21.7198: real time   21.7583
    ORTHCH:  cpu time    1.2561: real time    1.3353
       DOS:  cpu time    0.0014: real time    0.0014
    CHARGE:  cpu time    1.7727: real time    1.7793
    MIXING:  cpu time    0.0010: real time    0.0011
    --------------------------------------------
      LOOP:  cpu time   29.1839: real time   29.7513

 eigenvalue-minimisations  : 24407
 total energy-change (2. order) :-0.7706669E-03  (-0.4300915E-02)
 number of electron     672.0000083 magnetization      47.9999997
 augmentation part      239.1472512 magnetization      29.0419890

 Broyden mixing:
  rms(total) = 0.12663E+02    rms(broyden)= 0.12654E+02
  rms(prec ) = 0.14493E+02
  weight for this iteration     100.00

 Free energy of the ion-electron system (eV)
  ---------------------------------------------------
  alpha Z        PSCENC =      2652.81237852
  Ewald energy   TEWEN  =    -41677.58789773
  -Hartree energ DENC   =    -25926.73875129
  -exchange      EXHF   =         0.00000000
  -V(xc)+E(xc)   XCENC  =      3606.68695733
  PAW double counting   =     55594.23204139   -59034.67079123
  entropy T*S    EENTRO =        -0.00000001
  eigenvalues    EBANDS =    -10290.75244682
  atomic energy  EATOM  =     73862.19814772
  Solvation  Ediel_sol  =         0.00000000
  ---------------------------------------------------
  free energy    TOTEN  =     -1213.82036213 eV

  energy without entropy =    -1213.82036212  energy(sigma->0) =    -1213.82036212


--------------------------------------------------------------------------------------------------------




--------------------------------------- Iteration      1(  13)  ---------------------------------------


    POTLOK:  cpu time    0.1775: real time    0.1788
    SETDIJ:  cpu time    4.9821: real time    4.9939
    EDDIAG:  cpu time    4.3463: real time    4.7631
  RMM-DIIS:  cpu time   17.1693: real time   17.1870
    ORTHCH:  cpu time    1.2136: real time    1.2927
       DOS:  cpu time    0.0019: real time    0.0019
    CHARGE:  cpu time    1.7789: real time    1.7815
    MIXING:  cpu time    0.0009: real time    0.0010
    --------------------------------------------
      LOOP:  cpu time   29.6704: real time   30.1999

 eigenvalue-minimisations  : 18771
 total energy-change (2. order) : 0.2293097E+03  (-0.1212195E+03)
 number of electron     672.0000127 magnetization      47.9999994
 augmentation part      268.7671697 magnetization      26.5795033

 Broyden mixing:
  rms(total) = 0.13849E+02    rms(broyden)= 0.13846E+02
  rms(prec ) = 0.15559E+02
  weight for this iteration     100.00

 eigenvalues of (default mixing * dielectric matrix)
  average eigenvalue GAMMA=   0.3216
  0.3216

 Free energy of the ion-electron system (eV)
  ---------------------------------------------------
  alpha Z        PSCENC =      2652.81237852
  Ewald energy   TEWEN  =    -41677.58789773
  -Hartree energ DENC   =    -25264.76595152
  -exchange      EXHF   =         0.00000000
  -V(xc)+E(xc)   XCENC  =      3697.22006417
  PAW double counting   =     59981.26510264   -63406.88809027
  entropy T*S    EENTRO =        -0.08873031
  eigenvalues    EBANDS =    -10828.67570008
  atomic energy  EATOM  =     73862.19814772
  Solvation  Ediel_sol  =         0.00000000
  ---------------------------------------------------
  free energy    TOTEN  =      -984.51067686 eV

  energy without entropy =     -984.42194655  energy(sigma->0) =     -984.46631171


--------------------------------------------------------------------------------------------------------




--------------------------------------- Iteration      1(  14)  ---------------------------------------


    POTLOK:  cpu time    0.1768: real time    0.1769
    SETDIJ:  cpu time    4.9333: real time    4.9487
    EDDIAG:  cpu time    4.3580: real time    4.7601
  RMM-DIIS:  cpu time   17.6636: real time   17.6935
    ORTHCH:  cpu time    1.1580: real time    1.2393
       DOS:  cpu time    0.0013: real time    0.0013
    CHARGE:  cpu time    1.7814: real time    1.7828
    MIXING:  cpu time    0.0011: real time    0.0011
    --------------------------------------------
      LOOP:  cpu time   30.0736: real time   30.6039

 eigenvalue-minimisations  : 19402
 total energy-change (2. order) : 0.6896678E+02  (-0.1749350E+02)
 number of electron     672.0000088 magnetization      47.9999992
 augmentation part      246.6153737 magnetization      32.1788422

 Broyden mixing:
  rms(total) = 0.53374E+01    rms(broyden)= 0.53333E+01
  rms(prec ) = 0.57595E+01
  weight for this iteration     100.00

 eigenvalues of (default mixing * dielectric matrix)
  average eigenvalue GAMMA=   0.7346
  1.1104  0.3588

 Free energy of the ion-electron system (eV)
  ---------------------------------------------------
  alpha Z        PSCENC =      2652.81237852
  Ewald energy   TEWEN  =    -41677.58789773
  -Hartree energ DENC   =    -25877.46451982
  -exchange      EXHF   =         0.00000000
  -V(xc)+E(xc)   XCENC  =      3674.91781741
  PAW double counting   =     63404.06543922   -66887.26157145
  entropy T*S    EENTRO =        -0.00000000
  eigenvalues    EBANDS =    -10067.22369434
  atomic energy  EATOM  =     73862.19814772
  Solvation  Ediel_sol  =         0.00000000
  ---------------------------------------------------
  free energy    TOTEN  =      -915.54390046 eV

  energy without entropy =     -915.54390046  energy(sigma->0) =     -915.54390046


--------------------------------------------------------------------------------------------------------




--------------------------------------- Iteration      1(  15)  ---------------------------------------


    POTLOK:  cpu time    0.1740: real time    0.1747
    SETDIJ:  cpu time    4.9610: real time    4.9865
    EDDIAG:  cpu time    4.3548: real time    4.7642
  RMM-DIIS:  cpu time   18.1754: real time   18.1894
    ORTHCH:  cpu time    1.1575: real time    1.2388
       DOS:  cpu time    0.0016: real time    0.0016
    CHARGE:  cpu time    1.7836: real time    1.7842
    MIXING:  cpu time    0.0009: real time    0.0009
    --------------------------------------------
      LOOP:  cpu time   30.6087: real time   31.1403

 eigenvalue-minimisations  : 20255
 total energy-change (2. order) : 0.1419371E+02  (-0.1920151E+01)
 number of electron     672.0000095 magnetization      47.9999992
 augmentation part      249.6494895 magnetization      33.7991802

 Broyden mixing:
  rms(total) = 0.21687E+01    rms(broyden)= 0.21685E+01
  rms(prec ) = 0.22526E+01
  weight for this iteration     100.00

 eigenvalues of (default mixing * dielectric matrix)
  average eigenvalue GAMMA=   0.9561
  0.3858  0.7513  1.7311

 Free energy of the ion-electron system (eV)
  ---------------------------------------------------
  alpha Z        PSCENC =      2652.81237852
  Ewald energy   TEWEN  =    -41677.58789773
  -Hartree energ DENC   =    -25803.08308087
  -exchange      EXHF   =         0.00000000
  -V(xc)+E(xc)   XCENC  =      3707.89281185
  PAW double counting   =     67546.34457640   -71070.09560897
  entropy T*S    EENTRO =        -0.00000000
  eigenvalues    EBANDS =    -10119.83152088
  atomic energy  EATOM  =     73862.19814772
  Solvation  Ediel_sol  =         0.00000000
  ---------------------------------------------------
  free energy    TOTEN  =      -901.35019397 eV

  energy without entropy =     -901.35019397  energy(sigma->0) =     -901.35019397


--------------------------------------------------------------------------------------------------------




--------------------------------------- Iteration      1(  16)  ---------------------------------------


    POTLOK:  cpu time    0.1711: real time    0.1725
    SETDIJ:  cpu time    4.9822: real time    5.0520
    EDDIAG:  cpu time    4.3629: real time    4.7658
  RMM-DIIS:  cpu time   17.3286: real time   17.3677
    ORTHCH:  cpu time    1.1602: real time    1.2413
       DOS:  cpu time    0.0017: real time    0.0017
    CHARGE:  cpu time    1.7782: real time    1.7819
    MIXING:  cpu time    0.0010: real time    0.0010
    --------------------------------------------
      LOOP:  cpu time   29.7860: real time   30.3839

 eigenvalue-minimisations  : 19031
 total energy-change (2. order) :-0.1550146E+01  (-0.6640247E+00)
 number of electron     672.0000098 magnetization      47.9999993
 augmentation part      251.2025866 magnetization      33.8811240

 Broyden mixing:
  rms(total) = 0.14106E+01    rms(broyden)= 0.14101E+01
  rms(prec ) = 0.14985E+01
  weight for this iteration     100.00

 eigenvalues of (default mixing * dielectric matrix)
  average eigenvalue GAMMA=   0.9797
  2.0946  0.9031  0.3930  0.5281

 Free energy of the ion-electron system (eV)
  ---------------------------------------------------
  alpha Z        PSCENC =      2652.81237852
  Ewald energy   TEWEN  =    -41677.58789773
  -Hartree energ DENC   =    -25751.33300307
  -exchange      EXHF   =         0.00000000
  -V(xc)+E(xc)   XCENC  =      3709.09724900
  PAW double counting   =     70552.89874657   -74106.64218416
  entropy T*S    EENTRO =        -0.00000000
  eigenvalues    EBANDS =    -10144.34377700
  atomic energy  EATOM  =     73862.19814772
  Solvation  Ediel_sol  =         0.00000000
  ---------------------------------------------------
  free energy    TOTEN  =      -902.90034015 eV

  energy without entropy =     -902.90034015  energy(sigma->0) =     -902.90034015


--------------------------------------------------------------------------------------------------------




--------------------------------------- Iteration      1(  17)  ---------------------------------------


    POTLOK:  cpu time    0.1735: real time    0.1741
    SETDIJ:  cpu time    5.0246: real time    5.0499
    EDDIAG:  cpu time    4.3500: real time    4.7642
  RMM-DIIS:  cpu time   18.3490: real time   18.3882
    ORTHCH:  cpu time    1.1571: real time    1.2379
       DOS:  cpu time    0.0012: real time    0.0012
    CHARGE:  cpu time    1.7787: real time    1.7796
    MIXING:  cpu time    0.0021: real time    0.0021
    --------------------------------------------
      LOOP:  cpu time   30.8362: real time   31.3972

 eigenvalue-minimisations  : 20607
 total energy-change (2. order) : 0.1526603E+00  (-0.5907216E-01)
 number of electron     672.0000099 magnetization      47.9999994
 augmentation part      251.1270401 magnetization      33.8735929

 Broyden mixing:
  rms(total) = 0.76155E+00    rms(broyden)= 0.76145E+00
  rms(prec ) = 0.85779E+00
  weight for this iteration     100.00

 eigenvalues of (default mixing * dielectric matrix)
  average eigenvalue GAMMA=   1.0080
  2.2469  1.1431  0.3831  0.6980  0.5688

 Free energy of the ion-electron system (eV)
  ---------------------------------------------------
  alpha Z        PSCENC =      2652.81237852
  Ewald energy   TEWEN  =    -41677.58789773
  -Hartree energ DENC   =    -25742.48705666
  -exchange      EXHF   =         0.00000000
  -V(xc)+E(xc)   XCENC  =      3706.04860232
  PAW double counting   =     71396.87319345   -74958.77619358
  entropy T*S    EENTRO =        -0.00000000
  eigenvalues    EBANDS =    -10141.82885391
  atomic energy  EATOM  =     73862.19814772
  Solvation  Ediel_sol  =         0.00000000
  ---------------------------------------------------
  free energy    TOTEN  =      -902.74767987 eV

  energy without entropy =     -902.74767987  energy(sigma->0) =     -902.74767987


--------------------------------------------------------------------------------------------------------




--------------------------------------- Iteration      1(  18)  ---------------------------------------


    POTLOK:  cpu time    0.1693: real time    0.1710
    SETDIJ:  cpu time    4.9962: real time    5.0120
    EDDIAG:  cpu time    4.3916: real time    4.7930
  RMM-DIIS:  cpu time   17.6267: real time   17.6376
    ORTHCH:  cpu time    1.1551: real time    1.2378
       DOS:  cpu time    0.0011: real time    0.0011
    CHARGE:  cpu time    1.7704: real time    1.7959
    MIXING:  cpu time    0.0011: real time    0.0011
    --------------------------------------------
      LOOP:  cpu time   30.1115: real time   30.6493

 eigenvalue-minimisations  : 19033
 total energy-change (2. order) : 0.3959612E+00  (-0.7035587E-01)
 number of electron     672.0000097 magnetization      47.9999994
 augmentation part      250.6151724 magnetization      33.8362257

 Broyden mixing:
  rms(total) = 0.26544E+00    rms(broyden)= 0.26514E+00
  rms(prec ) = 0.27856E+00
  weight for this iteration     100.00

 eigenvalues of (default mixing * dielectric matrix)
  average eigenvalue GAMMA=   1.0232
  2.4674  1.3754  0.8442  0.3845  0.5902  0.4776

 Free energy of the ion-electron system (eV)
  ---------------------------------------------------
[...]
   4      -0.866    -0.541     1.407    -0.006    -0.019     0.022
   5      -0.942    -1.026     1.969    -0.072    -0.015     0.116
   6      -0.829    -0.906     1.735    -0.328     0.054     0.020
   7      -0.663    -0.929     1.592     0.172     0.054    -0.044
   8      -0.731    -1.056     1.787     0.113    -0.018     0.038
   9      -0.689    -0.781     1.470     0.193    -0.047     0.134
  10      -0.721    -0.488     1.209    -0.050    -0.093     0.022
  11      -0.577    -0.804     1.382     0.131     0.048    -0.021
  12      -0.615    -0.778     1.393     0.141     0.040    -0.065
  13      -0.964    -0.949     1.912    -0.111     0.030    -0.027
  14      -0.741    -1.112     1.853    -0.227    -0.045     0.045
  15      -0.997    -0.816     1.813    -0.093     0.047     0.026
  16      -0.529    -1.011     1.540    -0.145    -0.158    -0.067
  17       1.422     1.580    -3.002    -0.055     0.034     0.079
  18       1.311     1.610    -2.921    -0.040     0.050    -0.055
  19       1.402     1.537    -2.939    -0.016    -0.066    -0.034
  20       1.643     1.204    -2.846     0.134    -0.030     0.020
  21       1.435     1.477    -2.912     0.155    -0.097    -0.044
  22       1.551     1.465    -3.017     0.039     0.187    -0.025
  23       1.678     1.412    -3.090     0.083     0.048    -0.018
  24       1.501     1.501    -3.002     0.152    -0.160     0.062
  25       1.558    -2.131     0.573    -1.081     0.897    -0.002
  26      -1.157     1.156     0.001    -0.135    -1.207     0.764
  27       0.756     0.840    -1.596    -0.243    -0.598    -0.853
  28       0.673     0.544    -1.217     0.572     0.161    -0.366
  29      -0.514    -1.298     1.812     1.121    -0.335    -0.986
  30       0.336    -0.641     0.305     0.627    -0.041    -0.779
  31      -0.683    -0.722     1.405    -0.368     0.727     1.117
  32      -1.020    -0.791     1.811    -0.225     0.366    -0.079
  33       0.075     0.634    -0.709     0.316    -0.661    -0.013
  34       0.241    -0.619     0.378     0.458    -0.306    -0.227
  35      -1.434    -0.756     2.190     0.256    -0.006     0.478
  36      -0.894    -0.206     1.099     0.332     0.147    -0.752
  37      -0.164    -0.806     0.970    -1.199     0.318     0.520
  38      -0.241    -1.668     1.909    -1.834     0.108     0.623
  39      -0.768    -1.302     2.070     0.878    -1.062     0.550
  40      -2.146     0.066     2.080    -0.521     0.285     0.831
  41      -0.921     2.167    -1.246    -5.697     2.601    -4.180
  42      -2.968     1.980     0.988     4.457     2.562     3.869
  43       5.751    -5.626    -0.126     0.236    -4.616    -0.080
  44      -1.549     3.773    -2.225    -5.393    -3.192     2.012
  45       5.308    -6.442     1.133    -1.492     3.957    -0.608
  46      -1.809     2.092    -0.283     5.387    -1.407    -2.789
  47       0.095     0.797    -0.892    -6.422     2.396    -3.361
  48       5.379    -6.198     0.819     0.230    -5.139     2.054
  49      -4.084     1.113     2.971     3.909     2.480     4.446
  50      -3.709     4.558    -0.848    -5.002    -2.219     2.648
  51      -2.624     2.447     0.177     5.942    -3.611    -3.553
  52       4.442    -5.589     1.146    -0.816     5.234     0.629
  53      -3.089     2.235     0.854    -4.456     3.586    -3.453
  54      -4.555     2.090     2.465     4.159     2.301     3.587
  55       5.129    -4.359    -0.770    -1.509    -4.170     1.119
  56      -3.758     2.732     1.026    -4.019    -1.093     5.554
  57       5.264    -5.046    -0.218     1.317     3.109    -0.479
  58      -3.151     3.429    -0.279     4.678    -2.920    -4.085
  59      -2.673     1.339     1.334    -4.534     2.094    -4.059
  60       6.159    -6.337     0.178    -0.546    -4.299     0.458
  61      -3.563     1.838     1.725     4.107     2.395     4.286
  62      -4.675     3.511     1.165    -5.122    -2.189     4.826
  63      -3.871     1.930     1.942     4.882    -0.422    -4.407
  64       3.532    -5.218     1.686    -0.670     4.443    -0.076
  65      -2.069     2.038     0.031    -5.457     0.712    -5.708
  66      -2.544     1.824     0.720     4.703     2.277     3.480
  67       7.143    -6.179    -0.964    -0.481    -4.651     0.296
  68      -3.131     1.770     1.361    -4.571    -1.856     4.007
  69       6.649    -6.333    -0.316    -2.414     3.541    -0.867
  70      -2.437     1.065     1.372     5.254    -3.059    -5.465
  71      -3.930     2.829     1.101    -4.313     3.028    -3.705
  72       4.588    -5.829     1.241    -0.529    -4.404     1.378
  73      -3.317     1.220     2.097     5.292     3.032     4.292
  74      -4.017     3.903     0.114    -3.976    -1.580     4.488
  75      -5.165     3.493     1.672     5.175    -4.076    -3.533
  76       4.968    -6.111     1.144     0.133     5.612    -0.812
  77      -1.705     1.939    -0.234    -6.087     3.192    -3.213
  78      -3.262     1.618     1.644     3.965     2.374     4.941
  79       5.472    -6.984     1.512    -0.604    -6.190    -0.835
  80      -2.359     2.478    -0.119    -3.174    -1.681     3.520
  81       3.954    -5.857     1.904     0.028     5.199    -0.016
  82      -2.260     0.077     2.183     4.406    -1.557    -4.509
  83      -2.877     2.847     0.030    -5.479     3.825    -3.381
  84       5.472    -6.226     0.754     0.234    -5.751    -0.516
  85      -2.825     1.526     1.299     4.799     1.574     3.406
  86      -4.440     2.547     1.893    -5.733    -2.331     4.573
  87      -3.507     2.912     0.595     4.780    -3.427    -3.412
  88       6.050    -7.385     1.335    -1.710     5.438     0.180
 ---------------------------------------------------------------------


 Total hyperfine coupling parameters after diagonalization (MHz)
 (convention: |A_zz| > |A_xx| > |A_yy|)
 ----------------------------------------------------------------------
  ion      A_xx      A_yy      A_zz     asymmetry (A_yy - A_xx)/ A_zz 
 ----------------------------------------------------------------------
   1       2.048     1.626     4.220      -0.100
   2       1.762     1.425     3.672      -0.092
   3       1.025     0.456     3.042      -0.187
   4       1.584     1.259     3.533      -0.092
   5      -0.151     0.016     2.893       0.058
   6       0.756     0.095     3.029      -0.218
   7       1.876     1.440     4.048      -0.108
   8       1.381     0.984     3.863      -0.103
   9       1.981     1.579     3.998      -0.101
  10       1.971     1.714     3.664      -0.070
  11       1.816     1.470     3.717      -0.093
  12       2.089     1.761     4.019      -0.082
  13       0.125    -0.098     2.883      -0.077
  14      -0.353     0.231     2.721       0.215
  15       0.596     0.335     3.187      -0.082
  16       2.428     1.869     4.478      -0.125
  17      14.495    10.087    14.689      -0.300
  18      15.016    10.787    15.325      -0.276
  19      13.086     8.745    13.224      -0.328
  20      12.983     8.970    13.497      -0.297
  21      13.925     9.709    14.238      -0.296
  22      15.552    11.075    15.672      -0.286
  23      15.664    11.185    15.978      -0.280
  24      15.755    11.392    16.054      -0.272
  25      97.718    95.121    99.856      -0.026
  26      98.156    95.982    99.647      -0.022
  27      95.794    92.886    96.022      -0.030
  28      95.116    93.649    96.169      -0.015
  29      98.174    96.044   100.496      -0.021
  30      94.668    93.125    95.361      -0.016
  31      99.838    98.543   102.177      -0.013
  32      96.528    96.023    99.069      -0.005
  33      95.128    93.778    95.721      -0.014
  34      95.870    95.005    96.611      -0.009
  35      98.001    97.213   101.007      -0.008
  36      97.952    97.147    99.713      -0.008
  37     100.841    98.240   101.207      -0.026
  38     103.108    99.170   104.202      -0.038
  39      96.003    93.984    98.654      -0.020
  40      95.813    93.567    98.261      -0.023
  41       5.391     3.517    17.799      -0.105
  42       2.746    -0.692    12.685      -0.271
  43       3.585     0.613    14.533      -0.205
  44       6.166     2.650    16.780      -0.210
  45       8.192     2.804    17.306      -0.311
  46       5.315     1.208    13.998      -0.293
  47       7.130     3.625    18.331      -0.191
  48       7.863     2.617    18.409      -0.285
  49       4.282     0.103    14.465      -0.289
  50       6.411     2.101    16.495      -0.261
  51       4.995     0.594    16.496      -0.267
  52       4.131     0.618    14.806      -0.237
  53       6.812     2.753    16.802      -0.242
  54       3.394    -2.197    11.988      -0.466
  55       5.754     3.936    16.208      -0.112
  56       4.863     1.260    16.053      -0.224
  57       5.571     1.558    13.696      -0.293
  58       3.351     0.529    14.901      -0.189
  59       4.236     0.497    13.762      -0.272
  60       7.365     3.053    17.867      -0.241
  61       1.856    -1.768    11.946      -0.303
  62       6.977     2.083    18.613      -0.263
  63       7.032     0.546    15.298      -0.424
  64       3.624     0.230    12.687      -0.267
  65       6.523     1.031    17.142      -0.320
  66       4.369     0.687    13.644      -0.270
  67       5.539     2.417    17.898      -0.174
  68       5.885     1.674    15.185      -0.277
  69       5.450     0.469    15.819      -0.315
  70       3.605     0.501    16.430      -0.189
  71       6.203     1.773    16.103      -0.275
  72       6.044     1.583    15.417      -0.289
  73       3.269    -1.536    14.090      -0.341
  74       5.242     2.178    16.175      -0.189
  75       7.857     0.745    18.165      -0.391
  76       5.000     1.434    16.707      -0.213
  77       4.931     0.998    16.048      -0.245
  78       2.541    -0.150    13.678      -0.197
  79       7.237     2.758    19.984      -0.224
  80       4.589     3.112    13.433      -0.110
  81       4.688     1.201    15.286      -0.228
  82       4.573    -0.015    13.483      -0.340
  83       6.054     1.603    17.169      -0.259
  84       6.583     3.389    19.002      -0.168
  85       6.268     1.374    14.373      -0.340
  86       7.043     1.025    18.004      -0.334
  87       5.339     0.749    15.477      -0.297
  88       5.461    -0.223    17.204      -0.330
 ---------------------------------------------------------------------



--------------------------------------------------------------------------------------------------------


 stress matrix after NEB project (eV)
    -44.16524      1.61207      5.54161
      1.60660    -40.45177      1.49284
      5.51965      1.47664    -51.26821
  FORCES: max atom, RMS     2.511251    1.074255
  FORCE total and by dimension   10.077402    1.972192
  Stress total and by dimension   79.284986   51.268212
     LOOP+:  cpu time  762.3254: real time  777.8372
    4ORBIT:  cpu time    0.0000: real time    0.0000
 


 total charge     
 
# of ion       s       p       d       tot
------------------------------------------
    1        0.053   5.996   0.000   6.049
    2        0.049   5.990   0.000   6.039
    3        0.051   5.994   0.000   6.044
    4        0.046   5.988   0.000   6.034
    5        0.051   5.995   0.000   6.047
    6        0.055   5.998   0.000   6.053
    7        0.046   5.988   0.000   6.035
    8        0.049   5.992   0.000   6.041
    9        0.054   5.998   0.000   6.051
   10        0.050   5.992   0.000   6.042
   11        0.054   5.995   0.000   6.049
   12        0.046   5.987   0.000   6.034
   13        0.049   5.993   0.000   6.042
   14        0.053   5.997   0.000   6.049
   15        0.046   5.990   0.000   6.037
   16        0.054   5.998   0.000   6.051
   17        0.153   6.136   0.090   6.379
   18        0.147   6.122   0.079   6.348
   19        0.149   6.128   0.084   6.361
   20        0.148   6.125   0.081   6.354
   21        0.142   6.117   0.075   6.334
   22        0.151   6.133   0.089   6.373
   23        0.155   6.138   0.092   6.386
   24        0.149   6.130   0.086   6.365
   25        0.381   6.466   4.843  11.689
   26        0.363   6.428   4.802  11.593
   27        0.375   6.456   4.832  11.663
   28        0.375   6.455   4.833  11.664
   29        0.381   6.467   4.837  11.685
   30        0.381   6.466   4.837  11.684
   31        0.376   6.456   4.832  11.664
   32        0.376   6.454   4.827  11.656
   33        0.364   6.429   4.802  11.595
   34        0.388   6.481   4.858  11.727
   35        0.372   6.448   4.820  11.639
   36        0.390   6.489   4.862  11.741
   37        0.376   6.455   4.835  11.666
   38        0.375   6.453   4.836  11.664
   39        0.392   6.484   4.869  11.744
   40        0.395   6.496   4.875  11.766
   41        1.600   3.473   0.000   5.073
   42        1.597   3.498   0.000   5.095
   43        1.597   3.477   0.000   5.074
   44        1.601   3.485   0.000   5.086
   45        1.601   3.536   0.000   5.137
   46        1.596   3.506   0.000   5.102
   47        1.598   3.481   0.000   5.079
   48        1.599   3.487   0.000   5.086
   49        1.598   3.539   0.000   5.137
   50        1.598   3.479   0.000   5.077
   51        1.601   3.511   0.000   5.111
   52        1.596   3.492   0.000   5.088
   53        1.600   3.510   0.000   5.110
   54        1.598   3.519   0.000   5.117
   55        1.599   3.523   0.000   5.122
   56        1.599   3.499   0.000   5.098
   57        1.596   3.510   0.000   5.106
   58        1.598   3.504   0.000   5.102
   59        1.598   3.507   0.000   5.105
   60        1.600   3.521   0.000   5.122
   61        1.597   3.502   0.000   5.098
   62        1.602   3.525   0.000   5.126
   63        1.598   3.539   0.000   5.136
   64        1.596   3.517   0.000   5.113
   65        1.600   3.476   0.000   5.076
   66        1.596   3.528   0.000   5.125
   67        1.600   3.491   0.000   5.091
   68        1.599   3.529   0.000   5.129
   69        1.600   3.513   0.000   5.114
   70        1.603   3.530   0.000   5.133
   71        1.601   3.500   0.000   5.101
   72        1.600   3.551   0.000   5.150
   73        1.600   3.500   0.000   5.100
   74        1.597   3.485   0.000   5.082
   75        1.602   3.548   0.000   5.150
   76        1.601   3.496   0.000   5.097
   77        1.600   3.515   0.000   5.115
   78        1.599   3.503   0.000   5.102
   79        1.605   3.522   0.000   5.127
   80        1.592   3.493   0.000   5.085
   81        1.598   3.508   0.000   5.106
   82        1.598   3.528   0.000   5.126
   83        1.598   3.519   0.000   5.118
   84        1.600   3.485   0.000   5.086
   85        1.597   3.521   0.000   5.118
   86        1.603   3.522   0.000   5.126
   87        1.599   3.504   0.000   5.103
   88        1.604   3.506   0.000   5.110
--------------------------------------------------
tot         84.815 416.716  78.075 579.606
 


 magnetization (x)
 
# of ion       s       p       d       tot
------------------------------------------
    1        0.002   0.000   0.000   0.002
    2        0.002   0.000   0.000   0.002
    3        0.001  -0.000   0.000   0.001
    4        0.002  -0.000   0.000   0.002
    5        0.001   0.000   0.000   0.001
    6        0.001   0.000   0.000   0.001
    7        0.002   0.000   0.000   0.002
    8        0.001   0.001   0.000   0.002
    9        0.002   0.000   0.000   0.002
   10        0.002   0.000   0.000   0.002
   11        0.002  -0.000   0.000   0.002
   12        0.002   0.000   0.000   0.002
   13        0.001   0.000   0.000   0.001
   14        0.001   0.000   0.000   0.001
   15        0.001   0.001   0.000   0.002
   16        0.002   0.000   0.000   0.002
   17        0.007   0.002   0.001   0.010
   18        0.008   0.002   0.001   0.011
   19        0.007   0.002   0.001   0.010
   20        0.007   0.002   0.001   0.010
   21        0.007   0.002   0.001   0.010
   22        0.008   0.003   0.001   0.011
   23        0.008   0.003   0.001   0.012
   24        0.008   0.003   0.001   0.012
   25        0.016   0.031   2.743   2.790
   26        0.015   0.029   2.779   2.823
   27        0.015   0.030   2.744   2.789
   28        0.015   0.030   2.744   2.789
   29        0.016   0.030   2.750   2.797
   30        0.015   0.030   2.744   2.789
   31        0.016   0.032   2.760   2.808
   32        0.015   0.030   2.764   2.810
   33        0.014   0.028   2.782   2.825
   34        0.015   0.031   2.730   2.775
   35        0.016   0.030   2.764   2.810
   36        0.016   0.033   2.726   2.774
   37        0.016   0.031   2.751   2.798
   38        0.017   0.031   2.759   2.808
   39        0.015   0.030   2.725   2.770
   40        0.015   0.030   2.719   2.764
   41        0.002   0.033   0.000   0.036
   42        0.001   0.014   0.000   0.016
   43        0.002   0.016   0.000   0.018
   44        0.002   0.035   0.000   0.038
   45        0.002   0.054   0.000   0.057
   46        0.002   0.024   0.000   0.026
   47        0.003   0.042   0.000   0.045
   48        0.002   0.049   0.000   0.052
   49        0.002   0.032   0.000   0.033
   50        0.002   0.035   0.000   0.037
   51        0.002   0.036   0.000   0.037
   52        0.002   0.026   0.000   0.027
   53        0.002   0.043   0.000   0.045
   54        0.001   0.019   0.000   0.020
   55        0.002   0.034   0.000   0.037
   56        0.002   0.027   0.000   0.029
   57        0.002   0.021   0.000   0.023
   58        0.002   0.025   0.000   0.026
   59        0.002   0.028   0.000   0.030
   60        0.002   0.052   0.000   0.054
   61        0.001   0.010   0.000   0.011
   62        0.002   0.054   0.000   0.057
   63        0.002   0.045   0.000   0.047
   64        0.002   0.023   0.000   0.024
   65        0.002   0.030   0.000   0.033
   66        0.002   0.030   0.000   0.032
   67        0.002   0.036   0.000   0.038
   68        0.002   0.038   0.000   0.040
   69        0.002   0.038   0.000   0.040
   70        0.002   0.034   0.000   0.035
   71        0.002   0.035   0.000   0.037
   72        0.002   0.049   0.000   0.051
   73        0.002   0.019   0.000   0.021
   74        0.002   0.027   0.000   0.029
   75        0.002   0.068   0.000   0.070
   76        0.002   0.031   0.000   0.033
   77        0.002   0.031   0.000   0.033
   78        0.002   0.015   0.000   0.017
   79        0.003   0.054   0.000   0.057
   80        0.002   0.033   0.000   0.035
   81        0.002   0.030   0.000   0.032
   82        0.002   0.027   0.000   0.029
   83        0.002   0.040   0.000   0.042
   84        0.003   0.044   0.000   0.047
   85        0.002   0.028   0.000   0.030
   86        0.002   0.049   0.000   0.051
   87        0.002   0.035   0.000   0.037
   88        0.002   0.039   0.000   0.041
--------------------------------------------------
tot          0.424   2.151  43.993  46.568
 

 total amount of memory used by VASP MPI-rank0    94436. kBytes
=======================================================================

   base      :      30000. kBytes
   nonlr-proj:      13677. kBytes
   fftplans  :       1275. kBytes
   grid      :      22786. kBytes
   one-center:       2737. kBytes
   wavefun   :      23961. kBytes
 
  
  
 General timing and accounting informations for this job:
 ========================================================
  
                  Total CPU time used (sec):      783.317
                            User time (sec):      775.021
                          System time (sec):        8.296
                         Elapsed time (sec):      801.300
  
                   Maximum memory used (kb):      193496.
                   Average memory used (kb):           0.
  
                          Minor page faults:       343869
                          Major page faults:            0
                 Voluntary context switches:       266352
