 vasp.5.4.4.18Apr17-6-g9f103f2a35 (build Dec 02 2020 12:53:39) complex          
  
 executed on             LinuxIFC date 2021.08.04  01:34:24
 running on   96 total cores
 distrk:  each k-point on   96 cores,    1 groups
 distr:  one band on NCORES_PER_BAND=   1 cores,   96 groups


--------------------------------------------------------------------------------------------------------


 INCAR:
 POTCAR:    PAW_PBE Na_pv 19Sep2006               
 POTCAR:    PAW_PBE Mg_pv 13Apr2007               
 POTCAR:    PAW_PBE Mn_pv 02Aug2007               
 POTCAR:    PAW_PBE O 08Apr2002                   

 ----------------------------------------------------------------------------- 
|                                                                             |
|           W    W    AA    RRRRR   N    N  II  N    N   GGGG   !!!           |
|           W    W   A  A   R    R  NN   N  II  NN   N  G    G  !!!           |
|           W    W  A    A  R    R  N N  N  II  N N  N  G       !!!           |
|           W WW W  AAAAAA  RRRRR   N  N N  II  N  N N  G  GGG   !            |
|           WW  WW  A    A  R   R   N   NN  II  N   NN  G    G                |
|           W    W  A    A  R    R  N    N  II  N    N   GGGG   !!!           |
|                                                                             |
|      For optimal performance we recommend to set                            |
|        NCORE= 4 - approx SQRT( number of cores)                             |
|      NCORE specifies how many cores store one orbital (NPAR=cpu/NCORE).     |
|      This setting can  greatly improve the performance of VASP for DFT.     |
|      The default,   NCORE=1            might be grossly inefficient         |
|      on modern multi-core architectures or massively parallel machines.     |
|      Do your own testing !!!!                                               |
|      Unfortunately you need to use the default for GW and RPA calculations. |
|      (for HF NCORE is supported but not extensively tested yet)             |
|                                                                             |
 ----------------------------------------------------------------------------- 

 POTCAR:    PAW_PBE Na_pv 19Sep2006               
   VRHFIN =Na: p6s1                                                             
   LEXCH  = PE                                                                  
   EATOM  =   766.0439 eV,   56.3026 Ry                                         
                                                                                
   TITEL  = PAW_PBE Na_pv 19Sep2006                                             
   LULTRA =        F    use ultrasoft PP ?                                      
   IUNSCR =        1    unscreen: 0-lin 1-nonlin 2-no                           
   RPACOR =    1.800    partial core radius                                     
   POMASS =   22.990; ZVAL   =    7.000    mass and valenz                      
   RCORE  =    2.200    outmost cutoff radius                                   
   RWIGS  =    2.200; RWIGS  =    1.164    wigner-seitz radius (au A)           
   ENMAX  =  259.561; ENMIN  =  194.671 eV                                      
   ICORE  =        2    local potential                                         
   LCOR   =        T    correct aug charges                                     
   LPAW   =        T    paw PP                                                  
   EAUG   =  368.056                                                            
   DEXC   =    0.000                                                            
   RMAX   =    2.245    core radius for proj-oper                               
   RAUG   =    1.300    factor for augmentation sphere                          
   RDEP   =    2.259    radius for radial grids                                 
   RDEPT  =    1.738    core radius for aug-charge                              
                                                                                
   Atomic configuration                                                         
    5 entries                                                                   
     n  l   j            E        occ.                                          
     1  0  0.50     -1033.6933   2.0000                                         
     2  0  0.50       -56.7526   2.0000                                         
     2  1  1.50       -28.6721   6.0000                                         
     3  0  0.50        -2.7440   1.0000                                         
     3  2  1.50        -1.3606   0.0000                                         
   Description                                                                  
     l       E           TYP  RCUT    TYP  RCUT                                 
     1    -28.6720912     23  2.000                                             
     1      6.8029130     23  2.000                                             
     0     -2.7439560     23  2.200                                             
     0     34.0145650     23  2.200                                             
     2     -1.3605826     23  2.200                                             
  local pseudopotential read in
  partial core-charges read in
  partial kinetic energy density read in
  atomic valenz-charges read in
  non local Contribution for L=           1  read in
    real space projection operators read in
  non local Contribution for L=           1  read in
    real space projection operators read in
  non local Contribution for L=           0  read in
    real space projection operators read in
  non local Contribution for L=           0  read in
    real space projection operators read in
    PAW grid and wavefunctions read in
 
   number of l-projection  operators is LMAX  =           4
   number of lm-projection operators is LMMAX =           8
 
 POTCAR:    PAW_PBE Mg_pv 13Apr2007               
   VRHFIN =Mg: p6s2                                                             
   LEXCH  = PE                                                                  
   EATOM  =  1056.7344 eV,   77.6678 Ry                                         
                                                                                
   TITEL  = PAW_PBE Mg_pv 13Apr2007                                             
   LULTRA =        F    use ultrasoft PP ?                                      
   IUNSCR =        1    unscreen: 0-lin 1-nonlin 2-no                           
   RPACOR =    1.500    partial core radius                                     
   POMASS =   24.305; ZVAL   =    8.000    mass and valenz                      
   RCORE  =    2.000    outmost cutoff radius                                   
   RWIGS  =    2.000; RWIGS  =    1.058    wigner-seitz radius (au A)           
   ENMAX  =  403.929; ENMIN  =  302.947 eV                                      
   RCLOC  =    1.506    cutoff for local pot                                    
   LCOR   =        T    correct aug charges                                     
   LPAW   =        T    paw PP                                                  
   EAUG   =  758.780                                                            
   DEXC   =    0.000                                                            
   RMAX   =    2.045    core radius for proj-oper                               
   RAUG   =    1.300    factor for augmentation sphere                          
   RDEP   =    2.025    radius for radial grids                                 
   RDEPT  =    1.557    core radius for aug-charge                              
                                                                                
   Atomic configuration                                                         
    5 entries                                                                   
     n  l   j            E        occ.                                          
     1  0  0.50     -1259.6230   2.0000                                         
     2  0  0.50       -79.8442   2.0000                                         
     2  1  1.50       -46.6121   6.0000                                         
     3  0  0.50        -4.7055   2.0000                                         
     3  2  1.50        -1.3606   0.0000                                         
   Description                                                                  
     l       E           TYP  RCUT    TYP  RCUT                                 
     1    -46.6121073     23  1.600                                             
     1      2.7211652     23  1.600                                             
     0     -4.7054661     23  2.000                                             
     0     61.2262170     23  2.000                                             
     2     -1.3605826     23  2.000                                             
  local pseudopotential read in
  partial core-charges read in
  partial kinetic energy density read in
  atomic valenz-charges read in
  non local Contribution for L=           1  read in
    real space projection operators read in
  non local Contribution for L=           1  read in
    real space projection operators read in
  non local Contribution for L=           0  read in
    real space projection operators read in
  non local Contribution for L=           0  read in
    real space projection operators read in
  non local Contribution for L=           2  read in
    real space projection operators read in
    PAW grid and wavefunctions read in
 
   number of l-projection  operators is LMAX  =           5
   number of lm-projection operators is LMMAX =          13
 
 POTCAR:    PAW_PBE Mn_pv 02Aug2007               
   VRHFIN =Mn: 3p4s3d                                                           
   LEXCH  = PE                                                                  
   EATOM  =  2025.2664 eV,  148.8529 Ry                                         
                                                                                
   TITEL  = PAW_PBE Mn_pv 02Aug2007                                             
   LULTRA =        F    use ultrasoft PP ?                                      
   IUNSCR =        1    unscreen: 0-lin 1-nonlin 2-no                           
   RPACOR =    2.080    partial core radius                                     
   POMASS =   54.938; ZVAL   =   13.000    mass and valenz                      
   RCORE  =    2.300    outmost cutoff radius                                   
   RWIGS  =    2.500; RWIGS  =    1.323    wigner-seitz radius (au A)           
   ENMAX  =  269.864; ENMIN  =  202.398 eV                                      
   ICORE  =        3    local potential                                         
   LCOR   =        T    correct aug charges                                     
   LPAW   =        T    paw PP                                                  
   EAUG   =  569.085                                                            
   DEXC   =    0.000                                                            
   RMAX   =    2.343    core radius for proj-oper                               
   RAUG   =    1.300    factor for augmentation sphere                          
   RDEP   =    2.338    radius for radial grids                                 
   RDEPT  =    1.798    core radius for aug-charge                              
                                                                                
   Atomic configuration                                                         
    8 entries                                                                   
     n  l   j            E        occ.                                          
     1  0  0.50     -6424.8287   2.0000                                         
     2  0  0.50      -739.1154   2.0000                                         
     2  1  1.50      -625.3949   6.0000                                         
     3  0  0.50       -81.6100   2.0000                                         
     3  1  1.50       -50.4667   6.0000                                         
     3  2  2.50        -3.3745   6.0000                                         
     4  0  0.50        -4.1331   1.0000                                         
     4  3  2.50        -1.3606   0.0000                                         
   Description                                                                  
     l       E           TYP  RCUT    TYP  RCUT                                 
     1    -50.4666628     23  2.000                                             
     1     -1.3605826     23  2.000                                             
     2     -3.3744729     23  2.300                                             
     2     -4.7350555     23  2.300                                             
     0     -4.1331431     23  2.300                                             
     0      7.6656591     23  2.300                                             
     3      9.5240782     23  2.300                                             
  local pseudopotential read in
  partial core-charges read in
  partial kinetic energy density read in
  atomic valenz-charges read in
  non local Contribution for L=           1  read in
    real space projection operators read in
  non local Contribution for L=           1  read in
    real space projection operators read in
  non local Contribution for L=           2  read in
    real space projection operators read in
  non local Contribution for L=           2  read in
    real space projection operators read in
  non local Contribution for L=           0  read in
    real space projection operators read in
  non local Contribution for L=           0  read in
    real space projection operators read in
    PAW grid and wavefunctions read in
 
   number of l-projection  operators is LMAX  =           6
   number of lm-projection operators is LMMAX =          18
 
 POTCAR:    PAW_PBE O 08Apr2002                   
   VRHFIN =O: s2p4                                                              
   LEXCH  = PE                                                                  
   EATOM  =   432.3788 eV,   31.7789 Ry                                         
                                                                                
   TITEL  = PAW_PBE O 08Apr2002                                                 
   LULTRA =        F    use ultrasoft PP ?                                      
   IUNSCR =        1    unscreen: 0-lin 1-nonlin 2-no                           
   RPACOR =    1.200    partial core radius                                     
   POMASS =   16.000; ZVAL   =    6.000    mass and valenz                      
   RCORE  =    1.520    outmost cutoff radius                                   
   RWIGS  =    1.550; RWIGS  =    0.820    wigner-seitz radius (au A)           
   ENMAX  =  400.000; ENMIN  =  300.000 eV                                      
   ICORE  =        2    local potential                                         
   LCOR   =        T    correct aug charges                                     
   LPAW   =        T    paw PP                                                  
   EAUG   =  605.392                                                            
   DEXC   =    0.000                                                            
   RMAX   =    1.553    core radius for proj-oper                               
   RAUG   =    1.300    factor for augmentation sphere                          
   RDEP   =    1.550    radius for radial grids                                 
   RDEPT  =    1.329    core radius for aug-charge                              
                                                                                
   Atomic configuration                                                         
    4 entries                                                                   
     n  l   j            E        occ.                                          
     1  0  0.50      -514.6923   2.0000                                         
     2  0  0.50       -23.9615   2.0000                                         
     2  1  0.50        -9.0305   4.0000                                         
     3  2  1.50        -9.5241   0.0000                                         
   Description                                                                  
     l       E           TYP  RCUT    TYP  RCUT                                 
     0    -23.9615318     23  1.200                                             
     0     -9.5240782     23  1.200                                             
     1     -9.0304911     23  1.520                                             
     1      8.1634956     23  1.520                                             
     2     -9.5240782      7  1.500                                             
  local pseudopotential read in
  partial core-charges read in
  partial kinetic energy density read in
  kinetic energy density of atom read in
  atomic valenz-charges read in
  non local Contribution for L=           0  read in
    real space projection operators read in
  non local Contribution for L=           0  read in
    real space projection operators read in
  non local Contribution for L=           1  read in
    real space projection operators read in
  non local Contribution for L=           1  read in
    real space projection operators read in
    PAW grid and wavefunctions read in
 
   number of l-projection  operators is LMAX  =           4
   number of lm-projection operators is LMMAX =           8
 
 Optimization of the real space projectors (new method)

 maximal supplied QI-value         = 17.01
 optimisation between [QCUT,QGAM] = [ 10.20, 20.41] = [ 29.16,116.64] Ry 
 Optimized for a Real-space Cutoff    1.30 Angstroem

   l    n(q)    QCUT    max X(q) W(low)/X(q) W(high)/X(q)  e(spline) 
   1      7    10.205     4.940    0.23E-03    0.84E-03    0.11E-06
   1      7    10.205     6.253    0.40E-03    0.13E-02    0.18E-06
   0      8    10.205    37.438    0.23E-03    0.37E-03    0.42E-07
   0      8    10.205     9.606    0.16E-03    0.26E-03    0.31E-07
 Optimization of the real space projectors (new method)

 maximal supplied QI-value         = 18.90
 optimisation between [QCUT,QGAM] = [ 10.20, 20.41] = [ 29.16,116.64] Ry 
 Optimized for a Real-space Cutoff    1.26 Angstroem

   l    n(q)    QCUT    max X(q) W(low)/X(q) W(high)/X(q)  e(spline) 
   1      7    10.205     2.974    0.63E-04    0.14E-03    0.13E-06
   1      7    10.205     4.279    0.11E-03    0.45E-03    0.24E-06
   0      8    10.205    16.381    0.44E-03    0.15E-03    0.55E-07
   0      8    10.205     5.611    0.31E-03    0.11E-03    0.40E-07
   2      7    10.205     4.652    0.50E-03    0.47E-03    0.57E-07
 Optimization of the real space projectors (new method)

 maximal supplied QI-value         = 16.25
 optimisation between [QCUT,QGAM] = [ 10.24, 20.48] = [ 29.35,117.42] Ry 
 Optimized for a Real-space Cutoff    1.34 Angstroem

   l    n(q)    QCUT    max X(q) W(low)/X(q) W(high)/X(q)  e(spline) 
   1      8    10.239     3.658    0.23E-03    0.30E-03    0.98E-07
   1      8    10.239     5.612    0.32E-03    0.65E-03    0.21E-06
   2      7    10.239    55.373    0.42E-03    0.45E-03    0.65E-07
   2      7    10.239    50.863    0.43E-03    0.48E-03    0.67E-07
   0      8    10.239    79.536    0.11E-03    0.21E-03    0.56E-07
   0      8    10.239    38.668    0.96E-04    0.19E-03    0.52E-07
 Optimization of the real space projectors (new method)

 maximal supplied QI-value         = 24.76
 optimisation between [QCUT,QGAM] = [ 10.15, 20.30] = [ 28.85,115.39] Ry 
 Optimized for a Real-space Cutoff    1.38 Angstroem

   l    n(q)    QCUT    max X(q) W(low)/X(q) W(high)/X(q)  e(spline) 
   0      8    10.150    20.381    0.22E-03    0.32E-03    0.29E-06
   0      8    10.150    15.268    0.23E-03    0.35E-03    0.30E-06
   1      8    10.150     5.964    0.46E-03    0.53E-03    0.21E-06
   1      8    10.150     5.382    0.38E-03    0.45E-03    0.19E-06
  PAW_PBE Na_pv 19Sep2006               :
 energy of atom  1       EATOM= -766.0439
 kinetic energy error for atom=    0.0103 (will be added to EATOM!!)
  PAW_PBE Mg_pv 13Apr2007               :
 energy of atom  2       EATOM=-1056.7344
 kinetic energy error for atom=    0.0820 (will be added to EATOM!!)
  PAW_PBE Mn_pv 02Aug2007               :
 energy of atom  3       EATOM=-2025.2664
 kinetic energy error for atom=    0.0284 (will be added to EATOM!!)
  PAW_PBE O 08Apr2002                   :
 energy of atom  4       EATOM= -432.3788
 kinetic energy error for atom=    0.1156 (will be added to EATOM!!)
 
 
 POSCAR: Na Mg Mn  O                             
  positions in cartesian coordinates
  No initial velocities read in

 METAGGA = SCAN     LMAXTAU =  6    LMIXTAU =  F

 exchange correlation table for  LEXCH =        8
   RHO(1)=    0.500       N(1)  =     2000
   RHO(2)=  100.500       N(2)  =     4000

 VTST: version 3.2, (02/03/18)

 CHAIN: initializing optimizer
 
 OPT: Using VASP Dynamics algorithm
 CHAIN: Read ICHAIN            0
 
 POSCAR: Na Mg Mn  O                             
  positions in cartesian coordinates
  No initial velocities read in
 


--------------------------------------------------------------------------------------------------------


 ion  position               nearest neighbor table
   1  0.339  0.750  0.250-  77 2.31  88 2.35
   2  0.546  0.944  0.741-  56 2.20  59 2.29  46 2.30  31 2.77  29 2.84
   3  0.831  0.922  0.747-  69 2.30
   4  0.236  0.621  0.750-  84 2.23  81 2.27  80 2.28  83 2.29
   5  0.537  0.109  0.255-  42 2.26  51 2.35
   6  0.556  0.628  0.254-  74 2.26
   7  0.050  0.781  0.752-  70 2.30  73 2.33  44 2.37
   8  0.054  0.262  0.742-  61 2.19  58 2.23  80 2.35
   9  0.825  0.564  0.258-  75 2.25  66 2.31  74 2.31  36 2.86  34 2.94
  10  0.367  0.301  0.241-  78 2.20  43 2.30
  11  0.134  0.942  0.247-  67 2.24  50 2.35  41 2.35
  12  0.515  0.471  0.749-  82 2.20  85 2.35  35 2.83  33 2.89
  13  0.347  0.109  0.740-  45 2.23  44 2.23  28 2.68  26 2.91
  14  0.814  0.422  0.748-  68 2.25  71 2.32
  15  0.030  0.433  0.258-  64 2.23  86 2.27  39 2.86  37 2.97
  16  0.890  0.083  0.248-  54 2.14  63 2.18  32 2.88  30 2.92
  17  0.698  0.287  0.995-  71 1.99  49 1.99  53 2.06  66 2.08  60 2.10  43 2.10
  18  0.687  0.270  0.513-  68 2.01  57 2.03  46 2.04  62 2.05  52 2.07  75 2.09  31 2.85
  19  0.207  0.290  0.000-  41 2.02  83 2.05  78 2.08  48 2.12  55 2.14  38 2.81  33 2.82  26 2.83

  20  0.180  0.274  0.493-  50 1.96  58 2.01  64 2.04  87 2.05  80 2.13  45 2.20  32 2.76
  21  0.188  0.768  1.000-  73 1.97  84 2.02  67 2.04  77 2.06  47 2.14  37 2.72  34 2.80
  22  0.179  0.769  0.493-  76 1.99  86 2.04  51 2.09  44 2.13  70 2.14  81 2.16  39 2.80  36 2.83

  23  0.695  0.787  0.006-  54 1.99  79 2.01  72 2.03  85 2.07  65 2.07  59 2.07
  24  0.676  0.771  0.497-  88 2.00  82 2.01  56 2.05  74 2.08  63 2.10  69 2.13  31 2.80  40 2.82

  25  0.024  0.950  0.977-  72 1.84  47 1.86  61 1.86  41 1.97  67 2.00  54 2.02  34 2.88  30 2.90
                            26 2.90
  26  0.357  0.115  1.000-  41 1.82  47 1.90  48 1.91  42 1.91  49 1.94  43 1.95  19 2.83  29 2.89
                            25 2.90  13 2.91  33 2.94
  27  0.016  0.943  0.505-  58 1.85  69 1.88  63 1.88  76 1.93  50 2.00  44 2.01  32 2.79  28 2.87
                            36 2.91
  28  0.347  0.098  0.502-  44 1.83  50 1.89  52 1.91  51 1.96  46 1.99  45 2.04  13 2.68  27 2.87
                            31 2.89  35 2.90
  29  0.527  0.952  0.994-  49 1.87  59 1.90  79 1.93  53 1.95  84 2.00  42 2.09   2 2.84  30 2.86
                            26 2.89  38 2.94
  30  0.857  0.117  0.993-  54 1.84  53 1.85  60 1.90  59 1.92  55 1.93  61 2.03  29 2.86  25 2.90
                            16 2.92  37 2.93
  31  0.524  0.942  0.495-  88 1.84  46 1.87  62 1.89  56 1.92  81 1.97  51 1.98   2 2.77  24 2.80
                            18 2.85  40 2.87  28 2.89  32 2.93
  32  0.862  0.110  0.502-  64 1.88  62 1.89  58 1.91  56 1.93  63 1.93  57 1.98  20 2.76  27 2.79
                            16 2.88  39 2.93  31 2.93
  33  0.532  0.453  0.005-  78 1.85  65 1.90  85 1.93  48 1.93  71 1.94  43 1.94  19 2.82  38 2.84
                            34 2.89  12 2.89  26 2.94
  34  0.865  0.620  1.000-  71 1.88  65 1.90  72 1.91  66 1.91  67 1.93  73 2.03  21 2.80  25 2.88
                            37 2.89  33 2.89   9 2.94
  35  0.516  0.432  0.499-  52 1.86  87 1.90  45 1.93  68 1.93  74 1.94  82 2.07  12 2.83  28 2.90
                            36 2.93  40 2.98
  36  0.853  0.608  0.510-  75 1.87  68 1.91  76 1.91  70 1.94  69 1.98  74 2.01  22 2.83  39 2.85
                             9 2.86  27 2.91  35 2.93
  37  0.033  0.455  0.994-  83 1.86  77 1.88  73 1.88  55 1.90  66 1.93  60 1.94  21 2.72  38 2.88
                            34 2.89  30 2.93  15 2.97
  38  0.365  0.614  0.006-  85 1.81  79 1.85  78 1.94  83 1.95  77 1.95  84 2.00  19 2.81  33 2.84
                            37 2.88  29 2.94
  39  0.021  0.447  0.512-  80 1.84  86 1.85  57 1.88  70 1.93  75 1.93  64 1.95  22 2.80  36 2.85
                            15 2.86  40 2.86  32 2.93
  40  0.351  0.611  0.504-  81 1.83  82 1.91  88 1.93  80 1.94  86 1.95  87 1.99  24 2.82  39 2.86
                            31 2.87  35 2.98
  41  0.192  0.102  0.079-  26 1.82  25 1.97  19 2.02  11 2.35
  42  0.373  0.974  0.106-  26 1.91  29 2.09   5 2.26
  43  0.517  0.281  0.094-  33 1.94  26 1.95  17 2.10  10 2.30
  44  0.194  0.955  0.597-  28 1.83  27 2.01  22 2.13  13 2.23   7 2.37
  45  0.364  0.277  0.602-  35 1.93  28 2.04  20 2.20  13 2.23
  46  0.509  0.083  0.594-  31 1.87  28 1.99  18 2.04   2 2.30
  47  0.196  0.958  0.906-  25 1.86  26 1.90  21 2.14
  48  0.388  0.287  0.905-  26 1.91  33 1.93  19 2.12
  49  0.522  0.112  0.913-  29 1.87  26 1.94  17 1.99
  50  0.193  0.107  0.412-  28 1.89  20 1.96  27 2.00  11 2.35
  51  0.360  0.947  0.399-  28 1.96  31 1.98  22 2.09   5 2.35
  52  0.509  0.267  0.418-  35 1.86  28 1.91  18 2.07
  53  0.701  0.109  0.086-  30 1.85  29 1.95  17 2.06
  54  0.871  0.969  0.082-  30 1.84  23 1.99  25 2.02  16 2.14
  55  0.013  0.286  0.084-  37 1.90  30 1.93  19 2.14
  56  0.689  0.953  0.589-  31 1.92  32 1.93  24 2.05   2 2.20
  57  0.869  0.279  0.599-  39 1.88  32 1.98  18 2.03
  58  0.019  0.101  0.592-  27 1.85  32 1.91  20 2.01   8 2.23
  59  0.690  0.957  0.904-  29 1.90  30 1.92  23 2.07   2 2.29
  60  0.878  0.285  0.900-  30 1.90  37 1.94  17 2.10
  61  0.016  0.103  0.889-  25 1.86  30 2.03   8 2.19
  62  0.696  0.102  0.415-  31 1.89  32 1.89  18 2.05
  63  0.866  0.950  0.408-  27 1.88  32 1.93  24 2.10  16 2.18
  64  0.003  0.280  0.411-  32 1.88  39 1.95  20 2.04  15 2.23
  65  0.702  0.608  0.093-  34 1.90  33 1.90  23 2.07
  66  0.878  0.464  0.090-  34 1.91  37 1.93  17 2.08   9 2.31
  67  0.024  0.793  0.087-  34 1.93  25 2.00  21 2.04  11 2.24
  68  0.684  0.447  0.594-  36 1.91  35 1.93  18 2.01  14 2.25
  69  0.862  0.785  0.597-  27 1.88  36 1.98  24 2.13   3 2.30
  70  0.008  0.599  0.609-  39 1.93  36 1.94  22 2.14   7 2.30
  71  0.700  0.464  0.913-  34 1.88  33 1.94  17 1.99  14 2.32
  72  0.862  0.779  0.909-  25 1.84  34 1.91  23 2.03
  73  0.027  0.607  0.899-  37 1.88  21 1.97  34 2.03   7 2.33
  74  0.682  0.593  0.407-  35 1.94  36 2.01  24 2.08   6 2.26   9 2.31
  75  0.863  0.456  0.421-  36 1.87  39 1.93  18 2.09   9 2.25
  76  0.003  0.773  0.415-  36 1.91  27 1.93  22 1.99
  77  0.189  0.594  0.096-  37 1.88  38 1.95  21 2.06   1 2.31
  78  0.385  0.462  0.100-  33 1.85  38 1.94  19 2.08  10 2.20
  79  0.515  0.785  0.087-  38 1.85  29 1.93  23 2.01
  80  0.181  0.452  0.596-  39 1.84  40 1.94  20 2.13   4 2.28   8 2.35
  81  0.366  0.773  0.592-  40 1.83  31 1.97  22 2.16   4 2.27
  82  0.509  0.604  0.595-  40 1.91  24 2.01  35 2.07  12 2.20
  83  0.196  0.462  0.909-  37 1.86  38 1.95  19 2.05   4 2.29
  84  0.361  0.775  0.903-  29 2.00  38 2.00  21 2.02   4 2.23
  85  0.513  0.608  0.918-  38 1.81  33 1.93  23 2.07  12 2.35
  86  0.175  0.585  0.411-  39 1.85  40 1.95  22 2.04  15 2.27
  87  0.366  0.452  0.409-  35 1.90  40 1.99  20 2.05
  88  0.505  0.777  0.408-  31 1.84  40 1.93  24 2.00   1 2.35
 
  LATTYP: Found a hexagonal cell.
 ALAT       =    10.0190000534
 C/A-ratio  =     1.1196726572
  
  Lattice vectors:
  
 A1 = (  10.0190000534,   0.0000000000,   0.0000000000)
 A2 = (  -5.0095000267,   8.6767085668,   0.0000000000)
 A3 = (   0.0000000000,   0.0000000000,  11.2180004120)


Analysis of symmetry for initial positions (statically):
=====================================================================
 Subroutine PRICEL returns:
 Original cell was already a primitive cell.
 

 Routine SETGRP: Setting up the symmetry group for a 
 hexagonal supercell.


 Subroutine GETGRP returns: Found  1 space group operations
 (whereof  1 operations were pure point group operations)
 out of a pool of 24 trial point group operations.


The static configuration has the point symmetry C_1 .


Analysis of symmetry for dynamics (positions and initial velocities):
=====================================================================
 Subroutine PRICEL returns:
 Original cell was already a primitive cell.
 

 Routine SETGRP: Setting up the symmetry group for a 
 hexagonal supercell.


 Subroutine GETGRP returns: Found  1 space group operations
 (whereof  1 operations were pure point group operations)
 out of a pool of 24 trial point group operations.


The dynamic configuration has the point symmetry C_1 .


Analysis of structural, dynamic, and magnetic symmetry:
=====================================================================
 Subroutine PRICEL returns:
 Original cell was already a primitive cell.
 

 Routine SETGRP: Setting up the symmetry group for a 
 hexagonal supercell.


 Subroutine GETGRP returns: Found  1 space group operations
 (whereof  1 operations were pure point group operations)
 out of a pool of 24 trial point group operations.


The magnetic configuration has the point symmetry C_1 .


 Subroutine INISYM returns: Found  1 space group operations
 (whereof  1 operations are pure point group operations),
 and found     1 'primitive' translations

 
 

Automatic generation of k-mesh.
 generate k-points for:    2    2    2
Space group operators:
 irot       det(A)        alpha          n_x          n_y          n_z        tau_x        tau_y        tau_z
    1     1.000000     0.000000     1.000000     0.000000     0.000000     0.000000     0.000000     0.000000
 
 Subroutine IBZKPT returns following result:
 ===========================================
 
 Found      8 irreducible k-points:
 
 Following reciprocal coordinates:
            Coordinates               Weight
  0.000000  0.000000  0.000000      1.000000
  0.500000 -0.000000 -0.000000      1.000000
  0.000000  0.500000  0.000000      1.000000
  0.500000  0.500000 -0.000000      1.000000
  0.000000  0.000000  0.500000      1.000000
  0.500000 -0.000000  0.500000      1.000000
  0.000000  0.500000  0.500000      1.000000
  0.500000  0.500000  0.500000      1.000000
 
 Following cartesian coordinates:
            Coordinates               Weight
  0.000000  0.000000  0.000000      1.000000
  0.049905  0.028813 -0.000000      1.000000
  0.000000  0.057626  0.000000      1.000000
  0.049905  0.086438 -0.000000      1.000000
  0.000000  0.000000  0.044571      1.000000
  0.049905  0.028813  0.044571      1.000000
  0.000000  0.057626  0.044571      1.000000
  0.049905  0.086438  0.044571      1.000000
 


--------------------------------------------------------------------------------------------------------




 Dimension of arrays:
   k-points           NKPTS =      8   k-points in BZ     NKDIM =      8   number of bands    NBANDS=    480
   number of dos      NEDOS =    301   number of ions     NIONS =     88
   non local maximal  LDIM  =      6   non local SUM 2l+1 LMDIM =     18
   total plane-waves  NPLWV = 140000
   max r-space proj   IRMAX =   1632   max aug-charges    IRDMAX=   4555
   dimension x,y,z NGX =    50 NGY =   50 NGZ =   56
   dimension x,y,z NGXF=   100 NGYF=  100 NGZF=  112
   support grid    NGXF=   100 NGYF=  100 NGZF=  112
   ions per type =              16   8  16  48
   NGX,Y,Z   is equivalent  to a cutoff of   8.30,  8.30,  8.30 a.u.
   NGXF,Y,Z  is equivalent  to a cutoff of  16.59, 16.59, 16.60 a.u.

 SYSTEM =  unknown system                          
 POSCAR =  Na Mg Mn  O                             

 Startparameter for this run:
   NWRITE =      2    write-flag & timer
   PREC   = normal    normal or accurate (medium, high low for compatibility)
   ISTART =      0    job   : 0-new  1-cont  2-samecut
   ICHARG =      1    charge: 1-file 2-atom 10-const
   ISPIN  =      2    spin polarized calculation?
   LNONCOLLINEAR =      F non collinear calculations
   LSORBIT =      F    spin-orbit coupling
   INIWAV =      1    electr: 0-lowe 1-rand  2-diag
   LASPH  =      T    aspherical Exc in radial PAW
   METAGGA=      F    non-selfconsistent MetaGGA calc.

 Electronic Relaxation 1
   ENCUT  =  400.0 eV  29.40 Ry    5.42 a.u.  16.34 16.34 18.29*2*pi/ulx,y,z
   ENINI  =  400.0     initial cutoff
   ENAUG  =  758.8 eV  augmentation charge cutoff
   NELM   =    200;   NELMIN=  6; NELMDL=-12     # of ELM steps 
   EDIFF  = 0.1E-04   stopping-criterion for ELM
   LREAL  =      T    real-space projection
   NLSPLINE    = F    spline interpolate recip. space projectors
   LCOMPAT=      F    compatible to vasp.4.4
   GGA_COMPAT  = T    GGA compatible to vasp.4.4-vasp.4.6
   LMAXPAW     = -100 max onsite density
   LMAXMIX     =    4 max onsite mixed and CHGCAR
   VOSKOWN=      0    Vosko Wilk Nusair interpolation
   ROPT   =   -0.00050  -0.00050  -0.00050  -0.00050
 Ionic relaxation
   EDIFFG = 0.1E-03   stopping-criterion for IOM
   NSW    =      1    number of steps for IOM
   NBLOCK =      1;   KBLOCK =      1    inner block; outer block 
   IBRION =     -1    ionic relax: 0-MD 1-quasi-New 2-CG
   NFREE  =      0    steps in history (QN), initial steepest desc. (CG)
   ISIF   =      2    stress and relaxation
   IWAVPR =     10    prediction:  0-non 1-charg 2-wave 3-comb
   ISYM   =      2    0-nonsym 1-usesym 2-fastsym
   LCORR  =      T    Harris-Foulkes like correction to forces

   POTIM  = 0.5000    time-step for ionic-motion
   TEIN   =    0.0    initial temperature
   TEBEG  =    0.0;   TEEND  =   0.0 temperature during run
   SMASS  =  -3.00    Nose mass-parameter (am)
   estimated Nose-frequenzy (Omega)   =  0.10E-29 period in steps =****** mass=  -0.229E-26a.u.
   SCALEE = 1.0000    scale energy and forces
   NPACO  =    256;   APACO  = 16.0  distance and # of slots for P.C.
   PSTRESS=    0.0 pullay stress

  Mass of Ions in am
   POMASS =  22.99 24.30 54.94 16.00
  Ionic Valenz
   ZVAL   =   7.00  8.00 13.00  6.00
  Atomic Wigner-Seitz radii
   RWIGS  =  -1.00 -1.00 -1.00 -1.00
  virtual crystal weights 
   VCA    =   1.00  1.00  1.00  1.00
   NELECT =     672.0000    total number of electrons
   NUPDOWN=      48.0000    fix difference up-down

 DOS related values:
   EMIN   =  10.00;   EMAX   =-10.00  energy-range for DOS
   EFERMI =   0.00
   ISMEAR =     0;   SIGMA  =   0.05  broadening in eV -4-tet -1-fermi 0-gaus

 Electronic relaxation 2 (details)
   IALGO  =     48    algorithm
   LDIAG  =      T    sub-space diagonalisation (order eigenvalues)
   LSUBROT=      F    optimize rotation matrix (better conditioning)
   TURBO    =      0    0=normal 1=particle mesh
   IRESTART =      0    0=no restart 2=restart with 2 vectors
   NREBOOT  =      0    no. of reboots
   NMIN     =      0    reboot dimension
   EREF     =   0.00    reference energy to select bands
   IMIX   =      4    mixing-type and parameters
     AMIX     =   0.40;   BMIX     =  1.00
     AMIX_MAG =   1.60;   BMIX_MAG =  1.00
     AMIN     =   0.10
     WC   =   100.;   INIMIX=   1;  MIXPRE=   1;  MAXMIX= -45

 Intra band minimization:
   WEIMIN = 0.0000     energy-eigenvalue tresh-hold
   EBREAK =  0.52E-08  absolut break condition
   DEPER  =   0.30     relativ break condition  

   TIME   =   0.40     timestep for ELM

  volume/ion in A,a.u.               =      11.08        74.78
  Fermi-wavevector in a.u.,A,eV,Ry     =   1.445993  2.732531 28.448379  2.090897
  Thomas-Fermi vector in A             =   2.564112
 
 Write flags
   LWAVE        =      F    write WAVECAR
   LDOWNSAMPLE  =      F    k-point downsampling of WAVECAR
   LCHARG       =      F    write CHGCAR
   LVTOT        =      F    write LOCPOT, total local potential
   LVHAR        =      F    write LOCPOT, Hartree potential only
   LELF         =      F    write electronic localiz. function (ELF)
   LORBIT       =     11    0 simple, 1 ext, 2 COOP (PROOUT), +10 PAW based schemes


 Dipole corrections
   LMONO  =      F    monopole corrections only (constant potential shift)
   LDIPOL =      F    correct potential (dipole corrections)
   IDIPOL =      0    1-x, 2-y, 3-z, 4-all directions 
   EPSILON=  1.0000000 bulk dielectric constant

 Exchange correlation treatment:
   GGA     =    --    GGA type
   LEXCH   =     8    internal setting for exchange type
   VOSKOWN=      0    Vosko Wilk Nusair interpolation
   LHFCALC =     F    Hartree Fock is set to
   LHFONE  =     F    Hartree Fock one center treatment
   AEXX    =    0.0000 exact exchange contribution

 Linear response parameters
   LEPSILON=     F    determine dielectric tensor
   LRPA    =     F    only Hartree local field effects (RPA)
   LNABLA  =     F    use nabla operator in PAW spheres
   LVEL    =     F    velocity operator in full k-point grid
   LINTERFAST=   F  fast interpolation
   KINTER  =     0    interpolate to denser k-point grid
   CSHIFT  =0.1000    complex shift for real part using Kramers Kronig
   OMEGAMAX=  -1.0    maximum frequency
   DEG_THRESHOLD= 0.2000000E-02 threshold for treating states as degnerate
   RTIME   =   -0.100 relaxation time in fs
  (WPLASMAI=    0.000 imaginary part of plasma frequency in eV, 0.658/RTIME)
   DFIELD  = 0.0000000 0.0000000 0.0000000 field for delta impulse in time
 
 Orbital magnetization related:
   ORBITALMAG=     F  switch on orbital magnetization
   LCHIMAG   =     F  perturbation theory with respect to B field
   DQ        =  0.001000  dq finite difference perturbation B field
   LLRAUG    =     F  two centre corrections for induced B field



--------------------------------------------------------------------------------------------------------


 Static calculation
 charge density and potential will be updated during run
 spin polarized calculation
 RMM-DIIS sequential band-by-band
 perform sub-space diagonalisation
    before iterative eigenvector-optimisation
 modified Broyden-mixing scheme, WC =      100.0
 initial mixing is a Kerker type mixing with AMIX =  0.4000 and BMIX =      1.0000
 Hartree-type preconditioning will be used
 using additional bands          144
 real space projection scheme for non local part
 use partial core corrections
 calculate Harris-corrections to forces 
   (improved forces if not selfconsistent)
 use gradient corrections 
 use of overlap-Matrix (Vanderbilt PP)
 Gauss-broadening in eV      SIGMA  =   0.05


--------------------------------------------------------------------------------------------------------


  energy-cutoff  :      400.00
  volume of cell :      975.20
      direct lattice vectors                 reciprocal lattice vectors
    10.019000053  0.000000000  0.000000000     0.099810360  0.057625538 -0.000000000
    -5.009500027  8.676708567  0.000000000     0.000000000  0.115251076  0.000000000
     0.000000000  0.000000000 11.218000412     0.000000000  0.000000000  0.089142446

  length of vectors
    10.019000053 10.019000053 11.218000412     0.115251076  0.115251076  0.089142446


 
 k-points in units of 2pi/SCALE and weight: read from INCAR                         
   0.00000000  0.00000000  0.00000000       0.125
   0.04990518  0.02881277 -0.00000000       0.125
   0.00000000  0.05762554  0.00000000       0.125
   0.04990518  0.08643831 -0.00000000       0.125
   0.00000000  0.00000000  0.04457122       0.125
   0.04990518  0.02881277  0.04457122       0.125
   0.00000000  0.05762554  0.04457122       0.125
   0.04990518  0.08643831  0.04457122       0.125
 
 k-points in reciprocal lattice and weights: read from INCAR                         
   0.00000000  0.00000000  0.00000000       0.125
   0.50000000 -0.00000000 -0.00000000       0.125
   0.00000000  0.50000000  0.00000000       0.125
   0.50000000  0.50000000 -0.00000000       0.125
   0.00000000  0.00000000  0.50000000       0.125
   0.50000000 -0.00000000  0.50000000       0.125
   0.00000000  0.50000000  0.50000000       0.125
   0.50000000  0.50000000  0.50000000       0.125
 
 position of ions in fractional coordinates (direct lattice) 
   0.33943939  0.74955250  0.25028346
   0.54562107  0.94396197  0.74118289
   0.83057269  0.92186998  0.74702529
   0.23599493  0.62057156  0.74977712
   0.53672495  0.10879455  0.25480209
   0.55569210  0.62790285  0.25388571
   0.05047775  0.78062419  0.75167318
   0.05350476  0.26174672  0.74157512
   0.82500537  0.56423371  0.25757353
   0.36725061  0.30090509  0.24095471
   0.13427953  0.94243868  0.24738901
   0.51534294  0.47136060  0.74900425
   0.34674798  0.10922610  0.74045103
   0.81368292  0.42189616  0.74767692
   0.02993756  0.43326568  0.25759938
   0.88977900  0.08314120  0.24837492
   0.69844740  0.28710541  0.99535911
   0.68702057  0.26987307  0.51337848
   0.20718742  0.29046268  0.00018660
   0.18041582  0.27372015  0.49305222
   0.18799556  0.76821988  0.99985734
   0.17879947  0.76888949  0.49346584
   0.69521118  0.78708072  0.00623051
   0.67579038  0.77106773  0.49667319
   0.02385236  0.94984866  0.97691425
   0.35664766  0.11467471  0.99992339
   0.01628419  0.94326206  0.50454179
   0.34731186  0.09816499  0.50208770
   0.52748722  0.95210989  0.99381348
   0.85726171  0.11656955  0.99280617
   0.52406774  0.94201850  0.49480030
   0.86204872  0.10999424  0.50165357
   0.53200231  0.45336085  0.00549821
   0.86525069  0.61973385  0.99956687
   0.51594386  0.43248658  0.49876179
   0.85328535  0.60801397  0.50995630
   0.03301100  0.45459173  0.99385010
   0.36496293  0.61395401  0.00646431
   0.02115038  0.44710963  0.51206274
   0.35098520  0.61137354  0.50421107
   0.19198615  0.10153493  0.07891959
   0.37282292  0.97400996  0.10608843
   0.51717793  0.28056607  0.09447049
   0.19387686  0.95495804  0.59662861
   0.36410838  0.27662679  0.60187464
   0.50880319  0.08305603  0.59430823
   0.19610291  0.95847193  0.90632908
   0.38812571  0.28668359  0.90515240
   0.52240585  0.11228152  0.91288105
   0.19264714  0.10717670  0.41189783
   0.36041147  0.94718885  0.39921731
   0.50894137  0.26681777  0.41768317
   0.70058974  0.10878503  0.08584747
   0.87115636  0.96940925  0.08214539
   0.01297985  0.28561637  0.08424122
   0.68916794  0.95318766  0.58944730
   0.86942744  0.27852151  0.59899891
   0.01851976  0.10079640  0.59197003
   0.68989508  0.95653237  0.90382418
   0.87783005  0.28505625  0.90014259
   0.01551996  0.10321679  0.88865481
   0.69588182  0.10188841  0.41507041
   0.86646960  0.95002875  0.40809145
   0.00270609  0.28008432  0.41062844
   0.70166264  0.60763710  0.09260385
   0.87774976  0.46441458  0.08988500
   0.02353058  0.79270843  0.08744464
   0.68364322  0.44719262  0.59404170
   0.86233431  0.78451292  0.59673112
   0.00804599  0.59916614  0.60870563
   0.70043903  0.46379453  0.91340699
   0.86150443  0.77903043  0.90920838
   0.02678660  0.60690986  0.89945620
   0.68235602  0.59323186  0.40686841
   0.86286382  0.45591827  0.42062131
   0.00343548  0.77338658  0.41482527
   0.18873851  0.59393374  0.09639062
   0.38529893  0.46217987  0.09987074
   0.51510284  0.78497162  0.08708031
   0.18132432  0.45239851  0.59587268
   0.36593081  0.77253834  0.59208680
   0.50855576  0.60417611  0.59549294
   0.19583918  0.46163703  0.90921730
   0.36113153  0.77489407  0.90341412
   0.51254927  0.60828250  0.91765909
   0.17469826  0.58491304  0.41096540
   0.36561121  0.45206082  0.40861560
   0.50529376  0.77732471  0.40820466
 
 position of ions in cartesian coordinates  (Angst):
  -0.35403997  6.50364857  2.80768000
   0.73780005  8.19048287  8.31459000
   3.70340011  7.99879713  8.38013000
  -0.74432003  5.38451857  8.41100000
   4.83244103  0.94397857  2.85837000
   2.42199989  5.44813000  2.84809000
  -3.40480029  6.77324857  8.43227000
  -0.77515600  2.27110000  8.31899000
   5.43920013  4.89569143  2.88946000
   2.17209989  2.61086573  2.70303000
  -3.37579995  8.17726573  2.77521000
   2.80193997  4.08985857  8.40233000
   2.92689995  0.94772300  8.30638000
   6.03880037  3.66067000  8.38744000
  -1.87049995  3.75932000  2.88975000
   8.49819995  0.72139200  2.78627000
   5.55949000  2.49113000 11.16593891
   5.53133000  2.34161000  5.75908000
   0.62073800  2.52026000  0.00209325
   0.43638500  2.37499000  5.53106000
  -1.96487000  6.66562000 11.21640000
  -2.06036000  6.67143000  5.53570000
   3.02244000  6.82927000  0.06989390
   2.90808000  6.69033000  5.57168000
  -4.51929005  8.24156000 10.95902441
   2.99879000  0.99499900 11.21714097
  -4.56212005  8.18441000  5.65995000
   2.98796000  0.85174900  5.63242000
   0.51530000  8.26118000 11.14860000
   8.00495000  1.01144000 11.13730000
   0.53159300  8.17362000  5.55067000
   8.08585000  0.95438800  5.62755000
   3.05902000  3.93368000  0.06167890
   5.56439000  5.37725000 11.21314157
   3.00270000  3.75256000  5.59511000
   5.50322000  5.27556000  5.72069000
  -1.94654005  3.94436000 11.14901081
   0.58096100  5.32710000  0.07251660
  -2.02789005  3.87944000  5.74432000
   0.45384500  5.30471000  5.65624000
   1.41487000  0.88098900  0.88532000
  -1.14399003  8.45120057  1.19010000
   3.77611000  2.43439000  1.05977000
  -2.84141003  8.28589257  6.69298000
   2.26224000  2.40021000  6.75183000
   4.68163000  0.72065300  6.66695000
  -2.83671003  8.31638157 10.16720000
   2.45249000  2.48747000 10.15400000
   4.67151000  0.97423400 10.24070000
   1.39323000  0.92994100  4.62067000
  -1.13398003  8.21848157  4.47842000
   3.76246000  2.31510000  4.68557000
   6.47425000  0.94389600  0.96303700
   3.87185997  8.41128157  0.92150700
  -1.30075005  2.47821000  0.94501800
   2.12977997  8.27053157  6.61242000
   7.31554000  2.41665000  6.71957000
  -0.31939005  0.87458100  6.64072000
   2.12030997  8.29955257 10.13910000
   7.36699000  2.47335000 10.09780000
  -0.36157005  0.89558200  9.96893000
   6.46163000  0.88405600  4.65626000
   3.92198997  8.24312257  4.57797000
  -1.37597005  2.43021000  4.60643000
   3.98600000  5.27229000  1.03883000
   6.46769000  4.02959000  1.00833000
  -3.73532005  6.87810000  0.98095400
   4.60921000  3.88016000  6.66396000
   4.70971000  6.80699000  6.69413000
  -2.92091005  5.19879000  6.82846000
   4.69432000  4.02421000 10.24660000
   4.72886000  6.75942000 10.19950000
  -2.77194005  5.26598000 10.09010000
   3.86473000  5.14730000  4.56425000
   6.36111000  3.95587000  4.71853000
  -3.83986005  6.71045000  4.65351000
  -1.08434000  5.15339000  1.08131000
   1.54502000  4.01020000  1.12035000
   1.22850000  6.81097000  0.97686700
  -0.44960200  3.92533000  6.68450000
  -0.20377000  6.70309000  6.64203000
   2.06860000  5.24226000  6.68024000
  -0.35045800  4.00549000 10.19960000
  -0.26365500  6.72353000 10.13450000
   2.08804000  5.27789000 10.29430000
  -1.17982000  5.07512000  4.61021000
   1.39846000  3.92240000  4.58385000
   1.16853000  6.74462000  4.57924000
 


--------------------------------------------------------------------------------------------------------


 k-point  1 :   0.0000 0.0000 0.0000  plane waves:   17725
 k-point  2 :   0.5000-0.0000-0.0000  plane waves:   17736
 k-point  3 :   0.0000 0.5000 0.0000  plane waves:   17736
 k-point  4 :   0.5000 0.5000-0.0000  plane waves:   17736
 k-point  5 :   0.0000 0.0000 0.5000  plane waves:   17676
 k-point  6 :   0.5000-0.0000 0.5000  plane waves:   17700
 k-point  7 :   0.0000 0.5000 0.5000  plane waves:   17700
 k-point  8 :   0.5000 0.5000 0.5000  plane waves:   17700

 maximum and minimum number of plane-waves per node :     17736    17676

 maximum number of plane-waves:     17736
 maximum index in each direction: 
   IXMAX=   16   IYMAX=   16   IZMAX=   18
   IXMIN=  -16   IYMIN=  -16   IZMIN=  -18


 serial   3D FFT for wavefunctions
 parallel 3D FFT for charge:
    minimum data exchange during FFTs selected (reduces bandwidth)


 total amount of memory used by VASP MPI-rank0    94431. kBytes
=======================================================================

   base      :      30000. kBytes
   nonlr-proj:      13672. kBytes
   fftplans  :       1275. kBytes
   grid      :      22786. kBytes
   one-center:       2737. kBytes
   wavefun   :      23961. kBytes
 
     INWAV:  cpu time    0.0000: real time    0.0001
 Broyden mixing: mesh for mixing (old mesh)
   NGX = 33   NGY = 33   NGZ = 37
  (NGX  =100   NGY  =100   NGZ  =112)
  gives a total of  40293 points

 initial charge density was supplied:
 charge density of overlapping atoms calculated
 number of electron     672.0000000 magnetization      48.0000000
 keeping initial charge density in first step


--------------------------------------------------------------------------------------------------------


 Maximum index for non-local projection operator         1548
 Maximum index for augmentation-charges          484 (set IRDMAX)


--------------------------------------------------------------------------------------------------------


 First call to EWALD:  gamma=   0.179
 Maximum number of real-space cells 3x 3x 2
 Maximum number of reciprocal cells 3x 3x 3

    FEWALD:  cpu time    0.0027: real time    0.0027


--------------------------------------- Iteration      1(   1)  ---------------------------------------


    POTLOK:  cpu time    0.1888: real time    0.1905
    SETDIJ:  cpu time    4.6151: real time    4.6175
    EDDIAG:  cpu time    4.5180: real time    4.9214
  RMM-DIIS:  cpu time    9.1259: real time    9.1338
    ORTHCH:  cpu time    1.1707: real time    1.2559
       DOS:  cpu time    0.0020: real time    0.0021
    --------------------------------------------
      LOOP:  cpu time   19.6205: real time   20.1213

 eigenvalue-minimisations  :  7680
 total energy-change (2. order) : 0.1550472E+04  (-0.3497965E+05)
 number of electron     672.0000000 magnetization      48.0000000
 augmentation part      672.0000000 magnetization      48.0000000

 Free energy of the ion-electron system (eV)
  ---------------------------------------------------
  alpha Z        PSCENC =      2652.81237852
  Ewald energy   TEWEN  =    -41634.07219300
  -Hartree energ DENC   =    -25965.69583285
  -exchange      EXHF   =         0.00000000
  -V(xc)+E(xc)   XCENC  =      3606.81256340
  PAW double counting   =     55594.23204139   -59034.67079123
  entropy T*S    EENTRO =        -0.03807634
  eigenvalues    EBANDS =     -7531.10637323
  atomic energy  EATOM  =     73862.19814772
  Solvation  Ediel_sol  =         0.00000000
  ---------------------------------------------------
  free energy    TOTEN  =      1550.47186438 eV

  energy without entropy =     1550.50994073  energy(sigma->0) =     1550.49090256


--------------------------------------------------------------------------------------------------------




--------------------------------------- Iteration      1(   2)  ---------------------------------------


    EDDIAG:  cpu time    4.4189: real time    4.8182
  RMM-DIIS:  cpu time    9.1197: real time    9.1424
    ORTHCH:  cpu time    1.1707: real time    1.2541
       DOS:  cpu time    0.0020: real time    0.0020
    --------------------------------------------
      LOOP:  cpu time   14.7112: real time   15.2167

 eigenvalue-minimisations  :  7680
 total energy-change (2. order) :-0.2266591E+04  (-0.8015301E+04)
 number of electron     672.0000000 magnetization      48.0000000
 augmentation part      672.0000000 magnetization      48.0000000

 Free energy of the ion-electron system (eV)
  ---------------------------------------------------
  alpha Z        PSCENC =      2652.81237852
  Ewald energy   TEWEN  =    -41634.07219300
  -Hartree energ DENC   =    -25965.69583285
  -exchange      EXHF   =         0.00000000
  -V(xc)+E(xc)   XCENC  =      3606.81256340
  PAW double counting   =     55594.23204139   -59034.67079123
  entropy T*S    EENTRO =        -0.03392700
  eigenvalues    EBANDS =     -9797.70185140
  atomic energy  EATOM  =     73862.19814772
  Solvation  Ediel_sol  =         0.00000000
  ---------------------------------------------------
  free energy    TOTEN  =      -716.11946444 eV

  energy without entropy =     -716.08553745  energy(sigma->0) =     -716.10250095


--------------------------------------------------------------------------------------------------------




--------------------------------------- Iteration      1(   3)  ---------------------------------------


    EDDIAG:  cpu time    4.5024: real time    4.9308
  RMM-DIIS:  cpu time    9.1458: real time    9.1600
    ORTHCH:  cpu time    1.1747: real time    1.2548
       DOS:  cpu time    0.0034: real time    0.0034
    --------------------------------------------
      LOOP:  cpu time   14.8263: real time   15.3489

 eigenvalue-minimisations  :  7680
 total energy-change (2. order) : 0.7337865E+02  (-0.1422013E+04)
 number of electron     672.0000000 magnetization      48.0000000
 augmentation part      672.0000000 magnetization      48.0000000

 Free energy of the ion-electron system (eV)
  ---------------------------------------------------
  alpha Z        PSCENC =      2652.81237852
  Ewald energy   TEWEN  =    -41634.07219300
  -Hartree energ DENC   =    -25965.69583285
  -exchange      EXHF   =         0.00000000
  -V(xc)+E(xc)   XCENC  =      3606.81256340
  PAW double counting   =     55594.23204139   -59034.67079123
  entropy T*S    EENTRO =        -0.03840071
  eigenvalues    EBANDS =     -9724.31872995
  atomic energy  EATOM  =     73862.19814772
  Solvation  Ediel_sol  =         0.00000000
  ---------------------------------------------------
  free energy    TOTEN  =      -642.74081671 eV

  energy without entropy =     -642.70241599  energy(sigma->0) =     -642.72161635


--------------------------------------------------------------------------------------------------------




--------------------------------------- Iteration      1(   4)  ---------------------------------------


    EDDIAG:  cpu time    4.4417: real time    4.8310
  RMM-DIIS:  cpu time    9.1351: real time    9.1540
    ORTHCH:  cpu time    1.1910: real time    1.2841
       DOS:  cpu time    0.0012: real time    0.0012
    --------------------------------------------
      LOOP:  cpu time   14.7689: real time   15.2703

 eigenvalue-minimisations  :  7680
 total energy-change (2. order) :-0.4680594E+03  (-0.4301630E+03)
 number of electron     672.0000000 magnetization      48.0000000
 augmentation part      672.0000000 magnetization      48.0000000

 Free energy of the ion-electron system (eV)
  ---------------------------------------------------
  alpha Z        PSCENC =      2652.81237852
  Ewald energy   TEWEN  =    -41634.07219300
  -Hartree energ DENC   =    -25965.69583285
  -exchange      EXHF   =         0.00000000
  -V(xc)+E(xc)   XCENC  =      3606.81256340
  PAW double counting   =     55594.23204139   -59034.67079123
  entropy T*S    EENTRO =        -0.00000000
  eigenvalues    EBANDS =    -10192.41648800
  atomic energy  EATOM  =     73862.19814772
  Solvation  Ediel_sol  =         0.00000000
  ---------------------------------------------------
  free energy    TOTEN  =     -1110.80017404 eV

  energy without entropy =    -1110.80017404  energy(sigma->0) =    -1110.80017404


--------------------------------------------------------------------------------------------------------




--------------------------------------- Iteration      1(   5)  ---------------------------------------


    EDDIAG:  cpu time    4.5270: real time    4.9319
  RMM-DIIS:  cpu time    9.1436: real time    9.1475
    ORTHCH:  cpu time    1.1724: real time    1.2534
       DOS:  cpu time    0.0019: real time    0.0019
    --------------------------------------------
      LOOP:  cpu time   14.8450: real time   15.3348

 eigenvalue-minimisations  :  7680
 total energy-change (2. order) :-0.1042220E+03  (-0.1598990E+03)
 number of electron     672.0000000 magnetization      48.0000000
 augmentation part      672.0000000 magnetization      48.0000000

 Free energy of the ion-electron system (eV)
  ---------------------------------------------------
  alpha Z        PSCENC =      2652.81237852
  Ewald energy   TEWEN  =    -41634.07219300
  -Hartree energ DENC   =    -25965.69583285
  -exchange      EXHF   =         0.00000000
  -V(xc)+E(xc)   XCENC  =      3606.81256340
  PAW double counting   =     55594.23204139   -59034.67079123
  entropy T*S    EENTRO =        -0.00000000
  eigenvalues    EBANDS =    -10296.63848384
  atomic energy  EATOM  =     73862.19814772
  Solvation  Ediel_sol  =         0.00000000
  ---------------------------------------------------
  free energy    TOTEN  =     -1215.02216989 eV

  energy without entropy =    -1215.02216989  energy(sigma->0) =    -1215.02216989


--------------------------------------------------------------------------------------------------------




--------------------------------------- Iteration      1(   6)  ---------------------------------------


    EDDIAG:  cpu time    4.4178: real time    4.8399
  RMM-DIIS:  cpu time    9.1395: real time    9.1464
    ORTHCH:  cpu time    1.1850: real time    1.2774
       DOS:  cpu time    0.0012: real time    0.0012
    --------------------------------------------
      LOOP:  cpu time   14.7435: real time   15.2649

 eigenvalue-minimisations  :  7680
 total energy-change (2. order) :-0.8974131E+01  (-0.7944487E+02)
 number of electron     672.0000000 magnetization      48.0000000
 augmentation part      672.0000000 magnetization      48.0000000

 Free energy of the ion-electron system (eV)
  ---------------------------------------------------
  alpha Z        PSCENC =      2652.81237852
  Ewald energy   TEWEN  =    -41634.07219300
  -Hartree energ DENC   =    -25965.69583285
  -exchange      EXHF   =         0.00000000
  -V(xc)+E(xc)   XCENC  =      3606.81256340
  PAW double counting   =     55594.23204139   -59034.67079123
  entropy T*S    EENTRO =        -0.00000000
  eigenvalues    EBANDS =    -10305.61261439
  atomic energy  EATOM  =     73862.19814772
  Solvation  Ediel_sol  =         0.00000000
  ---------------------------------------------------
  free energy    TOTEN  =     -1223.99630044 eV

  energy without entropy =    -1223.99630044  energy(sigma->0) =    -1223.99630044


--------------------------------------------------------------------------------------------------------




--------------------------------------- Iteration      1(   7)  ---------------------------------------


    EDDIAG:  cpu time    4.5001: real time    4.9016
  RMM-DIIS:  cpu time    9.1350: real time    9.1425
    ORTHCH:  cpu time    1.1762: real time    1.2590
       DOS:  cpu time    0.0030: real time    0.0030
    --------------------------------------------
      LOOP:  cpu time   14.8143: real time   15.3061

 eigenvalue-minimisations  :  7680
 total energy-change (2. order) :-0.1786206E+01  (-0.4846752E+02)
 number of electron     672.0000000 magnetization      48.0000000
 augmentation part      672.0000000 magnetization      48.0000000

 Free energy of the ion-electron system (eV)
  ---------------------------------------------------
  alpha Z        PSCENC =      2652.81237852
  Ewald energy   TEWEN  =    -41634.07219300
  -Hartree energ DENC   =    -25965.69583285
  -exchange      EXHF   =         0.00000000
  -V(xc)+E(xc)   XCENC  =      3606.81256340
  PAW double counting   =     55594.23204139   -59034.67079123
  entropy T*S    EENTRO =        -0.00000000
  eigenvalues    EBANDS =    -10307.39882016
  atomic energy  EATOM  =     73862.19814772
  Solvation  Ediel_sol  =         0.00000000
  ---------------------------------------------------
  free energy    TOTEN  =     -1225.78250621 eV

  energy without entropy =    -1225.78250621  energy(sigma->0) =    -1225.78250621


--------------------------------------------------------------------------------------------------------




--------------------------------------- Iteration      1(   8)  ---------------------------------------


    EDDIAG:  cpu time    4.4259: real time    4.8250
  RMM-DIIS:  cpu time    9.1227: real time    9.1560
    ORTHCH:  cpu time    1.1715: real time    1.2528
       DOS:  cpu time    0.0013: real time    0.0013
    --------------------------------------------
      LOOP:  cpu time   14.7215: real time   15.2350

 eigenvalue-minimisations  :  7680
 total energy-change (2. order) : 0.5005549E+01  (-0.3015843E+02)
 number of electron     672.0000000 magnetization      48.0000000
 augmentation part      672.0000000 magnetization      48.0000000

 Free energy of the ion-electron system (eV)
  ---------------------------------------------------
  alpha Z        PSCENC =      2652.81237852
  Ewald energy   TEWEN  =    -41634.07219300
  -Hartree energ DENC   =    -25965.69583285
  -exchange      EXHF   =         0.00000000
  -V(xc)+E(xc)   XCENC  =      3606.81256340
  PAW double counting   =     55594.23204139   -59034.67079123
  entropy T*S    EENTRO =        -0.00000000
  eigenvalues    EBANDS =    -10302.39327068
  atomic energy  EATOM  =     73862.19814772
  Solvation  Ediel_sol  =         0.00000000
  ---------------------------------------------------
  free energy    TOTEN  =     -1220.77695672 eV

  energy without entropy =    -1220.77695672  energy(sigma->0) =    -1220.77695672


--------------------------------------------------------------------------------------------------------




--------------------------------------- Iteration      1(   9)  ---------------------------------------


    EDDIAG:  cpu time    4.4653: real time    4.8773
  RMM-DIIS:  cpu time   19.2614: real time   19.2780
    ORTHCH:  cpu time    1.1704: real time    1.2542
       DOS:  cpu time    0.0016: real time    0.0016
    --------------------------------------------
      LOOP:  cpu time   24.8986: real time   25.4110

 eigenvalue-minimisations  : 21769
 total energy-change (2. order) : 0.9364957E+01  (-0.1330590E+02)
 number of electron     672.0000000 magnetization      48.0000000
 augmentation part      672.0000000 magnetization      48.0000000

 Free energy of the ion-electron system (eV)
  ---------------------------------------------------
  alpha Z        PSCENC =      2652.81237852
  Ewald energy   TEWEN  =    -41634.07219300
  -Hartree energ DENC   =    -25965.69583285
  -exchange      EXHF   =         0.00000000
  -V(xc)+E(xc)   XCENC  =      3606.81256340
  PAW double counting   =     55594.23204139   -59034.67079123
  entropy T*S    EENTRO =        -0.00000000
  eigenvalues    EBANDS =    -10293.02831357
  atomic energy  EATOM  =     73862.19814772
  Solvation  Ediel_sol  =         0.00000000
  ---------------------------------------------------
  free energy    TOTEN  =     -1211.41199962 eV

  energy without entropy =    -1211.41199962  energy(sigma->0) =    -1211.41199962


--------------------------------------------------------------------------------------------------------




--------------------------------------- Iteration      1(  10)  ---------------------------------------


    EDDIAG:  cpu time    4.4444: real time    4.8499
  RMM-DIIS:  cpu time   17.9389: real time   17.9509
    ORTHCH:  cpu time    1.1682: real time    1.2532
       DOS:  cpu time    0.0020: real time    0.0020
    --------------------------------------------
      LOOP:  cpu time   23.5534: real time   24.0560

 eigenvalue-minimisations  : 19732
 total energy-change (2. order) :-0.1897182E+01  (-0.5308781E+00)
 number of electron     672.0000000 magnetization      48.0000000
 augmentation part      672.0000000 magnetization      48.0000000

 Free energy of the ion-electron system (eV)
  ---------------------------------------------------
  alpha Z        PSCENC =      2652.81237852
  Ewald energy   TEWEN  =    -41634.07219300
  -Hartree energ DENC   =    -25965.69583285
  -exchange      EXHF   =         0.00000000
  -V(xc)+E(xc)   XCENC  =      3606.81256340
  PAW double counting   =     55594.23204139   -59034.67079123
  entropy T*S    EENTRO =        -0.00000001
  eigenvalues    EBANDS =    -10294.92549554
  atomic energy  EATOM  =     73862.19814772
  Solvation  Ediel_sol  =         0.00000000
  ---------------------------------------------------
  free energy    TOTEN  =     -1213.30918160 eV

  energy without entropy =    -1213.30918159  energy(sigma->0) =    -1213.30918160


--------------------------------------------------------------------------------------------------------




--------------------------------------- Iteration      1(  11)  ---------------------------------------


    EDDIAG:  cpu time    4.5064: real time    4.8916
  RMM-DIIS:  cpu time   20.0171: real time   20.0793
    ORTHCH:  cpu time    1.1742: real time    1.2532
       DOS:  cpu time    0.0026: real time    0.0026
    --------------------------------------------
      LOOP:  cpu time   25.7002: real time   26.2267

 eigenvalue-minimisations  : 22629
 total energy-change (2. order) : 0.7108872E-01  (-0.4324049E-01)
 number of electron     672.0000000 magnetization      48.0000000
 augmentation part      672.0000000 magnetization      48.0000000

 Free energy of the ion-electron system (eV)
  ---------------------------------------------------
  alpha Z        PSCENC =      2652.81237852
  Ewald energy   TEWEN  =    -41634.07219300
  -Hartree energ DENC   =    -25965.69583285
  -exchange      EXHF   =         0.00000000
  -V(xc)+E(xc)   XCENC  =      3606.81256340
  PAW double counting   =     55594.23204139   -59034.67079123
  entropy T*S    EENTRO =        -0.00000002
  eigenvalues    EBANDS =    -10294.85440682
  atomic energy  EATOM  =     73862.19814772
  Solvation  Ediel_sol  =         0.00000000
  ---------------------------------------------------
  free energy    TOTEN  =     -1213.23809288 eV

  energy without entropy =    -1213.23809287  energy(sigma->0) =    -1213.23809287


--------------------------------------------------------------------------------------------------------




--------------------------------------- Iteration      1(  12)  ---------------------------------------


    EDDIAG:  cpu time    4.4199: real time    4.8267
  RMM-DIIS:  cpu time   21.6807: real time   21.7757
    ORTHCH:  cpu time    1.1728: real time    1.2553
       DOS:  cpu time    0.0013: real time    0.0013
    CHARGE:  cpu time    1.7980: real time    1.7987
    MIXING:  cpu time    0.0012: real time    0.0014
    --------------------------------------------
      LOOP:  cpu time   29.0739: real time   29.6591

 eigenvalue-minimisations  : 24379
 total energy-change (2. order) :-0.8249027E-03  (-0.4276557E-02)
 number of electron     671.9999998 magnetization      48.0000011
 augmentation part      239.1869095 magnetization      29.0527541

 Broyden mixing:
  rms(total) = 0.12728E+02    rms(broyden)= 0.12719E+02
  rms(prec ) = 0.14545E+02
  weight for this iteration     100.00

 Free energy of the ion-electron system (eV)
  ---------------------------------------------------
  alpha Z        PSCENC =      2652.81237852
  Ewald energy   TEWEN  =    -41634.07219300
  -Hartree energ DENC   =    -25965.69583285
  -exchange      EXHF   =         0.00000000
  -V(xc)+E(xc)   XCENC  =      3606.81256340
  PAW double counting   =     55594.23204139   -59034.67079123
  entropy T*S    EENTRO =        -0.00000002
  eigenvalues    EBANDS =    -10294.85523172
  atomic energy  EATOM  =     73862.19814772
  Solvation  Ediel_sol  =         0.00000000
  ---------------------------------------------------
  free energy    TOTEN  =     -1213.23891778 eV

  energy without entropy =    -1213.23891777  energy(sigma->0) =    -1213.23891778


--------------------------------------------------------------------------------------------------------




--------------------------------------- Iteration      1(  13)  ---------------------------------------


    POTLOK:  cpu time    0.1721: real time    0.1733
    SETDIJ:  cpu time    4.9575: real time    4.9593
    EDDIAG:  cpu time    4.4398: real time    4.8379
  RMM-DIIS:  cpu time   17.3413: real time   17.3829
    ORTHCH:  cpu time    1.1722: real time    1.2514
       DOS:  cpu time    0.0015: real time    0.0015
    CHARGE:  cpu time    1.8073: real time    1.8079
    MIXING:  cpu time    0.0009: real time    0.0009
    --------------------------------------------
      LOOP:  cpu time   29.8926: real time   30.4152

 eigenvalue-minimisations  : 18803
 total energy-change (2. order) : 0.2290736E+03  (-0.1211458E+03)
 number of electron     672.0000078 magnetization      48.0000010
 augmentation part      268.5774045 magnetization      26.7230855

 Broyden mixing:
  rms(total) = 0.13818E+02    rms(broyden)= 0.13815E+02
  rms(prec ) = 0.15504E+02
  weight for this iteration     100.00

 eigenvalues of (default mixing * dielectric matrix)
  average eigenvalue GAMMA=   0.3218
  0.3218

 Free energy of the ion-electron system (eV)
  ---------------------------------------------------
  alpha Z        PSCENC =      2652.81237852
  Ewald energy   TEWEN  =    -41634.07219300
  -Hartree energ DENC   =    -25305.18760697
  -exchange      EXHF   =         0.00000000
  -V(xc)+E(xc)   XCENC  =      3697.46363129
  PAW double counting   =     60029.97002403   -63455.68333901
  entropy T*S    EENTRO =        -0.08058508
  eigenvalues    EBANDS =    -10831.58581888
  atomic energy  EATOM  =     73862.19814772
  Solvation  Ediel_sol  =         0.00000000
  ---------------------------------------------------
  free energy    TOTEN  =      -984.16536136 eV

  energy without entropy =     -984.08477629  energy(sigma->0) =     -984.12506882


--------------------------------------------------------------------------------------------------------




--------------------------------------- Iteration      1(  14)  ---------------------------------------


    POTLOK:  cpu time    0.1743: real time    0.1755
    SETDIJ:  cpu time    4.9462: real time    4.9472
    EDDIAG:  cpu time    4.4281: real time    4.8263
  RMM-DIIS:  cpu time   18.0097: real time   18.0440
    ORTHCH:  cpu time    1.1710: real time    1.2534
       DOS:  cpu time    0.0011: real time    0.0011
    CHARGE:  cpu time    1.8021: real time    1.8049
    MIXING:  cpu time    0.0010: real time    0.0010
    --------------------------------------------
      LOOP:  cpu time   30.5336: real time   31.0533

 eigenvalue-minimisations  : 19379
 total energy-change (2. order) : 0.6880028E+02  (-0.1732551E+02)
 number of electron     672.0000022 magnetization      48.0000016
 augmentation part      246.6844386 magnetization      32.1835689

 Broyden mixing:
  rms(total) = 0.53700E+01    rms(broyden)= 0.53660E+01
  rms(prec ) = 0.57802E+01
  weight for this iteration     100.00

 eigenvalues of (default mixing * dielectric matrix)
  average eigenvalue GAMMA=   0.7375
  1.1154  0.3596

 Free energy of the ion-electron system (eV)
  ---------------------------------------------------
  alpha Z        PSCENC =      2652.81237852
  Ewald energy   TEWEN  =    -41634.07219300
  -Hartree energ DENC   =    -25916.55998038
  -exchange      EXHF   =         0.00000000
  -V(xc)+E(xc)   XCENC  =      3675.42659086
  PAW double counting   =     63469.16292392   -66952.45899194
  entropy T*S    EENTRO =        -0.00000000
  eigenvalues    EBANDS =    -10071.87395743
  atomic energy  EATOM  =     73862.19814772
  Solvation  Ediel_sol  =         0.00000000
  ---------------------------------------------------
  free energy    TOTEN  =      -915.36508172 eV

  energy without entropy =     -915.36508172  energy(sigma->0) =     -915.36508172


--------------------------------------------------------------------------------------------------------




--------------------------------------- Iteration      1(  15)  ---------------------------------------


    POTLOK:  cpu time    0.1742: real time    0.1743
    SETDIJ:  cpu time    4.9581: real time    4.9589
    EDDIAG:  cpu time    4.4739: real time    4.8811
  RMM-DIIS:  cpu time   18.2782: real time   18.3012
    ORTHCH:  cpu time    1.1701: real time    1.2543
       DOS:  cpu time    0.0014: real time    0.0014
    CHARGE:  cpu time    1.8014: real time    1.8023
    MIXING:  cpu time    0.0014: real time    0.0014
    --------------------------------------------
      LOOP:  cpu time   30.8586: real time   31.3749

 eigenvalue-minimisations  : 20265
 total energy-change (2. order) : 0.1400244E+02  (-0.1838436E+01)
 number of electron     672.0000032 magnetization      48.0000023
 augmentation part      249.6348332 magnetization      33.7680750

 Broyden mixing:
  rms(total) = 0.21713E+01    rms(broyden)= 0.21711E+01
  rms(prec ) = 0.22574E+01
  weight for this iteration     100.00

 eigenvalues of (default mixing * dielectric matrix)
  average eigenvalue GAMMA=   0.9665
  0.3876  0.7549  1.7571

 Free energy of the ion-electron system (eV)
  ---------------------------------------------------
  alpha Z        PSCENC =      2652.81237852
  Ewald energy   TEWEN  =    -41634.07219300
  -Hartree energ DENC   =    -25845.46546479
  -exchange      EXHF   =         0.00000000
  -V(xc)+E(xc)   XCENC  =      3708.12459513
  PAW double counting   =     67652.96481717   -71176.98720371
  entropy T*S    EENTRO =        -0.00000000
  eigenvalues    EBANDS =    -10120.93771597
  atomic energy  EATOM  =     73862.19814772
  Solvation  Ediel_sol  =         0.00000000
  ---------------------------------------------------
  free energy    TOTEN  =      -901.36263893 eV

  energy without entropy =     -901.36263893  energy(sigma->0) =     -901.36263893


--------------------------------------------------------------------------------------------------------




--------------------------------------- Iteration      1(  16)  ---------------------------------------


    POTLOK:  cpu time    0.1681: real time    0.1689
    SETDIJ:  cpu time    5.0116: real time    5.0125
    EDDIAG:  cpu time    4.4317: real time    4.8256
  RMM-DIIS:  cpu time   17.4356: real time   17.5236
    ORTHCH:  cpu time    1.1707: real time    1.2570
       DOS:  cpu time    0.0011: real time    0.0011
    CHARGE:  cpu time    1.8025: real time    1.8032
    MIXING:  cpu time    0.0010: real time    0.0010
    --------------------------------------------
      LOOP:  cpu time   30.0223: real time   30.5930

 eigenvalue-minimisations  : 19064
 total energy-change (2. order) :-0.1543877E+01  (-0.6696544E+00)
 number of electron     672.0000037 magnetization      48.0000025
 augmentation part      251.2120446 magnetization      33.8338381

 Broyden mixing:
  rms(total) = 0.14003E+01    rms(broyden)= 0.13997E+01
  rms(prec ) = 0.14905E+01
  weight for this iteration     100.00

 eigenvalues of (default mixing * dielectric matrix)
  average eigenvalue GAMMA=   0.9817
  2.1024  0.9009  0.3952  0.5282

 Free energy of the ion-electron system (eV)
  ---------------------------------------------------
  alpha Z        PSCENC =      2652.81237852
  Ewald energy   TEWEN  =    -41634.07219300
  -Hartree energ DENC   =    -25792.59296256
  -exchange      EXHF   =         0.00000000
  -V(xc)+E(xc)   XCENC  =      3709.45318900
  PAW double counting   =     70732.93003738   -74287.45807599
  entropy T*S    EENTRO =        -0.00000000
  eigenvalues    EBANDS =    -10146.17703702
  atomic energy  EATOM  =     73862.19814772
  Solvation  Ediel_sol  =         0.00000000
  ---------------------------------------------------
  free energy    TOTEN  =      -902.90651595 eV

  energy without entropy =     -902.90651595  energy(sigma->0) =     -902.90651595


--------------------------------------------------------------------------------------------------------




--------------------------------------- Iteration      1(  17)  ---------------------------------------


    POTLOK:  cpu time    0.1739: real time    0.1745
    SETDIJ:  cpu time    5.0137: real time    5.0146
    EDDIAG:  cpu time    4.3948: real time    4.8128
  RMM-DIIS:  cpu time   18.5887: real time   18.6867
    ORTHCH:  cpu time    1.1719: real time    1.2573
       DOS:  cpu time    0.0014: real time    0.0014
    CHARGE:  cpu time    1.7924: real time    1.7929
    MIXING:  cpu time    0.0018: real time    0.0018
    --------------------------------------------
      LOOP:  cpu time   31.1385: real time   31.7421

 eigenvalue-minimisations  : 20525
 total energy-change (2. order) : 0.1866209E+00  (-0.5780826E-01)
 number of electron     672.0000037 magnetization      48.0000027
 augmentation part      251.1121287 magnetization      33.8252775

 Broyden mixing:
  rms(total) = 0.75021E+00    rms(broyden)= 0.75012E+00
  rms(prec ) = 0.84388E+00
  weight for this iteration     100.00

 eigenvalues of (default mixing * dielectric matrix)
  average eigenvalue GAMMA=   1.0068
  2.2511  1.1344  0.3849  0.6918  0.5717

 Free energy of the ion-electron system (eV)
  ---------------------------------------------------
  alpha Z        PSCENC =      2652.81237852
  Ewald energy   TEWEN  =    -41634.07219300
  -Hartree energ DENC   =    -25784.57580273
  -exchange      EXHF   =         0.00000000
  -V(xc)+E(xc)   XCENC  =      3706.22754415
  PAW double counting   =     71539.54695714   -75101.76504015
  entropy T*S    EENTRO =        -0.00000000
  eigenvalues    EBANDS =    -10143.09188670
  atomic energy  EATOM  =     73862.19814772
  Solvation  Ediel_sol  =         0.00000000
  ---------------------------------------------------
  free energy    TOTEN  =      -902.71989505 eV

  energy without entropy =     -902.71989505  energy(sigma->0) =     -902.71989505


--------------------------------------------------------------------------------------------------------




--------------------------------------- Iteration      1(  18)  ---------------------------------------


    POTLOK:  cpu time    0.1725: real time    0.1732
    SETDIJ:  cpu time    4.9969: real time    4.9977
    EDDIAG:  cpu time    4.4252: real time    4.8514
  RMM-DIIS:  cpu time   17.7957: real time   17.8071
    ORTHCH:  cpu time    1.1690: real time    1.2520
       DOS:  cpu time    0.0011: real time    0.0011
    CHARGE:  cpu time    1.7957: real time    1.7968
    MIXING:  cpu time    0.0011: real time    0.0011
    --------------------------------------------
      LOOP:  cpu time   30.3572: real time   30.8803

 eigenvalue-minimisations  : 19197
 total energy-change (2. order) : 0.3861709E+00  (-0.6831723E-01)
 number of electron     672.0000035 magnetization      48.0000028
 augmentation part      250.6155561 magnetization      33.7882204

 Broyden mixing:
  rms(total) = 0.26134E+00    rms(broyden)= 0.26104E+00
  rms(prec ) = 0.27613E+00
  weight for this iteration     100.00

 eigenvalues of (default mixing * dielectric matrix)
  average eigenvalue GAMMA=   1.0227
  2.4653  1.3706  0.8409  0.3865  0.5895  0.4834

 Free energy of the ion-electron system (eV)
  ---------------------------------------------------
  alpha Z        PSCENC =      2652.81237852
  Ewald energy   TEWEN  =    -41634.07219300
[...]
   4      -0.770    -0.906     1.676     0.291    -0.002     0.023
   5      -0.655    -0.930     1.585    -0.222    -0.008    -0.077
   6      -0.678    -0.780     1.458    -0.150    -0.021     0.078
   7      -0.827    -0.498     1.325    -0.047    -0.051     0.069
   8      -0.822    -0.385     1.208    -0.102     0.078    -0.040
   9      -0.706    -1.133     1.838     0.086     0.055     0.003
  10      -1.059    -0.569     1.629    -0.036    -0.077    -0.072
  11      -0.805    -0.857     1.662     0.292    -0.030     0.018
  12      -0.738    -1.067     1.805    -0.112    -0.020     0.084
  13      -0.971    -1.024     1.996     0.184    -0.010    -0.033
  14      -0.544    -0.731     1.275    -0.105    -0.049    -0.085
  15      -0.926    -0.880     1.806     0.101    -0.018    -0.016
  16      -0.756    -1.110     1.866    -0.163     0.034    -0.045
  17       1.304     1.696    -3.000    -0.038    -0.061     0.061
  18       1.423     1.582    -3.005    -0.050     0.088     0.100
  19       1.405     1.437    -2.842    -0.210     0.165     0.134
  20       1.332     1.601    -2.933    -0.062    -0.198    -0.026
  21       1.387     1.390    -2.776    -0.118     0.096    -0.070
  22       1.462     1.394    -2.856    -0.090    -0.070    -0.047
  23       1.559     1.492    -3.051     0.140    -0.121    -0.111
  24       1.585     1.368    -2.953     0.178     0.112    -0.041
  25      -2.932    -1.628     4.559    -1.174    -0.932     0.528
  26      -0.962     0.780     0.182    -1.648    -0.241     1.272
  27       1.255    -1.972     0.717     0.136    -0.693     0.024
  28      -0.296     0.515    -0.219    -0.072     1.447     1.264
  29      -0.150    -1.428     1.577     1.357     0.373     0.094
  30       1.278    -1.279     0.001     0.465     0.693     0.764
  31       0.226    -0.752     0.526    -0.677     0.476    -1.902
  32      -0.164    -1.268     1.432    -0.065    -1.093     0.400
  33       0.066    -0.224     0.159     0.814     1.452    -0.970
  34      -0.616    -0.899     1.515    -0.432    -0.247    -0.160
  35      -0.653    -0.700     1.353     1.401    -0.519     1.314
  36       0.916    -1.604     0.688    -0.029    -0.089     0.188
  37       0.340     0.364    -0.704     0.106    -0.243     0.551
  38      -1.206     0.819     0.387    -0.383     0.642    -0.025
  39      -0.036     1.116    -1.080    -0.705     0.393    -0.133
  40       0.156    -0.718     0.562    -0.103    -0.389    -0.468
  41      -4.555     5.538    -0.982    -2.669     2.204    -2.778
  42      -2.901     5.137    -2.237     4.987     1.214     3.017
  43       5.222    -5.788     0.565    -0.797    -4.786     1.018
  44      -3.293     3.645    -0.352    -4.421     0.227     5.557
  45       6.152    -5.025    -1.127     0.001     5.636     0.854
  46      -4.131     4.687    -0.557     3.203    -0.129    -3.560
  47      -5.727     2.535     3.192    -3.618     1.066    -4.756
  48       7.208    -5.999    -1.209     0.117    -2.086    -1.068
  49      -2.726    -0.119     2.845     5.835     1.379     4.863
  50      -4.219     2.777     1.441    -2.790    -3.523     3.610
  51      -3.360     2.859     0.501     3.960    -0.827    -4.355
  52       3.505    -7.090     3.585     1.082     5.082    -1.274
  53      -3.776     2.890     0.886    -5.148     2.259    -4.994
  54      -0.974     2.285    -1.311     5.696     1.426     2.997
  55       5.767    -5.915     0.148    -0.642    -4.876     0.165
  56      -3.861     3.723     0.138    -4.270    -2.972     3.598
  57       4.609    -6.536     1.927    -0.149     4.493    -0.646
  58      -2.159     0.461     1.698     4.859    -2.639    -4.332
  59      -5.006     2.812     2.194    -3.504     3.199    -3.877
  60       6.109    -6.764     0.656    -1.593    -3.770     0.777
  61      -1.341    -1.007     2.348     6.387     1.673     4.387
  62      -3.269     0.518     2.751    -5.611    -2.805     5.291
  63      -2.203     1.737     0.466     5.445    -3.930    -3.952
  64       6.815    -5.745    -1.070     0.230     3.202     1.077
  65      -4.164     2.733     1.431    -4.875     3.351    -3.725
  66      -1.618     1.415     0.203     5.228     1.313     3.992
  67       4.908    -5.171     0.263    -1.395    -5.232    -0.306
  68      -1.767     0.598     1.169    -5.622    -1.918     3.242
  69       5.606    -6.573     0.967    -0.460     5.458     2.563
  70      -3.858     3.107     0.751     4.528    -2.814    -3.418
  71      -2.990     1.516     1.474    -4.831     1.558    -5.060
  72       2.978    -7.619     4.641    -2.035    -5.338     1.705
  73      -2.943     2.479     0.464     4.219     1.851     3.275
  74      -2.237     0.608     1.629    -4.514    -3.680     3.665
  75      -1.794     1.796    -0.001     5.174    -0.359    -4.744
  76       5.065    -5.218     0.154     1.389     5.002     0.977
  77      -2.899     3.625    -0.726    -4.625     0.753    -3.659
  78      -2.558     2.074     0.483     4.705     3.361     3.925
  79       5.452    -6.432     0.979    -0.727    -3.216    -0.518
  80      -4.389     2.616     1.774    -5.077    -3.186     4.489
  81       6.587    -6.262    -0.325     1.744     5.053    -1.706
  82      -3.856     3.076     0.779     4.856    -3.925    -4.515
  83      -5.164     5.230    -0.067    -3.861     1.530    -3.435
  84       4.086    -5.354     1.268     0.424    -5.436     0.361
  85      -4.695     4.000     0.695     5.781     3.575     3.587
  86      -2.382     4.401    -2.019    -4.753    -0.686     2.984
  87      -3.751     3.271     0.480     4.995    -2.871    -2.289
  88       5.728    -6.427     0.699    -0.455     3.711     0.912
 ---------------------------------------------------------------------


 Total hyperfine coupling parameters after diagonalization (MHz)
 (convention: |A_zz| > |A_xx| > |A_yy|)
 ----------------------------------------------------------------------
  ion      A_xx      A_yy      A_zz     asymmetry (A_yy - A_xx)/ A_zz 
 ----------------------------------------------------------------------
   1       1.588     1.292     3.877      -0.076
   2      -0.168     0.090     2.802       0.092
   3       2.252     1.877     4.158      -0.090
   4       2.494     1.897     4.710      -0.127
   5       2.066     1.542     4.185      -0.125
   6       2.584     2.269     4.617      -0.068
   7       1.157     0.817     2.981      -0.114
   8       2.274     1.792     3.851      -0.125
   9       0.903     0.445     3.433      -0.134
  10       2.590     2.094     4.792      -0.103
  11       2.011     1.424     4.212      -0.139
  12      -0.394     0.006     2.517       0.159
  13      -0.598    -0.226     2.582       0.144
  14       2.105     1.819     3.881      -0.074
  15       0.783     0.576     3.389      -0.061
  16       0.445    -0.035     3.006      -0.160
  17      15.552    11.249    15.951      -0.270
  18      16.129    11.708    16.315      -0.271
  19      13.903     9.828    14.313      -0.285
  20      14.046     9.777    14.333      -0.298
  21      11.577     7.527    11.815      -0.343
  22      13.042     8.851    13.234      -0.317
  23      17.222    12.784    17.516      -0.253
  24      14.299    10.074    14.716      -0.287
  25      98.051    95.479   103.883      -0.025
  26      94.406    92.717    97.220      -0.017
  27      97.926    95.700    99.411      -0.022
  28      96.126    93.836    97.767      -0.023
  29     100.345    97.473   101.481      -0.028
  30      95.121    93.603    97.010      -0.016
  31      96.303    94.202    98.560      -0.021
  32      99.436    98.794   102.164      -0.006
  33      99.834    97.090   100.830      -0.027
  34      95.448    94.516    97.305      -0.010
  35      95.659    92.614    97.143      -0.031
  36      97.575    95.286    97.855      -0.023
  37      92.683    91.300    92.888      -0.015
  38      97.783    95.751    98.179      -0.021
  39      93.893    92.944    95.643      -0.010
  40      97.655    96.696    98.495      -0.010
  41       7.220     3.140    16.369      -0.249
  42       3.925     1.819    15.629      -0.135
  43       3.164    -0.409    13.859      -0.258
  44       8.907     3.682    19.229      -0.272
  45       2.246     0.529    15.236      -0.113
  46       5.961     2.364    15.034      -0.239
  47       6.983     1.095    16.634      -0.354
  48       6.868     2.105    16.046      -0.297
  49       8.170     1.039    17.410      -0.410
  50       5.523     0.884    14.380      -0.323
  51       4.602     0.867    13.919      -0.268
  52       6.793     0.317    16.498      -0.393
  53       4.180     0.226    16.095      -0.246
  54       6.582     3.519    16.677      -0.184
  55      -1.869     1.424    12.697       0.259
  56       4.276     0.234    14.542      -0.278
  57       6.229     1.025    15.589      -0.334
  58       8.524     4.791    18.872      -0.198
  59       5.750     0.413    15.245      -0.350
  60       6.793     1.090    16.308      -0.350
  61       8.700     1.193    17.545      -0.428
  62       5.097    -0.013    17.042      -0.300
  63       5.814     2.417    17.741      -0.191
  64       4.109     0.083    14.059      -0.286
  65       4.548    -0.733    14.791      -0.357
  66       5.571     1.255    14.726      -0.293
  67       4.929     2.005    16.044      -0.182
  68       6.118     0.760    14.535      -0.369
  69       6.806     0.583    17.623      -0.353
  70       5.999     1.389    15.611      -0.295
  71       5.214     0.786    15.629      -0.283
  72       8.145     1.662    19.320      -0.336
  73       5.885     2.350    14.560      -0.243
  74       1.965    -1.361    12.376      -0.269
  75       6.787     1.287    15.666      -0.351
  76       5.026     2.552    16.378      -0.151
  77       6.319     2.765    15.929      -0.223
  78       4.896     1.937    15.929      -0.186
  79       9.034     3.076    16.773      -0.355
  80       6.045     1.039    17.446      -0.287
  81       6.872     1.174    17.958      -0.317
  82       2.974    -1.073    15.206      -0.266
  83       6.305     1.573    16.243      -0.291
  84       1.746    -0.905    12.861      -0.206
  85       9.398     3.058    20.540      -0.309
  86       7.288     4.889    17.718      -0.135
  87       6.029     0.133    14.339      -0.411
  88       7.401     1.854    16.172      -0.343
 ---------------------------------------------------------------------



--------------------------------------------------------------------------------------------------------


 stress matrix after NEB project (eV)
    -41.58093     -1.79456     -2.39860
     -1.78907    -39.26532     -2.47338
     -2.39573     -2.44750    -51.64718
  FORCES: max atom, RMS     2.851713    1.112937
  FORCE total and by dimension   10.440271    2.780952
  Stress total and by dimension   77.254078   51.647183
     LOOP+:  cpu time  799.4449: real time  815.0573
    4ORBIT:  cpu time    0.0000: real time    0.0000
 


 total charge     
 
# of ion       s       p       d       tot
------------------------------------------
    1        0.048   5.989   0.000   6.037
    2        0.054   5.999   0.000   6.053
    3        0.049   5.992   0.000   6.041
    4        0.056   5.999   0.000   6.055
    5        0.048   5.989   0.000   6.037
    6        0.049   5.990   0.000   6.039
    7        0.050   5.993   0.000   6.043
    8        0.052   5.996   0.000   6.048
    9        0.052   5.995   0.000   6.046
   10        0.051   5.992   0.000   6.043
   11        0.048   5.989   0.000   6.037
   12        0.050   5.994   0.000   6.044
   13        0.055   6.000   0.000   6.055
   14        0.050   5.992   0.000   6.042
   15        0.052   5.996   0.000   6.047
   16        0.052   5.996   0.000   6.049
   17        0.149   6.129   0.085   6.362
   18        0.149   6.129   0.085   6.363
   19        0.140   6.113   0.072   6.325
   20        0.149   6.128   0.084   6.361
   21        0.149   6.127   0.082   6.358
   22        0.145   6.121   0.078   6.344
   23        0.151   6.132   0.088   6.371
   24        0.148   6.127   0.083   6.358
   25        0.380   6.456   4.846  11.682
   26        0.388   6.480   4.857  11.725
   27        0.379   6.461   4.842  11.682
   28        0.375   6.453   4.834  11.662
   29        0.362   6.424   4.807  11.593
   30        0.386   6.475   4.854  11.714
   31        0.385   6.476   4.858  11.719
   32        0.379   6.463   4.842  11.684
   33        0.384   6.472   4.854  11.710
   34        0.377   6.458   4.831  11.666
   35        0.372   6.443   4.818  11.634
   36        0.370   6.443   4.818  11.631
   37        0.393   6.492   4.864  11.749
   38        0.384   6.471   4.858  11.713
   39        0.394   6.498   4.879  11.771
   40        0.376   6.452   4.834  11.661
   41        1.600   3.529   0.000   5.129
   42        1.597   3.454   0.000   5.051
   43        1.598   3.491   0.000   5.090
   44        1.599   3.515   0.000   5.115
   45        1.600   3.463   0.000   5.063
   46        1.599   3.516   0.000   5.114
   47        1.598   3.521   0.000   5.119
   48        1.598   3.498   0.000   5.096
   49        1.601   3.514   0.000   5.115
   50        1.598   3.515   0.000   5.113
   51        1.595   3.485   0.000   5.080
   52        1.600   3.514   0.000   5.114
   53        1.602   3.490   0.000   5.093
   54        1.602   3.522   0.000   5.124
   55        1.598   3.500   0.000   5.098
   56        1.599   3.522   0.000   5.121
   57        1.599   3.503   0.000   5.102
   58        1.602   3.537   0.000   5.139
   59        1.599   3.516   0.000   5.115
   60        1.598   3.496   0.000   5.094
   61        1.598   3.488   0.000   5.086
   62        1.601   3.507   0.000   5.108
   63        1.604   3.494   0.000   5.098
   64        1.600   3.520   0.000   5.119
   65        1.598   3.519   0.000   5.117
   66        1.598   3.506   0.000   5.104
   67        1.599   3.489   0.000   5.088
   68        1.598   3.524   0.000   5.122
   69        1.599   3.492   0.000   5.091
   70        1.597   3.499   0.000   5.095
   71        1.599   3.527   0.000   5.126
   72        1.601   3.530   0.000   5.131
   73        1.596   3.521   0.000   5.117
   74        1.596   3.498   0.000   5.094
   75        1.601   3.516   0.000   5.117
   76        1.598   3.516   0.000   5.114
   77        1.597   3.524   0.000   5.121
   78        1.599   3.532   0.000   5.131
   79        1.599   3.528   0.000   5.127
   80        1.601   3.523   0.000   5.123
   81        1.601   3.509   0.000   5.110
   82        1.601   3.478   0.000   5.079
   83        1.600   3.521   0.000   5.121
   84        1.597   3.483   0.000   5.080
   85        1.606   3.514   0.000   5.120
   86        1.599   3.532   0.000   5.131
   87        1.596   3.499   0.000   5.095
   88        1.599   3.537   0.000   5.136
--------------------------------------------------
tot         84.835 416.754  78.153 579.742
 


 magnetization (x)
 
# of ion       s       p       d       tot
------------------------------------------
    1        0.002   0.000   0.000   0.002
    2        0.001   0.000   0.000   0.001
    3        0.002   0.000   0.000   0.002
    4        0.002   0.000   0.000   0.002
    5        0.002   0.000   0.000   0.002
    6        0.002   0.000   0.000   0.003
    7        0.001  -0.000   0.000   0.001
    8        0.002   0.000   0.000   0.002
    9        0.001   0.001   0.000   0.002
   10        0.002   0.000   0.000   0.002
   11        0.002   0.001   0.000   0.002
   12        0.001   0.000   0.000   0.001
   13        0.000   0.000   0.000   0.001
   14        0.002   0.000   0.000   0.002
   15        0.001   0.001   0.000   0.002
   16        0.001   0.000   0.000   0.001
   17        0.008   0.003   0.001   0.012
   18        0.008   0.003   0.001   0.012
   19        0.007   0.002   0.001   0.010
   20        0.007   0.002   0.001   0.011
   21        0.006   0.001   0.001   0.008
   22        0.007   0.001   0.001   0.009
   23        0.009   0.003   0.001   0.013
   24        0.007   0.003   0.001   0.011
   25        0.016   0.031   2.727   2.774
   26        0.015   0.031   2.724   2.770
   27        0.015   0.029   2.749   2.794
   28        0.015   0.030   2.753   2.798
   29        0.016   0.029   2.786   2.830
   30        0.015   0.030   2.728   2.774
   31        0.015   0.031   2.725   2.772
   32        0.017   0.032   2.746   2.794
   33        0.016   0.032   2.739   2.788
   34        0.015   0.030   2.757   2.801
   35        0.015   0.029   2.765   2.809
   36        0.015   0.030   2.765   2.810
   37        0.014   0.031   2.718   2.763
   38        0.015   0.031   2.733   2.779
   39        0.015   0.032   2.704   2.751
   40        0.015   0.030   2.751   2.796
   41        0.002   0.040   0.000   0.043
   42        0.002   0.021   0.000   0.023
   43        0.002   0.016   0.000   0.017
   44        0.003   0.058   0.000   0.061
   45        0.002   0.008   0.000   0.010
   46        0.002   0.037   0.000   0.039
   47        0.002   0.050   0.000   0.052
   48        0.002   0.037   0.000   0.039
   49        0.002   0.050   0.000   0.052
   50        0.002   0.030   0.000   0.032
   51        0.002   0.020   0.000   0.022
   52        0.002   0.046   0.000   0.048
   53        0.002   0.022   0.000   0.024
   54        0.002   0.036   0.000   0.038
   55        0.001   0.018   0.000   0.020
   56        0.002   0.025   0.000   0.027
   57        0.002   0.034   0.000   0.036
   58        0.003   0.063   0.000   0.065
   59        0.002   0.032   0.000   0.034
   60        0.002   0.041   0.000   0.043
   61        0.002   0.051   0.000   0.053
   62        0.002   0.038   0.000   0.040
   63        0.002   0.037   0.000   0.039
   64        0.002   0.026   0.000   0.028
   65        0.002   0.030   0.000   0.032
   66        0.002   0.034   0.000   0.036
   67        0.002   0.028   0.000   0.030
   68        0.002   0.032   0.000   0.034
   69        0.002   0.039   0.000   0.041
   70        0.002   0.035   0.000   0.037
   71        0.002   0.036   0.000   0.038
   72        0.002   0.060   0.000   0.062
   73        0.002   0.036   0.000   0.038
   74        0.001   0.011   0.000   0.012
   75        0.002   0.039   0.000   0.041
   76        0.002   0.039   0.000   0.041
   77        0.002   0.045   0.000   0.047
   78        0.002   0.039   0.000   0.041
   79        0.002   0.047   0.000   0.049
   80        0.002   0.048   0.000   0.050
   81        0.002   0.045   0.000   0.047
   82        0.002   0.013   0.000   0.015
   83        0.002   0.041   0.000   0.043
   84        0.002   0.005   0.000   0.007
   85        0.003   0.060   0.000   0.062
   86        0.002   0.049   0.000   0.051
   87        0.002   0.032   0.000   0.034
   88        0.002   0.047   0.000   0.049
--------------------------------------------------
tot          0.424   2.237  43.881  46.541
 

 total amount of memory used by VASP MPI-rank0    94431. kBytes
=======================================================================

   base      :      30000. kBytes
   nonlr-proj:      13672. kBytes
   fftplans  :       1275. kBytes
   grid      :      22786. kBytes
   one-center:       2737. kBytes
   wavefun   :      23961. kBytes
 
  
  
 General timing and accounting informations for this job:
 ========================================================
  
                  Total CPU time used (sec):      820.488
                            User time (sec):      812.394
                          System time (sec):        8.094
                         Elapsed time (sec):      838.631
  
                   Maximum memory used (kb):      194772.
                   Average memory used (kb):           0.
  
                          Minor page faults:       280008
                          Major page faults:            0
                 Voluntary context switches:       269991
