 vasp.5.4.4.18Apr17-6-g9f103f2a35 (build Dec 02 2020 12:53:39) complex          
  
 executed on             LinuxIFC date 2021.08.03  14:15:49
 running on   96 total cores
 distrk:  each k-point on   96 cores,    1 groups
 distr:  one band on NCORES_PER_BAND=   1 cores,   96 groups


--------------------------------------------------------------------------------------------------------


 INCAR:
 POTCAR:    PAW_PBE Na_pv 19Sep2006               
 POTCAR:    PAW_PBE Mg_pv 13Apr2007               
 POTCAR:    PAW_PBE Mn_pv 02Aug2007               
 POTCAR:    PAW_PBE O 08Apr2002                   

 ----------------------------------------------------------------------------- 
|                                                                             |
|           W    W    AA    RRRRR   N    N  II  N    N   GGGG   !!!           |
|           W    W   A  A   R    R  NN   N  II  NN   N  G    G  !!!           |
|           W    W  A    A  R    R  N N  N  II  N N  N  G       !!!           |
|           W WW W  AAAAAA  RRRRR   N  N N  II  N  N N  G  GGG   !            |
|           WW  WW  A    A  R   R   N   NN  II  N   NN  G    G                |
|           W    W  A    A  R    R  N    N  II  N    N   GGGG   !!!           |
|                                                                             |
|      For optimal performance we recommend to set                            |
|        NCORE= 4 - approx SQRT( number of cores)                             |
|      NCORE specifies how many cores store one orbital (NPAR=cpu/NCORE).     |
|      This setting can  greatly improve the performance of VASP for DFT.     |
|      The default,   NCORE=1            might be grossly inefficient         |
|      on modern multi-core architectures or massively parallel machines.     |
|      Do your own testing !!!!                                               |
|      Unfortunately you need to use the default for GW and RPA calculations. |
|      (for HF NCORE is supported but not extensively tested yet)             |
|                                                                             |
 ----------------------------------------------------------------------------- 

 POTCAR:    PAW_PBE Na_pv 19Sep2006               
   VRHFIN =Na: p6s1                                                             
   LEXCH  = PE                                                                  
   EATOM  =   766.0439 eV,   56.3026 Ry                                         
                                                                                
   TITEL  = PAW_PBE Na_pv 19Sep2006                                             
   LULTRA =        F    use ultrasoft PP ?                                      
   IUNSCR =        1    unscreen: 0-lin 1-nonlin 2-no                           
   RPACOR =    1.800    partial core radius                                     
   POMASS =   22.990; ZVAL   =    7.000    mass and valenz                      
   RCORE  =    2.200    outmost cutoff radius                                   
   RWIGS  =    2.200; RWIGS  =    1.164    wigner-seitz radius (au A)           
   ENMAX  =  259.561; ENMIN  =  194.671 eV                                      
   ICORE  =        2    local potential                                         
   LCOR   =        T    correct aug charges                                     
   LPAW   =        T    paw PP                                                  
   EAUG   =  368.056                                                            
   DEXC   =    0.000                                                            
   RMAX   =    2.245    core radius for proj-oper                               
   RAUG   =    1.300    factor for augmentation sphere                          
   RDEP   =    2.259    radius for radial grids                                 
   RDEPT  =    1.738    core radius for aug-charge                              
                                                                                
   Atomic configuration                                                         
    5 entries                                                                   
     n  l   j            E        occ.                                          
     1  0  0.50     -1033.6933   2.0000                                         
     2  0  0.50       -56.7526   2.0000                                         
     2  1  1.50       -28.6721   6.0000                                         
     3  0  0.50        -2.7440   1.0000                                         
     3  2  1.50        -1.3606   0.0000                                         
   Description                                                                  
     l       E           TYP  RCUT    TYP  RCUT                                 
     1    -28.6720912     23  2.000                                             
     1      6.8029130     23  2.000                                             
     0     -2.7439560     23  2.200                                             
     0     34.0145650     23  2.200                                             
     2     -1.3605826     23  2.200                                             
  local pseudopotential read in
  partial core-charges read in
  partial kinetic energy density read in
  atomic valenz-charges read in
  non local Contribution for L=           1  read in
    real space projection operators read in
  non local Contribution for L=           1  read in
    real space projection operators read in
  non local Contribution for L=           0  read in
    real space projection operators read in
  non local Contribution for L=           0  read in
    real space projection operators read in
    PAW grid and wavefunctions read in
 
   number of l-projection  operators is LMAX  =           4
   number of lm-projection operators is LMMAX =           8
 
 POTCAR:    PAW_PBE Mg_pv 13Apr2007               
   VRHFIN =Mg: p6s2                                                             
   LEXCH  = PE                                                                  
   EATOM  =  1056.7344 eV,   77.6678 Ry                                         
                                                                                
   TITEL  = PAW_PBE Mg_pv 13Apr2007                                             
   LULTRA =        F    use ultrasoft PP ?                                      
   IUNSCR =        1    unscreen: 0-lin 1-nonlin 2-no                           
   RPACOR =    1.500    partial core radius                                     
   POMASS =   24.305; ZVAL   =    8.000    mass and valenz                      
   RCORE  =    2.000    outmost cutoff radius                                   
   RWIGS  =    2.000; RWIGS  =    1.058    wigner-seitz radius (au A)           
   ENMAX  =  403.929; ENMIN  =  302.947 eV                                      
   RCLOC  =    1.506    cutoff for local pot                                    
   LCOR   =        T    correct aug charges                                     
   LPAW   =        T    paw PP                                                  
   EAUG   =  758.780                                                            
   DEXC   =    0.000                                                            
   RMAX   =    2.045    core radius for proj-oper                               
   RAUG   =    1.300    factor for augmentation sphere                          
   RDEP   =    2.025    radius for radial grids                                 
   RDEPT  =    1.557    core radius for aug-charge                              
                                                                                
   Atomic configuration                                                         
    5 entries                                                                   
     n  l   j            E        occ.                                          
     1  0  0.50     -1259.6230   2.0000                                         
     2  0  0.50       -79.8442   2.0000                                         
     2  1  1.50       -46.6121   6.0000                                         
     3  0  0.50        -4.7055   2.0000                                         
     3  2  1.50        -1.3606   0.0000                                         
   Description                                                                  
     l       E           TYP  RCUT    TYP  RCUT                                 
     1    -46.6121073     23  1.600                                             
     1      2.7211652     23  1.600                                             
     0     -4.7054661     23  2.000                                             
     0     61.2262170     23  2.000                                             
     2     -1.3605826     23  2.000                                             
  local pseudopotential read in
  partial core-charges read in
  partial kinetic energy density read in
  atomic valenz-charges read in
  non local Contribution for L=           1  read in
    real space projection operators read in
  non local Contribution for L=           1  read in
    real space projection operators read in
  non local Contribution for L=           0  read in
    real space projection operators read in
  non local Contribution for L=           0  read in
    real space projection operators read in
  non local Contribution for L=           2  read in
    real space projection operators read in
    PAW grid and wavefunctions read in
 
   number of l-projection  operators is LMAX  =           5
   number of lm-projection operators is LMMAX =          13
 
 POTCAR:    PAW_PBE Mn_pv 02Aug2007               
   VRHFIN =Mn: 3p4s3d                                                           
   LEXCH  = PE                                                                  
   EATOM  =  2025.2664 eV,  148.8529 Ry                                         
                                                                                
   TITEL  = PAW_PBE Mn_pv 02Aug2007                                             
   LULTRA =        F    use ultrasoft PP ?                                      
   IUNSCR =        1    unscreen: 0-lin 1-nonlin 2-no                           
   RPACOR =    2.080    partial core radius                                     
   POMASS =   54.938; ZVAL   =   13.000    mass and valenz                      
   RCORE  =    2.300    outmost cutoff radius                                   
   RWIGS  =    2.500; RWIGS  =    1.323    wigner-seitz radius (au A)           
   ENMAX  =  269.864; ENMIN  =  202.398 eV                                      
   ICORE  =        3    local potential                                         
   LCOR   =        T    correct aug charges                                     
   LPAW   =        T    paw PP                                                  
   EAUG   =  569.085                                                            
   DEXC   =    0.000                                                            
   RMAX   =    2.343    core radius for proj-oper                               
   RAUG   =    1.300    factor for augmentation sphere                          
   RDEP   =    2.338    radius for radial grids                                 
   RDEPT  =    1.798    core radius for aug-charge                              
                                                                                
   Atomic configuration                                                         
    8 entries                                                                   
     n  l   j            E        occ.                                          
     1  0  0.50     -6424.8287   2.0000                                         
     2  0  0.50      -739.1154   2.0000                                         
     2  1  1.50      -625.3949   6.0000                                         
     3  0  0.50       -81.6100   2.0000                                         
     3  1  1.50       -50.4667   6.0000                                         
     3  2  2.50        -3.3745   6.0000                                         
     4  0  0.50        -4.1331   1.0000                                         
     4  3  2.50        -1.3606   0.0000                                         
   Description                                                                  
     l       E           TYP  RCUT    TYP  RCUT                                 
     1    -50.4666628     23  2.000                                             
     1     -1.3605826     23  2.000                                             
     2     -3.3744729     23  2.300                                             
     2     -4.7350555     23  2.300                                             
     0     -4.1331431     23  2.300                                             
     0      7.6656591     23  2.300                                             
     3      9.5240782     23  2.300                                             
  local pseudopotential read in
  partial core-charges read in
  partial kinetic energy density read in
  atomic valenz-charges read in
  non local Contribution for L=           1  read in
    real space projection operators read in
  non local Contribution for L=           1  read in
    real space projection operators read in
  non local Contribution for L=           2  read in
    real space projection operators read in
  non local Contribution for L=           2  read in
    real space projection operators read in
  non local Contribution for L=           0  read in
    real space projection operators read in
  non local Contribution for L=           0  read in
    real space projection operators read in
    PAW grid and wavefunctions read in
 
   number of l-projection  operators is LMAX  =           6
   number of lm-projection operators is LMMAX =          18
 
 POTCAR:    PAW_PBE O 08Apr2002                   
   VRHFIN =O: s2p4                                                              
   LEXCH  = PE                                                                  
   EATOM  =   432.3788 eV,   31.7789 Ry                                         
                                                                                
   TITEL  = PAW_PBE O 08Apr2002                                                 
   LULTRA =        F    use ultrasoft PP ?                                      
   IUNSCR =        1    unscreen: 0-lin 1-nonlin 2-no                           
   RPACOR =    1.200    partial core radius                                     
   POMASS =   16.000; ZVAL   =    6.000    mass and valenz                      
   RCORE  =    1.520    outmost cutoff radius                                   
   RWIGS  =    1.550; RWIGS  =    0.820    wigner-seitz radius (au A)           
   ENMAX  =  400.000; ENMIN  =  300.000 eV                                      
   ICORE  =        2    local potential                                         
   LCOR   =        T    correct aug charges                                     
   LPAW   =        T    paw PP                                                  
   EAUG   =  605.392                                                            
   DEXC   =    0.000                                                            
   RMAX   =    1.553    core radius for proj-oper                               
   RAUG   =    1.300    factor for augmentation sphere                          
   RDEP   =    1.550    radius for radial grids                                 
   RDEPT  =    1.329    core radius for aug-charge                              
                                                                                
   Atomic configuration                                                         
    4 entries                                                                   
     n  l   j            E        occ.                                          
     1  0  0.50      -514.6923   2.0000                                         
     2  0  0.50       -23.9615   2.0000                                         
     2  1  0.50        -9.0305   4.0000                                         
     3  2  1.50        -9.5241   0.0000                                         
   Description                                                                  
     l       E           TYP  RCUT    TYP  RCUT                                 
     0    -23.9615318     23  1.200                                             
     0     -9.5240782     23  1.200                                             
     1     -9.0304911     23  1.520                                             
     1      8.1634956     23  1.520                                             
     2     -9.5240782      7  1.500                                             
  local pseudopotential read in
  partial core-charges read in
  partial kinetic energy density read in
  kinetic energy density of atom read in
  atomic valenz-charges read in
  non local Contribution for L=           0  read in
    real space projection operators read in
  non local Contribution for L=           0  read in
    real space projection operators read in
  non local Contribution for L=           1  read in
    real space projection operators read in
  non local Contribution for L=           1  read in
    real space projection operators read in
    PAW grid and wavefunctions read in
 
   number of l-projection  operators is LMAX  =           4
   number of lm-projection operators is LMMAX =           8
 
 Optimization of the real space projectors (new method)

 maximal supplied QI-value         = 17.01
 optimisation between [QCUT,QGAM] = [ 10.20, 20.41] = [ 29.16,116.64] Ry 
 Optimized for a Real-space Cutoff    1.30 Angstroem

   l    n(q)    QCUT    max X(q) W(low)/X(q) W(high)/X(q)  e(spline) 
   1      7    10.205     4.940    0.23E-03    0.84E-03    0.11E-06
   1      7    10.205     6.253    0.40E-03    0.13E-02    0.18E-06
   0      8    10.205    37.438    0.23E-03    0.37E-03    0.42E-07
   0      8    10.205     9.606    0.16E-03    0.26E-03    0.31E-07
 Optimization of the real space projectors (new method)

 maximal supplied QI-value         = 18.90
 optimisation between [QCUT,QGAM] = [ 10.20, 20.41] = [ 29.16,116.64] Ry 
 Optimized for a Real-space Cutoff    1.26 Angstroem

   l    n(q)    QCUT    max X(q) W(low)/X(q) W(high)/X(q)  e(spline) 
   1      7    10.205     2.974    0.63E-04    0.14E-03    0.13E-06
   1      7    10.205     4.279    0.11E-03    0.45E-03    0.24E-06
   0      8    10.205    16.381    0.44E-03    0.15E-03    0.55E-07
   0      8    10.205     5.611    0.31E-03    0.11E-03    0.40E-07
   2      7    10.205     4.652    0.50E-03    0.47E-03    0.57E-07
 Optimization of the real space projectors (new method)

 maximal supplied QI-value         = 16.25
 optimisation between [QCUT,QGAM] = [ 10.24, 20.48] = [ 29.35,117.42] Ry 
 Optimized for a Real-space Cutoff    1.34 Angstroem

   l    n(q)    QCUT    max X(q) W(low)/X(q) W(high)/X(q)  e(spline) 
   1      8    10.239     3.658    0.23E-03    0.30E-03    0.98E-07
   1      8    10.239     5.612    0.32E-03    0.65E-03    0.21E-06
   2      7    10.239    55.373    0.42E-03    0.45E-03    0.65E-07
   2      7    10.239    50.863    0.43E-03    0.48E-03    0.67E-07
   0      8    10.239    79.536    0.11E-03    0.21E-03    0.56E-07
   0      8    10.239    38.668    0.96E-04    0.19E-03    0.52E-07
 Optimization of the real space projectors (new method)

 maximal supplied QI-value         = 24.76
 optimisation between [QCUT,QGAM] = [ 10.15, 20.30] = [ 28.85,115.39] Ry 
 Optimized for a Real-space Cutoff    1.38 Angstroem

   l    n(q)    QCUT    max X(q) W(low)/X(q) W(high)/X(q)  e(spline) 
   0      8    10.150    20.381    0.22E-03    0.32E-03    0.29E-06
   0      8    10.150    15.268    0.23E-03    0.35E-03    0.30E-06
   1      8    10.150     5.964    0.46E-03    0.53E-03    0.21E-06
   1      8    10.150     5.382    0.38E-03    0.45E-03    0.19E-06
  PAW_PBE Na_pv 19Sep2006               :
 energy of atom  1       EATOM= -766.0439
 kinetic energy error for atom=    0.0103 (will be added to EATOM!!)
  PAW_PBE Mg_pv 13Apr2007               :
 energy of atom  2       EATOM=-1056.7344
 kinetic energy error for atom=    0.0820 (will be added to EATOM!!)
  PAW_PBE Mn_pv 02Aug2007               :
 energy of atom  3       EATOM=-2025.2664
 kinetic energy error for atom=    0.0284 (will be added to EATOM!!)
  PAW_PBE O 08Apr2002                   :
 energy of atom  4       EATOM= -432.3788
 kinetic energy error for atom=    0.1156 (will be added to EATOM!!)
 
 
 POSCAR: Na Mg Mn  O                             
  positions in cartesian coordinates
  No initial velocities read in

 METAGGA = SCAN     LMAXTAU =  6    LMIXTAU =  F

 exchange correlation table for  LEXCH =        8
   RHO(1)=    0.500       N(1)  =     2000
   RHO(2)=  100.500       N(2)  =     4000

 VTST: version 3.2, (02/03/18)

 CHAIN: initializing optimizer
 
 OPT: Using VASP Dynamics algorithm
 CHAIN: Read ICHAIN            0
 
 POSCAR: Na Mg Mn  O                             
  positions in cartesian coordinates
  No initial velocities read in
 


--------------------------------------------------------------------------------------------------------


 ion  position               nearest neighbor table
   1  0.491  0.484  0.254-  74 2.18  87 2.35  65 2.36  35 2.81  33 2.97
   2  0.650  0.614  0.745-  69 2.23
   3  0.290  0.552  0.741-  80 2.23  82 2.28  83 2.28  40 2.75  38 2.94
   4  0.518  0.259  0.758-  49 2.27  46 2.29
   5  0.772  0.268  0.257-  53 2.24  62 2.28  75 2.30
   6  0.135  0.444  0.250-  86 2.29  77 2.33  55 2.35
   7  0.947  0.447  0.738-  70 2.17  57 2.23  73 2.35  39 2.79
   8  0.810  0.049  0.746-  56 2.24  61 2.26  58 2.29  59 2.31  32 2.86  30 2.96
   9  0.005  0.077  0.256-  50 2.19  41 2.22
  10  0.321  0.785  0.253-  88 2.28
  11  0.331  0.121  0.250-  52 2.21  42 2.29  43 2.35  26 2.82  28 2.88
  12  0.004  0.766  0.747-  73 2.35
  13  0.153  0.139  0.769-  48 2.16  61 2.24
  14  0.475  0.948  0.754-  49 2.32  84 2.36  29 2.88  31 2.90
  15  0.653  0.925  0.245-  79 2.27  54 2.37
  16  0.864  0.626  0.241-  67 2.21  66 2.26  76 2.34  34 2.83  36 2.91
  17  0.666  0.285  0.005-  66 1.97  53 1.98  60 2.02  49 2.11  71 2.12  43 2.12  37 2.76  30 2.83
                            29 2.83  34 2.85
  18  0.646  0.271  0.498-  46 1.93  68 2.04  62 2.07  57 2.09  75 2.09  52 2.20  36 2.82
  19  0.156  0.284  0.012-  78 1.93  41 2.00  55 2.07  83 2.11  48 2.15  61 2.22  26 2.85
  20  0.140  0.277  0.493-  80 1.93  87 1.98  58 2.00  64 2.02  50 2.11  45 2.14  39 2.78  32 2.83

  21  0.146  0.776  0.012-  67 1.97  77 1.99  73 2.06  47 2.07  42 2.16  84 2.22
  22  0.138  0.774  0.496-  76 1.95  81 2.01  51 2.01  70 2.05  44 2.07  86 2.10  27 2.82  36 2.85

  23  0.654  0.777  1.000-  72 1.97  85 1.97  65 2.01  79 2.02  54 2.11  59 2.25  34 2.81
  24  0.643  0.769  0.503-  63 2.02  82 2.03  74 2.07  56 2.09  69 2.11  88 2.12  35 2.84
  25  0.988  0.953  0.000-  47 1.86  67 1.92  41 1.93  54 1.93  61 1.94  72 2.03  30 2.85  26 2.86
                            34 2.95
  26  0.317  0.117  0.999-  47 1.91  48 1.92  42 1.94  43 1.94  41 1.96  49 2.01  11 2.82  33 2.85
                            19 2.85  25 2.86  29 2.91
  27  0.973  0.933  0.510-  63 1.88  76 1.90  44 1.92  58 1.93  50 1.96  69 1.97  22 2.82  32 2.90
                            36 2.93  28 2.96
  28  0.314  0.106  0.506-  45 1.85  44 1.89  51 1.89  46 1.90  52 1.95  50 1.96  31 2.85  11 2.88
                            35 2.91  27 2.96
  29  0.494  0.959  0.010-  49 1.83  59 1.86  53 1.89  42 1.91  84 1.92  79 2.02  17 2.83  30 2.87
                            14 2.88  26 2.91  38 2.98
  30  0.825  0.118  0.003-  54 1.82  55 1.89  61 1.93  59 1.93  60 1.95  53 1.96  17 2.83  37 2.84
                            25 2.85  29 2.87   8 2.96
  31  0.470  0.933  0.495-  88 1.79  81 1.86  51 1.87  62 1.97  56 1.98  46 2.04  40 2.81  28 2.85
                            14 2.90  32 2.98
  32  0.814  0.107  0.495-  64 1.88  58 1.88  62 1.92  57 1.96  63 2.00  56 2.01  20 2.83  39 2.86
                             8 2.86  27 2.90  31 2.98
  33  0.488  0.445  0.991-  71 1.84  78 1.86  85 1.92  43 1.94  48 1.94  65 1.99  34 2.82  26 2.85
                            38 2.91   1 2.97
  34  0.813  0.613  0.993-  71 1.88  65 1.89  67 1.91  72 1.94  66 1.97  73 2.02  23 2.81  33 2.82
                            16 2.83  17 2.85  37 2.93  25 2.95
  35  0.473  0.442  0.502-  87 1.87  82 1.92  45 1.95  52 1.96  68 1.98  74 1.99   1 2.81  24 2.84
                            40 2.85  28 2.91  36 2.92
  36  0.810  0.596  0.497-  68 1.88  75 1.88  76 1.88  70 1.89  74 1.95  69 2.04  18 2.82  39 2.85
                            22 2.85  16 2.91  35 2.92  27 2.93
  37  0.983  0.446  0.004-  77 1.89  66 1.90  60 1.91  83 1.91  73 1.92  55 1.94  17 2.76  30 2.84
                            34 2.93  38 2.96
  38  0.324  0.616  0.999-  84 1.84  78 1.91  77 1.93  83 1.94  85 1.95  79 1.99  33 2.91   3 2.94
                            37 2.96  29 2.98
  39  0.979  0.436  0.491-  57 1.85  70 1.89  75 1.89  80 1.90  64 2.01  86 2.03  20 2.78   7 2.79
                            36 2.85  32 2.86  40 2.90
  40  0.313  0.610  0.500-  86 1.81  82 1.92  81 1.94  88 1.95  87 1.97  80 1.98   3 2.75  31 2.81
                            35 2.85  39 2.90
  41  0.151  0.106  0.098-  25 1.93  26 1.96  19 2.00   9 2.22
  42  0.337  0.970  0.098-  29 1.91  26 1.94  21 2.16  11 2.29
  43  0.477  0.283  0.092-  33 1.94  26 1.94  17 2.12  11 2.35
  44  0.148  0.953  0.595-  28 1.89  27 1.92  22 2.07
  45  0.318  0.266  0.592-  28 1.85  35 1.95  20 2.14
  46  0.481  0.112  0.592-  28 1.90  18 1.93  31 2.04   4 2.29
  47  0.148  0.953  0.916-  25 1.86  26 1.91  21 2.07
  48  0.326  0.277  0.900-  26 1.92  33 1.94  19 2.15  13 2.16
  49  0.484  0.100  0.913-  29 1.83  26 2.01  17 2.11   4 2.27  14 2.32
  50  0.142  0.088  0.411-  28 1.96  27 1.96  20 2.11   9 2.19
  51  0.317  0.950  0.413-  31 1.87  28 1.89  22 2.01
  52  0.456  0.273  0.402-  28 1.95  35 1.96  18 2.20  11 2.21
  53  0.659  0.114  0.099-  29 1.89  30 1.96  17 1.98   5 2.24
  54  0.832  0.968  0.090-  30 1.82  25 1.93  23 2.11  15 2.37
  55  0.972  0.279  0.100-  30 1.89  37 1.94  19 2.07   6 2.35
  56  0.640  0.949  0.595-  31 1.98  32 2.01  24 2.09   8 2.24
  57  0.833  0.282  0.588-  39 1.85  32 1.96  18 2.09   7 2.23
  58  0.971  0.105  0.586-  32 1.88  27 1.93  20 2.00   8 2.29
  59  0.649  0.975  0.910-  29 1.86  30 1.93  23 2.25   8 2.31
  60  0.834  0.284  0.907-  37 1.91  30 1.95  17 2.02
  61  0.971  0.102  0.901-  30 1.93  25 1.94  19 2.22  13 2.24   8 2.26
  62  0.644  0.093  0.404-  32 1.92  31 1.97  18 2.07   5 2.28
  63  0.823  0.936  0.411-  27 1.88  32 2.00  24 2.02
  64  0.962  0.260  0.395-  32 1.88  39 2.01  20 2.02
  65  0.656  0.605  0.091-  34 1.89  33 1.99  23 2.01   1 2.36
  66  0.830  0.460  0.093-  37 1.90  17 1.97  34 1.97  16 2.26
  67  0.968  0.777  0.085-  34 1.91  25 1.92  21 1.97  16 2.21
  68  0.648  0.448  0.590-  36 1.88  35 1.98  18 2.04
  69  0.816  0.762  0.605-  27 1.97  36 2.04  24 2.11   2 2.23
  70  0.967  0.588  0.584-  39 1.89  36 1.89  22 2.05   7 2.17
  71  0.650  0.456  0.906-  33 1.84  34 1.88  17 2.12
  72  0.819  0.782  0.903-  34 1.94  23 1.97  25 2.03
  73  0.984  0.602  0.906-  37 1.92  34 2.02  21 2.06   7 2.35  12 2.35
  74  0.647  0.598  0.403-  36 1.95  35 1.99  24 2.07   1 2.18
  75  0.825  0.449  0.402-  36 1.88  39 1.89  18 2.09   5 2.30
  76  0.963  0.770  0.416-  36 1.88  27 1.90  22 1.95  16 2.34
  77  0.153  0.601  0.089-  37 1.89  38 1.93  21 1.99   6 2.33
  78  0.338  0.457  0.081-  33 1.86  38 1.91  19 1.93
  79  0.487  0.780  0.099-  38 1.99  23 2.02  29 2.02  15 2.27
  80  0.138  0.439  0.585-  39 1.90  20 1.93  40 1.98   3 2.23
  81  0.313  0.778  0.586-  31 1.86  40 1.94  22 2.01
  82  0.466  0.598  0.595-  35 1.92  40 1.92  24 2.03   3 2.28
  83  0.150  0.458  0.911-  37 1.91  38 1.94  19 2.11   3 2.28
  84  0.346  0.786  0.918-  38 1.84  29 1.92  21 2.22  14 2.36
  85  0.487  0.611  0.906-  33 1.92  38 1.95  23 1.97
  86  0.164  0.605  0.405-  40 1.81  39 2.03  22 2.10   6 2.29
  87  0.319  0.446  0.410-  35 1.87  40 1.97  20 1.98   1 2.35
  88  0.467  0.783  0.408-  31 1.79  40 1.95  24 2.12  10 2.28
 
  LATTYP: Found a hexagonal cell.
 ALAT       =    10.0190000534
 C/A-ratio  =     1.1196726572
  
  Lattice vectors:
  
 A1 = (  10.0190000534,   0.0000000000,   0.0000000000)
 A2 = (  -5.0095000267,   8.6767085668,   0.0000000000)
 A3 = (   0.0000000000,   0.0000000000,  11.2180004120)


Analysis of symmetry for initial positions (statically):
=====================================================================
 Subroutine PRICEL returns:
 Original cell was already a primitive cell.
 

 Routine SETGRP: Setting up the symmetry group for a 
 hexagonal supercell.


 Subroutine GETGRP returns: Found  1 space group operations
 (whereof  1 operations were pure point group operations)
 out of a pool of 24 trial point group operations.


The static configuration has the point symmetry C_1 .


Analysis of symmetry for dynamics (positions and initial velocities):
=====================================================================
 Subroutine PRICEL returns:
 Original cell was already a primitive cell.
 

 Routine SETGRP: Setting up the symmetry group for a 
 hexagonal supercell.


 Subroutine GETGRP returns: Found  1 space group operations
 (whereof  1 operations were pure point group operations)
 out of a pool of 24 trial point group operations.


The dynamic configuration has the point symmetry C_1 .


Analysis of structural, dynamic, and magnetic symmetry:
=====================================================================
 Subroutine PRICEL returns:
 Original cell was already a primitive cell.
 

 Routine SETGRP: Setting up the symmetry group for a 
 hexagonal supercell.


 Subroutine GETGRP returns: Found  1 space group operations
 (whereof  1 operations were pure point group operations)
 out of a pool of 24 trial point group operations.


The magnetic configuration has the point symmetry C_1 .


 Subroutine INISYM returns: Found  1 space group operations
 (whereof  1 operations are pure point group operations),
 and found     1 'primitive' translations

 
 

Automatic generation of k-mesh.
 generate k-points for:    2    2    2
Space group operators:
 irot       det(A)        alpha          n_x          n_y          n_z        tau_x        tau_y        tau_z
    1     1.000000     0.000000     1.000000     0.000000     0.000000     0.000000     0.000000     0.000000
 
 Subroutine IBZKPT returns following result:
 ===========================================
 
 Found      8 irreducible k-points:
 
 Following reciprocal coordinates:
            Coordinates               Weight
  0.000000  0.000000  0.000000      1.000000
  0.500000 -0.000000 -0.000000      1.000000
  0.000000  0.500000  0.000000      1.000000
  0.500000  0.500000 -0.000000      1.000000
  0.000000  0.000000  0.500000      1.000000
  0.500000 -0.000000  0.500000      1.000000
  0.000000  0.500000  0.500000      1.000000
  0.500000  0.500000  0.500000      1.000000
 
 Following cartesian coordinates:
            Coordinates               Weight
  0.000000  0.000000  0.000000      1.000000
  0.049905  0.028813 -0.000000      1.000000
  0.000000  0.057626  0.000000      1.000000
  0.049905  0.086438 -0.000000      1.000000
  0.000000  0.000000  0.044571      1.000000
  0.049905  0.028813  0.044571      1.000000
  0.000000  0.057626  0.044571      1.000000
  0.049905  0.086438  0.044571      1.000000
 


--------------------------------------------------------------------------------------------------------




 Dimension of arrays:
   k-points           NKPTS =      8   k-points in BZ     NKDIM =      8   number of bands    NBANDS=    480
   number of dos      NEDOS =    301   number of ions     NIONS =     88
   non local maximal  LDIM  =      6   non local SUM 2l+1 LMDIM =     18
   total plane-waves  NPLWV = 140000
   max r-space proj   IRMAX =   1632   max aug-charges    IRDMAX=   4555
   dimension x,y,z NGX =    50 NGY =   50 NGZ =   56
   dimension x,y,z NGXF=   100 NGYF=  100 NGZF=  112
   support grid    NGXF=   100 NGYF=  100 NGZF=  112
   ions per type =              16   8  16  48
   NGX,Y,Z   is equivalent  to a cutoff of   8.30,  8.30,  8.30 a.u.
   NGXF,Y,Z  is equivalent  to a cutoff of  16.59, 16.59, 16.60 a.u.

 SYSTEM =  unknown system                          
 POSCAR =  Na Mg Mn  O                             

 Startparameter for this run:
   NWRITE =      2    write-flag & timer
   PREC   = normal    normal or accurate (medium, high low for compatibility)
   ISTART =      0    job   : 0-new  1-cont  2-samecut
   ICHARG =      1    charge: 1-file 2-atom 10-const
   ISPIN  =      2    spin polarized calculation?
   LNONCOLLINEAR =      F non collinear calculations
   LSORBIT =      F    spin-orbit coupling
   INIWAV =      1    electr: 0-lowe 1-rand  2-diag
   LASPH  =      T    aspherical Exc in radial PAW
   METAGGA=      F    non-selfconsistent MetaGGA calc.

 Electronic Relaxation 1
   ENCUT  =  400.0 eV  29.40 Ry    5.42 a.u.  16.34 16.34 18.29*2*pi/ulx,y,z
   ENINI  =  400.0     initial cutoff
   ENAUG  =  758.8 eV  augmentation charge cutoff
   NELM   =    200;   NELMIN=  6; NELMDL=-12     # of ELM steps 
   EDIFF  = 0.1E-04   stopping-criterion for ELM
   LREAL  =      T    real-space projection
   NLSPLINE    = F    spline interpolate recip. space projectors
   LCOMPAT=      F    compatible to vasp.4.4
   GGA_COMPAT  = T    GGA compatible to vasp.4.4-vasp.4.6
   LMAXPAW     = -100 max onsite density
   LMAXMIX     =    4 max onsite mixed and CHGCAR
   VOSKOWN=      0    Vosko Wilk Nusair interpolation
   ROPT   =   -0.00050  -0.00050  -0.00050  -0.00050
 Ionic relaxation
   EDIFFG = 0.1E-03   stopping-criterion for IOM
   NSW    =      1    number of steps for IOM
   NBLOCK =      1;   KBLOCK =      1    inner block; outer block 
   IBRION =     -1    ionic relax: 0-MD 1-quasi-New 2-CG
   NFREE  =      0    steps in history (QN), initial steepest desc. (CG)
   ISIF   =      2    stress and relaxation
   IWAVPR =     10    prediction:  0-non 1-charg 2-wave 3-comb
   ISYM   =      2    0-nonsym 1-usesym 2-fastsym
   LCORR  =      T    Harris-Foulkes like correction to forces

   POTIM  = 0.5000    time-step for ionic-motion
   TEIN   =    0.0    initial temperature
   TEBEG  =    0.0;   TEEND  =   0.0 temperature during run
   SMASS  =  -3.00    Nose mass-parameter (am)
   estimated Nose-frequenzy (Omega)   =  0.10E-29 period in steps =****** mass=  -0.229E-26a.u.
   SCALEE = 1.0000    scale energy and forces
   NPACO  =    256;   APACO  = 16.0  distance and # of slots for P.C.
   PSTRESS=    0.0 pullay stress

  Mass of Ions in am
   POMASS =  22.99 24.30 54.94 16.00
  Ionic Valenz
   ZVAL   =   7.00  8.00 13.00  6.00
  Atomic Wigner-Seitz radii
   RWIGS  =  -1.00 -1.00 -1.00 -1.00
  virtual crystal weights 
   VCA    =   1.00  1.00  1.00  1.00
   NELECT =     672.0000    total number of electrons
   NUPDOWN=      48.0000    fix difference up-down

 DOS related values:
   EMIN   =  10.00;   EMAX   =-10.00  energy-range for DOS
   EFERMI =   0.00
   ISMEAR =     0;   SIGMA  =   0.05  broadening in eV -4-tet -1-fermi 0-gaus

 Electronic relaxation 2 (details)
   IALGO  =     48    algorithm
   LDIAG  =      T    sub-space diagonalisation (order eigenvalues)
   LSUBROT=      F    optimize rotation matrix (better conditioning)
   TURBO    =      0    0=normal 1=particle mesh
   IRESTART =      0    0=no restart 2=restart with 2 vectors
   NREBOOT  =      0    no. of reboots
   NMIN     =      0    reboot dimension
   EREF     =   0.00    reference energy to select bands
   IMIX   =      4    mixing-type and parameters
     AMIX     =   0.40;   BMIX     =  1.00
     AMIX_MAG =   1.60;   BMIX_MAG =  1.00
     AMIN     =   0.10
     WC   =   100.;   INIMIX=   1;  MIXPRE=   1;  MAXMIX= -45

 Intra band minimization:
   WEIMIN = 0.0000     energy-eigenvalue tresh-hold
   EBREAK =  0.52E-08  absolut break condition
   DEPER  =   0.30     relativ break condition  

   TIME   =   0.40     timestep for ELM

  volume/ion in A,a.u.               =      11.08        74.78
  Fermi-wavevector in a.u.,A,eV,Ry     =   1.445993  2.732531 28.448379  2.090897
  Thomas-Fermi vector in A             =   2.564112
 
 Write flags
   LWAVE        =      F    write WAVECAR
   LDOWNSAMPLE  =      F    k-point downsampling of WAVECAR
   LCHARG       =      F    write CHGCAR
   LVTOT        =      F    write LOCPOT, total local potential
   LVHAR        =      F    write LOCPOT, Hartree potential only
   LELF         =      F    write electronic localiz. function (ELF)
   LORBIT       =     11    0 simple, 1 ext, 2 COOP (PROOUT), +10 PAW based schemes


 Dipole corrections
   LMONO  =      F    monopole corrections only (constant potential shift)
   LDIPOL =      F    correct potential (dipole corrections)
   IDIPOL =      0    1-x, 2-y, 3-z, 4-all directions 
   EPSILON=  1.0000000 bulk dielectric constant

 Exchange correlation treatment:
   GGA     =    --    GGA type
   LEXCH   =     8    internal setting for exchange type
   VOSKOWN=      0    Vosko Wilk Nusair interpolation
   LHFCALC =     F    Hartree Fock is set to
   LHFONE  =     F    Hartree Fock one center treatment
   AEXX    =    0.0000 exact exchange contribution

 Linear response parameters
   LEPSILON=     F    determine dielectric tensor
   LRPA    =     F    only Hartree local field effects (RPA)
   LNABLA  =     F    use nabla operator in PAW spheres
   LVEL    =     F    velocity operator in full k-point grid
   LINTERFAST=   F  fast interpolation
   KINTER  =     0    interpolate to denser k-point grid
   CSHIFT  =0.1000    complex shift for real part using Kramers Kronig
   OMEGAMAX=  -1.0    maximum frequency
   DEG_THRESHOLD= 0.2000000E-02 threshold for treating states as degnerate
   RTIME   =   -0.100 relaxation time in fs
  (WPLASMAI=    0.000 imaginary part of plasma frequency in eV, 0.658/RTIME)
   DFIELD  = 0.0000000 0.0000000 0.0000000 field for delta impulse in time
 
 Orbital magnetization related:
   ORBITALMAG=     F  switch on orbital magnetization
   LCHIMAG   =     F  perturbation theory with respect to B field
   DQ        =  0.001000  dq finite difference perturbation B field
   LLRAUG    =     F  two centre corrections for induced B field



--------------------------------------------------------------------------------------------------------


 Static calculation
 charge density and potential will be updated during run
 spin polarized calculation
 RMM-DIIS sequential band-by-band
 perform sub-space diagonalisation
    before iterative eigenvector-optimisation
 modified Broyden-mixing scheme, WC =      100.0
 initial mixing is a Kerker type mixing with AMIX =  0.4000 and BMIX =      1.0000
 Hartree-type preconditioning will be used
 using additional bands          144
 real space projection scheme for non local part
 use partial core corrections
 calculate Harris-corrections to forces 
   (improved forces if not selfconsistent)
 use gradient corrections 
 use of overlap-Matrix (Vanderbilt PP)
 Gauss-broadening in eV      SIGMA  =   0.05


--------------------------------------------------------------------------------------------------------


  energy-cutoff  :      400.00
  volume of cell :      975.20
      direct lattice vectors                 reciprocal lattice vectors
    10.019000053  0.000000000  0.000000000     0.099810360  0.057625538 -0.000000000
    -5.009500027  8.676708567  0.000000000     0.000000000  0.115251076  0.000000000
     0.000000000  0.000000000 11.218000412     0.000000000  0.000000000  0.089142446

  length of vectors
    10.019000053 10.019000053 11.218000412     0.115251076  0.115251076  0.089142446


 
 k-points in units of 2pi/SCALE and weight: read from INCAR                         
   0.00000000  0.00000000  0.00000000       0.125
   0.04990518  0.02881277 -0.00000000       0.125
   0.00000000  0.05762554  0.00000000       0.125
   0.04990518  0.08643831 -0.00000000       0.125
   0.00000000  0.00000000  0.04457122       0.125
   0.04990518  0.02881277  0.04457122       0.125
   0.00000000  0.05762554  0.04457122       0.125
   0.04990518  0.08643831  0.04457122       0.125
 
 k-points in reciprocal lattice and weights: read from INCAR                         
   0.00000000  0.00000000  0.00000000       0.125
   0.50000000 -0.00000000 -0.00000000       0.125
   0.00000000  0.50000000  0.00000000       0.125
   0.50000000  0.50000000 -0.00000000       0.125
   0.00000000  0.00000000  0.50000000       0.125
   0.50000000 -0.00000000  0.50000000       0.125
   0.00000000  0.50000000  0.50000000       0.125
   0.50000000  0.50000000  0.50000000       0.125
 
 position of ions in fractional coordinates (direct lattice) 
   0.49083438  0.48376277  0.25366464
   0.65020206  0.61440151  0.74531286
   0.29035334  0.55229666  0.74096004
   0.51787268  0.25912097  0.75826793
   0.77188901  0.26758880  0.25655998
   0.13497734  0.44430344  0.24963005
   0.94658500  0.44661850  0.73805845
   0.80968449  0.04901266  0.74550274
   0.00499015  0.07741217  0.25572294
   0.32080413  0.78515553  0.25299785
   0.33139345  0.12053715  0.24965234
   0.00433164  0.76585262  0.74721873
   0.15331541  0.13930875  0.76868512
   0.47458299  0.94750906  0.75377426
   0.65322393  0.92491277  0.24514262
   0.86355823  0.62634794  0.24146104
   0.66560301  0.28483612  0.00489221
   0.64574015  0.27129066  0.49825101
   0.15634183  0.28431057  0.01216456
   0.13962575  0.27675817  0.49325725
   0.14636520  0.77561093  0.01178459
   0.13804686  0.77416338  0.49558743
   0.65351232  0.77719333  0.99997385
   0.64308153  0.76912345  0.50251112
   0.98821138  0.95313101  0.00028270
   0.31727873  0.11680120  0.99880346
   0.97303543  0.93337698  0.50953377
   0.31444097  0.10617309  0.50628898
   0.49385443  0.95865845  0.01042072
   0.82469064  0.11824645  0.00343195
   0.46987827  0.93347955  0.49542252
   0.81354860  0.10697743  0.49549651
   0.48764540  0.44476082  0.99059627
   0.81314624  0.61291790  0.99250588
   0.47311374  0.44173202  0.50162861
   0.80967771  0.59598982  0.49711533
   0.98338404  0.44570011  0.00392481
   0.32402137  0.61609883  0.99875422
   0.97850321  0.43619997  0.49130057
   0.31281344  0.61009194  0.50024156
   0.15122498  0.10643598  0.09808343
   0.33655726  0.96952335  0.09836067
   0.47657062  0.28295061  0.09175343
   0.14824366  0.95297399  0.59499196
   0.31775743  0.26642015  0.59151451
   0.48146612  0.11217468  0.59162950
   0.14812977  0.95253062  0.91585841
   0.32609025  0.27666597  0.89955425
   0.48426939  0.09967962  0.91311282
   0.14168836  0.08829857  0.41129968
   0.31743324  0.95046486  0.41275449
   0.45610937  0.27324878  0.40166427
   0.65871069  0.11427536  0.09872169
   0.83161644  0.96843699  0.09003655
   0.97181472  0.27918190  0.09977179
   0.64049154  0.94878427  0.59520768
   0.83326079  0.28170475  0.58800497
   0.97096736  0.10477533  0.58598322
   0.64949243  0.97548552  0.90992152
   0.83357282  0.28368822  0.90671239
   0.97077855  0.10236359  0.90146190
   0.64441369  0.09307331  0.40414778
   0.82257270  0.93565544  0.41098947
   0.96220392  0.25970678  0.39531912
   0.65595963  0.60513615  0.09060082
   0.83023270  0.46048337  0.09252005
   0.96802568  0.77723712  0.08486780
   0.64759387  0.44761213  0.58997324
   0.81604205  0.76214499  0.60534763
   0.96723318  0.58764334  0.58435370
   0.65012157  0.45613495  0.90560703
   0.81909476  0.78167890  0.90287035
   0.98390809  0.60229867  0.90550897
   0.64680973  0.59751805  0.40282758
   0.82496606  0.44940313  0.40218843
   0.96330270  0.77018260  0.41637634
   0.15309897  0.60083613  0.08915582
   0.33775822  0.45655446  0.08081868
   0.48705241  0.77972655  0.09922357
   0.13750861  0.43878966  0.58464430
   0.31287752  0.77844034  0.58605721
   0.46608295  0.59832020  0.59487607
   0.14964828  0.45822560  0.91123192
   0.34586274  0.78595126  0.91792651
   0.48700535  0.61119605  0.90646279
   0.16411243  0.60519262  0.40524067
   0.31908347  0.44551917  0.40953912
   0.46710955  0.78286368  0.40779817
 
 position of ions in cartesian coordinates  (Angst):
   2.49426003  4.19746857  2.84561000
   3.43653005  5.33098287  8.36092000
   0.14232005  4.79211713  8.31209000
   3.89049995  2.24831713  8.50625000
   6.39307000  2.32179000  2.87809000
  -0.87340013  3.85509143  2.80035000
   7.24649981  3.87517857  8.27954000
   7.86670003  0.42526857  8.36305000
  -0.33779995  0.67168287  2.86870000
  -0.71910011  6.81256573  2.83813000
   2.71640011  1.04586573  2.80060000
  -3.79314000  6.64508000  8.38230000
   0.83819992  1.20874143  8.62311000
   0.00830032  8.22126000  8.45584000
   1.91130008  8.02519857  2.75001000
   5.51429987  5.43463857  2.70871000
   5.24179000  2.47144000  0.05488080
   5.11064000  2.35391000  5.58938000
   0.14213500  2.46688000  0.13646200
   0.01249030  2.40135000  5.53336000
  -2.41899000  6.72975000  0.13219959
  -2.49508000  6.71719000  5.55950000
   2.65419000  6.74348000 11.21770702
   2.59011000  6.67346000  5.63717000
   5.12618000  8.27004000  0.00317134
   2.59370000  1.01345000 11.20457761
   5.07309000  8.09864000  5.71595000
   2.61851000  0.92123300  5.67955000
   0.14552800  8.31800000  0.11689959
   7.67022000  1.02599000  0.03849959
   0.03144460  8.09953000  5.55765000
   7.61504000  0.92821200  5.55848000
   2.65769000  3.85906000 11.11250941
   5.07650000  5.31811000 11.13393141
   2.52727000  3.83278000  5.62727000
   5.12655000  5.17123000  5.57664000
   7.61979000  3.86721000  0.04402850
   0.16002300  5.34571000 11.20402521
   7.61848000  3.78478000  5.51141000
   0.07782230  5.29359000  5.61171000
   0.98193200  0.92351400  1.10030000
  -1.48486003  8.41227157  1.10341000
   3.35732000  2.45508000  1.02929000
  -3.28867003  8.26867757  6.67462000
   1.84898000  2.31165000  6.63561000
   4.26187000  0.97330700  6.63690000
  -3.28759003  8.26483057 10.27410000
   1.88114000  2.40055000 10.09120000
   4.35255000  0.86489100 10.24330000
   0.97724400  0.76614100  4.61396000
  -1.58099003  8.24690657  4.63028000
   3.20092000  2.37090000  4.50587000
   6.02716000  0.99153400  1.10746000
   3.48057997  8.40284557  1.01003000
   8.33805000  2.42238000  1.11924000
   1.66414997  8.23232457  6.67704000
   6.93724000  2.44427000  6.59624000
   9.20325000  0.90910500  6.57356000
   1.62056997  8.46400357 10.20750000
   6.93043000  2.46148000 10.17150000
   9.21344000  0.88817900 10.11260000
   5.99013000  0.80757000  4.53373000
   3.55418997  8.11840957  4.61048000
   8.33932000  2.25340000  4.43469000
   3.54063000  5.25059000  1.01636000
   6.01131000  3.99548000  1.03789000
   5.80508000  6.74386000  0.95204700
   4.24593000  3.88380000  6.61832000
   4.35796000  6.61291000  6.79079000
   6.74691000  5.09881000  6.55528000
   4.22856000  3.95775000 10.15910000
   4.29069000  6.78240000 10.12840000
   6.84056000  5.22597000 10.15800000
   3.48712000  5.18449000  4.51892000
   6.01405000  3.89934000  4.51175000
   5.79310000  6.68265000  4.67091000
  -1.47599000  5.21328000  1.00015000
   1.09689000  3.96139000  0.90662400
   0.97373800  6.76546000  1.11309000
  -0.82041800  3.80725000  6.55854000
  -0.76487700  6.75430000  6.57439000
   1.67240000  5.19145000  6.67332000
  -0.79615500  3.97589000 10.22220000
  -0.47202400  6.81947000 10.29730000
   1.81752000  5.30317000 10.16870000
  -1.38747000  5.25108000  4.54599000
   0.96506900  3.86564000  4.59421000
   0.75821500  6.79268000  4.57468000
 


--------------------------------------------------------------------------------------------------------


 k-point  1 :   0.0000 0.0000 0.0000  plane waves:   17725
 k-point  2 :   0.5000-0.0000-0.0000  plane waves:   17736
 k-point  3 :   0.0000 0.5000 0.0000  plane waves:   17736
 k-point  4 :   0.5000 0.5000-0.0000  plane waves:   17736
 k-point  5 :   0.0000 0.0000 0.5000  plane waves:   17676
 k-point  6 :   0.5000-0.0000 0.5000  plane waves:   17700
 k-point  7 :   0.0000 0.5000 0.5000  plane waves:   17700
 k-point  8 :   0.5000 0.5000 0.5000  plane waves:   17700

 maximum and minimum number of plane-waves per node :     17736    17676

 maximum number of plane-waves:     17736
 maximum index in each direction: 
   IXMAX=   16   IYMAX=   16   IZMAX=   18
   IXMIN=  -16   IYMIN=  -16   IZMIN=  -18


 serial   3D FFT for wavefunctions
 parallel 3D FFT for charge:
    minimum data exchange during FFTs selected (reduces bandwidth)


 total amount of memory used by VASP MPI-rank0    94423. kBytes
=======================================================================

   base      :      30000. kBytes
   nonlr-proj:      13664. kBytes
   fftplans  :       1275. kBytes
   grid      :      22786. kBytes
   one-center:       2737. kBytes
   wavefun   :      23961. kBytes
 
     INWAV:  cpu time    0.0000: real time    0.0001
 Broyden mixing: mesh for mixing (old mesh)
   NGX = 33   NGY = 33   NGZ = 37
  (NGX  =100   NGY  =100   NGZ  =112)
  gives a total of  40293 points

 initial charge density was supplied:
 charge density of overlapping atoms calculated
 number of electron     672.0000000 magnetization      48.0000000
 keeping initial charge density in first step


--------------------------------------------------------------------------------------------------------


 Maximum index for non-local projection operator         1547
 Maximum index for augmentation-charges          558 (set IRDMAX)


--------------------------------------------------------------------------------------------------------


 First call to EWALD:  gamma=   0.179
 Maximum number of real-space cells 3x 3x 2
 Maximum number of reciprocal cells 3x 3x 3

    FEWALD:  cpu time    0.0029: real time    0.0029


--------------------------------------- Iteration      1(   1)  ---------------------------------------


    POTLOK:  cpu time    0.1920: real time    0.1936
    SETDIJ:  cpu time    4.6042: real time    4.6059
    EDDIAG:  cpu time    4.4184: real time    4.7905
  RMM-DIIS:  cpu time    9.1312: real time    9.1674
    ORTHCH:  cpu time    1.1467: real time    1.2306
       DOS:  cpu time    0.0020: real time    0.0021
    --------------------------------------------
      LOOP:  cpu time   19.4945: real time   19.9901

 eigenvalue-minimisations  :  7680
 total energy-change (2. order) : 0.1573566E+04  (-0.3489505E+05)
 number of electron     672.0000000 magnetization      48.0000000
 augmentation part      672.0000000 magnetization      48.0000000

 Free energy of the ion-electron system (eV)
  ---------------------------------------------------
  alpha Z        PSCENC =      2652.81237852
  Ewald energy   TEWEN  =    -41662.21726187
  -Hartree energ DENC   =    -25937.67665299
  -exchange      EXHF   =         0.00000000
  -V(xc)+E(xc)   XCENC  =      3606.68031892
  PAW double counting   =     55594.23204139   -59034.67079123
  entropy T*S    EENTRO =        -0.04768666
  eigenvalues    EBANDS =     -7507.74461360
  atomic energy  EATOM  =     73862.19814772
  Solvation  Ediel_sol  =         0.00000000
  ---------------------------------------------------
  free energy    TOTEN  =      1573.56588019 eV

  energy without entropy =     1573.61356685  energy(sigma->0) =     1573.58972352


--------------------------------------------------------------------------------------------------------




--------------------------------------- Iteration      1(   2)  ---------------------------------------


    EDDIAG:  cpu time    4.4477: real time    4.8411
  RMM-DIIS:  cpu time    9.1406: real time    9.1484
    ORTHCH:  cpu time    1.1768: real time    1.2583
       DOS:  cpu time    0.0018: real time    0.0018
    --------------------------------------------
      LOOP:  cpu time   14.7668: real time   15.2495

 eigenvalue-minimisations  :  7680
 total energy-change (2. order) :-0.2284763E+04  (-0.7999319E+04)
 number of electron     672.0000000 magnetization      48.0000000
 augmentation part      672.0000000 magnetization      48.0000000

 Free energy of the ion-electron system (eV)
  ---------------------------------------------------
  alpha Z        PSCENC =      2652.81237852
  Ewald energy   TEWEN  =    -41662.21726187
  -Hartree energ DENC   =    -25937.67665299
  -exchange      EXHF   =         0.00000000
  -V(xc)+E(xc)   XCENC  =      3606.68031892
  PAW double counting   =     55594.23204139   -59034.67079123
  entropy T*S    EENTRO =        -0.05506914
  eigenvalues    EBANDS =     -9792.50041476
  atomic energy  EATOM  =     73862.19814772
  Solvation  Ediel_sol  =         0.00000000
  ---------------------------------------------------
  free energy    TOTEN  =      -711.19730344 eV

  energy without entropy =     -711.14223430  energy(sigma->0) =     -711.16976887


--------------------------------------------------------------------------------------------------------




--------------------------------------- Iteration      1(   3)  ---------------------------------------


    EDDIAG:  cpu time    4.3921: real time    4.7989
  RMM-DIIS:  cpu time    9.0828: real time    9.1790
    ORTHCH:  cpu time    1.1495: real time    1.2318
       DOS:  cpu time    0.0019: real time    0.0019
    --------------------------------------------
      LOOP:  cpu time   14.6263: real time   15.2116

 eigenvalue-minimisations  :  7680
 total energy-change (2. order) : 0.6814002E+02  (-0.1421217E+04)
 number of electron     672.0000000 magnetization      48.0000000
 augmentation part      672.0000000 magnetization      48.0000000

 Free energy of the ion-electron system (eV)
  ---------------------------------------------------
  alpha Z        PSCENC =      2652.81237852
  Ewald energy   TEWEN  =    -41662.21726187
  -Hartree energ DENC   =    -25937.67665299
  -exchange      EXHF   =         0.00000000
  -V(xc)+E(xc)   XCENC  =      3606.68031892
  PAW double counting   =     55594.23204139   -59034.67079123
  entropy T*S    EENTRO =        -0.04048541
  eigenvalues    EBANDS =     -9724.37498233
  atomic energy  EATOM  =     73862.19814772
  Solvation  Ediel_sol  =         0.00000000
  ---------------------------------------------------
  free energy    TOTEN  =      -643.05728729 eV

  energy without entropy =     -643.01680188  energy(sigma->0) =     -643.03704458


--------------------------------------------------------------------------------------------------------




--------------------------------------- Iteration      1(   4)  ---------------------------------------


    EDDIAG:  cpu time    4.3858: real time    4.7931
  RMM-DIIS:  cpu time    9.1513: real time    9.1565
    ORTHCH:  cpu time    1.2326: real time    1.3141
       DOS:  cpu time    0.0011: real time    0.0011
    --------------------------------------------
      LOOP:  cpu time   14.7708: real time   15.2647

 eigenvalue-minimisations  :  7680
 total energy-change (2. order) :-0.4690215E+03  (-0.4291248E+03)
 number of electron     672.0000000 magnetization      48.0000000
 augmentation part      672.0000000 magnetization      48.0000000

 Free energy of the ion-electron system (eV)
  ---------------------------------------------------
  alpha Z        PSCENC =      2652.81237852
  Ewald energy   TEWEN  =    -41662.21726187
  -Hartree energ DENC   =    -25937.67665299
  -exchange      EXHF   =         0.00000000
  -V(xc)+E(xc)   XCENC  =      3606.68031892
  PAW double counting   =     55594.23204139   -59034.67079123
  entropy T*S    EENTRO =        -0.00000000
  eigenvalues    EBANDS =    -10193.43696349
  atomic energy  EATOM  =     73862.19814772
  Solvation  Ediel_sol  =         0.00000000
  ---------------------------------------------------
  free energy    TOTEN  =     -1112.07878304 eV

  energy without entropy =    -1112.07878304  energy(sigma->0) =    -1112.07878304


--------------------------------------------------------------------------------------------------------




--------------------------------------- Iteration      1(   5)  ---------------------------------------


    EDDIAG:  cpu time    4.3753: real time    4.7806
  RMM-DIIS:  cpu time    9.1185: real time    9.1587
    ORTHCH:  cpu time    1.1542: real time    1.2379
       DOS:  cpu time    0.0015: real time    0.0015
    --------------------------------------------
      LOOP:  cpu time   14.6496: real time   15.1787

 eigenvalue-minimisations  :  7680
 total energy-change (2. order) :-0.1042195E+03  (-0.1598921E+03)
 number of electron     672.0000000 magnetization      48.0000000
 augmentation part      672.0000000 magnetization      48.0000000

 Free energy of the ion-electron system (eV)
  ---------------------------------------------------
  alpha Z        PSCENC =      2652.81237852
  Ewald energy   TEWEN  =    -41662.21726187
  -Hartree energ DENC   =    -25937.67665299
  -exchange      EXHF   =         0.00000000
  -V(xc)+E(xc)   XCENC  =      3606.68031892
  PAW double counting   =     55594.23204139   -59034.67079123
  entropy T*S    EENTRO =        -0.00000000
  eigenvalues    EBANDS =    -10297.65650868
  atomic energy  EATOM  =     73862.19814772
  Solvation  Ediel_sol  =         0.00000000
  ---------------------------------------------------
  free energy    TOTEN  =     -1216.29832823 eV

  energy without entropy =    -1216.29832823  energy(sigma->0) =    -1216.29832823


--------------------------------------------------------------------------------------------------------




--------------------------------------- Iteration      1(   6)  ---------------------------------------


    EDDIAG:  cpu time    4.3911: real time    4.7918
  RMM-DIIS:  cpu time    9.1483: real time    9.1587
    ORTHCH:  cpu time    1.2713: real time    1.3497
       DOS:  cpu time    0.0011: real time    0.0011
    --------------------------------------------
      LOOP:  cpu time   14.8119: real time   15.3014

 eigenvalue-minimisations  :  7680
 total energy-change (2. order) :-0.8782715E+01  (-0.7937735E+02)
 number of electron     672.0000000 magnetization      48.0000000
 augmentation part      672.0000000 magnetization      48.0000000

 Free energy of the ion-electron system (eV)
  ---------------------------------------------------
  alpha Z        PSCENC =      2652.81237852
  Ewald energy   TEWEN  =    -41662.21726187
  -Hartree energ DENC   =    -25937.67665299
  -exchange      EXHF   =         0.00000000
  -V(xc)+E(xc)   XCENC  =      3606.68031892
  PAW double counting   =     55594.23204139   -59034.67079123
  entropy T*S    EENTRO =        -0.00000000
  eigenvalues    EBANDS =    -10306.43922358
  atomic energy  EATOM  =     73862.19814772
  Solvation  Ediel_sol  =         0.00000000
  ---------------------------------------------------
  free energy    TOTEN  =     -1225.08104313 eV

  energy without entropy =    -1225.08104313  energy(sigma->0) =    -1225.08104313


--------------------------------------------------------------------------------------------------------




--------------------------------------- Iteration      1(   7)  ---------------------------------------


    EDDIAG:  cpu time    4.3589: real time    4.7755
  RMM-DIIS:  cpu time    9.1121: real time    9.1565
    ORTHCH:  cpu time    1.1548: real time    1.2344
       DOS:  cpu time    0.0014: real time    0.0014
    --------------------------------------------
      LOOP:  cpu time   14.6272: real time   15.1678

 eigenvalue-minimisations  :  7680
 total energy-change (2. order) :-0.1676480E+01  (-0.4833505E+02)
 number of electron     672.0000000 magnetization      48.0000000
 augmentation part      672.0000000 magnetization      48.0000000

 Free energy of the ion-electron system (eV)
  ---------------------------------------------------
  alpha Z        PSCENC =      2652.81237852
  Ewald energy   TEWEN  =    -41662.21726187
  -Hartree energ DENC   =    -25937.67665299
  -exchange      EXHF   =         0.00000000
  -V(xc)+E(xc)   XCENC  =      3606.68031892
  PAW double counting   =     55594.23204139   -59034.67079123
  entropy T*S    EENTRO =        -0.00000000
  eigenvalues    EBANDS =    -10308.11570370
  atomic energy  EATOM  =     73862.19814772
  Solvation  Ediel_sol  =         0.00000000
  ---------------------------------------------------
  free energy    TOTEN  =     -1226.75752324 eV

  energy without entropy =    -1226.75752324  energy(sigma->0) =    -1226.75752324


--------------------------------------------------------------------------------------------------------




--------------------------------------- Iteration      1(   8)  ---------------------------------------


    EDDIAG:  cpu time    4.3778: real time    4.7923
  RMM-DIIS:  cpu time    9.1402: real time    9.1473
    ORTHCH:  cpu time    1.1797: real time    1.2588
       DOS:  cpu time    0.0020: real time    0.0020
    --------------------------------------------
      LOOP:  cpu time   14.6996: real time   15.2004

 eigenvalue-minimisations  :  7680
 total energy-change (2. order) : 0.5042572E+01  (-0.2995179E+02)
 number of electron     672.0000000 magnetization      48.0000000
 augmentation part      672.0000000 magnetization      48.0000000

 Free energy of the ion-electron system (eV)
  ---------------------------------------------------
  alpha Z        PSCENC =      2652.81237852
  Ewald energy   TEWEN  =    -41662.21726187
  -Hartree energ DENC   =    -25937.67665299
  -exchange      EXHF   =         0.00000000
  -V(xc)+E(xc)   XCENC  =      3606.68031892
  PAW double counting   =     55594.23204139   -59034.67079123
  entropy T*S    EENTRO =        -0.00000000
  eigenvalues    EBANDS =    -10303.07313151
  atomic energy  EATOM  =     73862.19814772
  Solvation  Ediel_sol  =         0.00000000
  ---------------------------------------------------
  free energy    TOTEN  =     -1221.71495106 eV

  energy without entropy =    -1221.71495106  energy(sigma->0) =    -1221.71495106


--------------------------------------------------------------------------------------------------------




--------------------------------------- Iteration      1(   9)  ---------------------------------------


    EDDIAG:  cpu time    4.3703: real time    4.7731
  RMM-DIIS:  cpu time   19.1593: real time   19.2117
    ORTHCH:  cpu time    1.1466: real time    1.2293
       DOS:  cpu time    0.0013: real time    0.0013
    --------------------------------------------
      LOOP:  cpu time   24.6775: real time   25.2154

 eigenvalue-minimisations  : 21782
 total energy-change (2. order) : 0.9261665E+01  (-0.1321901E+02)
 number of electron     672.0000000 magnetization      48.0000000
 augmentation part      672.0000000 magnetization      48.0000000

 Free energy of the ion-electron system (eV)
  ---------------------------------------------------
  alpha Z        PSCENC =      2652.81237852
  Ewald energy   TEWEN  =    -41662.21726187
  -Hartree energ DENC   =    -25937.67665299
  -exchange      EXHF   =         0.00000000
  -V(xc)+E(xc)   XCENC  =      3606.68031892
  PAW double counting   =     55594.23204139   -59034.67079123
  entropy T*S    EENTRO =        -0.00000000
  eigenvalues    EBANDS =    -10293.81146697
  atomic energy  EATOM  =     73862.19814772
  Solvation  Ediel_sol  =         0.00000000
  ---------------------------------------------------
  free energy    TOTEN  =     -1212.45328651 eV

  energy without entropy =    -1212.45328651  energy(sigma->0) =    -1212.45328651


--------------------------------------------------------------------------------------------------------




--------------------------------------- Iteration      1(  10)  ---------------------------------------


    EDDIAG:  cpu time    4.4379: real time    4.8434
  RMM-DIIS:  cpu time   17.7868: real time   17.8756
    ORTHCH:  cpu time    1.1532: real time    1.2311
       DOS:  cpu time    0.0014: real time    0.0014
    --------------------------------------------
      LOOP:  cpu time   23.3793: real time   23.9514

 eigenvalue-minimisations  : 19753
 total energy-change (2. order) :-0.1863473E+01  (-0.5224169E+00)
 number of electron     672.0000000 magnetization      48.0000000
 augmentation part      672.0000000 magnetization      48.0000000

 Free energy of the ion-electron system (eV)
  ---------------------------------------------------
  alpha Z        PSCENC =      2652.81237852
  Ewald energy   TEWEN  =    -41662.21726187
  -Hartree energ DENC   =    -25937.67665299
  -exchange      EXHF   =         0.00000000
  -V(xc)+E(xc)   XCENC  =      3606.68031892
  PAW double counting   =     55594.23204139   -59034.67079123
  entropy T*S    EENTRO =        -0.00000000
  eigenvalues    EBANDS =    -10295.67493974
  atomic energy  EATOM  =     73862.19814772
  Solvation  Ediel_sol  =         0.00000000
  ---------------------------------------------------
  free energy    TOTEN  =     -1214.31675929 eV

  energy without entropy =    -1214.31675929  energy(sigma->0) =    -1214.31675929


--------------------------------------------------------------------------------------------------------




--------------------------------------- Iteration      1(  11)  ---------------------------------------


    EDDIAG:  cpu time    4.3602: real time    4.7821
  RMM-DIIS:  cpu time   19.6067: real time   19.6335
    ORTHCH:  cpu time    1.1550: real time    1.2348
       DOS:  cpu time    0.0016: real time    0.0016
    --------------------------------------------
      LOOP:  cpu time   25.1235: real time   25.6520

 eigenvalue-minimisations  : 22691
 total energy-change (2. order) : 0.6747293E-01  (-0.4320412E-01)
 number of electron     672.0000000 magnetization      48.0000000
 augmentation part      672.0000000 magnetization      48.0000000

 Free energy of the ion-electron system (eV)
  ---------------------------------------------------
  alpha Z        PSCENC =      2652.81237852
  Ewald energy   TEWEN  =    -41662.21726187
  -Hartree energ DENC   =    -25937.67665299
  -exchange      EXHF   =         0.00000000
  -V(xc)+E(xc)   XCENC  =      3606.68031892
  PAW double counting   =     55594.23204139   -59034.67079123
  entropy T*S    EENTRO =        -0.00000000
  eigenvalues    EBANDS =    -10295.60746681
  atomic energy  EATOM  =     73862.19814772
  Solvation  Ediel_sol  =         0.00000000
  ---------------------------------------------------
  free energy    TOTEN  =     -1214.24928636 eV

  energy without entropy =    -1214.24928636  energy(sigma->0) =    -1214.24928636


--------------------------------------------------------------------------------------------------------




--------------------------------------- Iteration      1(  12)  ---------------------------------------


    EDDIAG:  cpu time    4.4060: real time    4.8154
  RMM-DIIS:  cpu time   21.5641: real time   21.5740
    ORTHCH:  cpu time    1.1589: real time    1.2785
       DOS:  cpu time    0.0010: real time    0.0011
    CHARGE:  cpu time    1.7794: real time    1.7836
    MIXING:  cpu time    0.0009: real time    0.0011
    --------------------------------------------
      LOOP:  cpu time   28.9103: real time   29.4537

 eigenvalue-minimisations  : 24385
 total energy-change (2. order) :-0.4402847E-03  (-0.4107601E-02)
 number of electron     671.9999922 magnetization      47.9999963
 augmentation part      239.1453089 magnetization      29.0435830

 Broyden mixing:
  rms(total) = 0.12624E+02    rms(broyden)= 0.12614E+02
  rms(prec ) = 0.14467E+02
  weight for this iteration     100.00

 Free energy of the ion-electron system (eV)
  ---------------------------------------------------
  alpha Z        PSCENC =      2652.81237852
  Ewald energy   TEWEN  =    -41662.21726187
  -Hartree energ DENC   =    -25937.67665299
  -exchange      EXHF   =         0.00000000
  -V(xc)+E(xc)   XCENC  =      3606.68031892
  PAW double counting   =     55594.23204139   -59034.67079123
  entropy T*S    EENTRO =        -0.00000000
  eigenvalues    EBANDS =    -10295.60790709
  atomic energy  EATOM  =     73862.19814772
  Solvation  Ediel_sol  =         0.00000000
  ---------------------------------------------------
  free energy    TOTEN  =     -1214.24972664 eV

  energy without entropy =    -1214.24972664  energy(sigma->0) =    -1214.24972664


--------------------------------------------------------------------------------------------------------




--------------------------------------- Iteration      1(  13)  ---------------------------------------


    POTLOK:  cpu time    0.1744: real time    0.1747
    SETDIJ:  cpu time    4.9517: real time    4.9527
    EDDIAG:  cpu time    4.3854: real time    4.7808
  RMM-DIIS:  cpu time   17.4052: real time   17.4254
    ORTHCH:  cpu time    1.1575: real time    1.2483
       DOS:  cpu time    0.0019: real time    0.0019
    CHARGE:  cpu time    1.7769: real time    1.7778
    MIXING:  cpu time    0.0009: real time    0.0009
    --------------------------------------------
      LOOP:  cpu time   29.8539: real time   30.3625

 eigenvalue-minimisations  : 18804
 total energy-change (2. order) : 0.2287266E+03  (-0.1217913E+03)
 number of electron     671.9999797 magnetization      47.9999957
 augmentation part      269.1810113 magnetization      26.2784405

 Broyden mixing:
  rms(total) = 0.14003E+02    rms(broyden)= 0.14000E+02
  rms(prec ) = 0.15772E+02
  weight for this iteration     100.00

 eigenvalues of (default mixing * dielectric matrix)
  average eigenvalue GAMMA=   0.3194
  0.3194

 Free energy of the ion-electron system (eV)
  ---------------------------------------------------
  alpha Z        PSCENC =      2652.81237852
  Ewald energy   TEWEN  =    -41662.21726187
  -Hartree energ DENC   =    -25275.32376942
  -exchange      EXHF   =         0.00000000
  -V(xc)+E(xc)   XCENC  =      3697.09590905
  PAW double counting   =     59955.65248498   -63381.39493090
  entropy T*S    EENTRO =        -0.08999753
  eigenvalues    EBANDS =    -10834.25611988
  atomic energy  EATOM  =     73862.19814772
  Solvation  Ediel_sol  =         0.00000000
  ---------------------------------------------------
  free energy    TOTEN  =      -985.52315932 eV

  energy without entropy =     -985.43316179  energy(sigma->0) =     -985.47816056


--------------------------------------------------------------------------------------------------------




--------------------------------------- Iteration      1(  14)  ---------------------------------------


    POTLOK:  cpu time    0.1782: real time    0.1783
    SETDIJ:  cpu time    4.9297: real time    4.9304
    EDDIAG:  cpu time    4.3729: real time    4.7789
  RMM-DIIS:  cpu time   17.9326: real time   17.9629
    ORTHCH:  cpu time    1.1527: real time    1.2325
       DOS:  cpu time    0.0011: real time    0.0011
    CHARGE:  cpu time    1.7813: real time    1.7836
    MIXING:  cpu time    0.0009: real time    0.0009
    --------------------------------------------
      LOOP:  cpu time   30.3493: real time   30.8686

 eigenvalue-minimisations  : 19356
 total energy-change (2. order) : 0.6940597E+02  (-0.1820495E+02)
 number of electron     671.9999876 magnetization      47.9999930
 augmentation part      246.5624369 magnetization      32.1386836

 Broyden mixing:
  rms(total) = 0.53184E+01    rms(broyden)= 0.53141E+01
  rms(prec ) = 0.57629E+01
  weight for this iteration     100.00

 eigenvalues of (default mixing * dielectric matrix)
  average eigenvalue GAMMA=   0.7326
  1.1085  0.3566

 Free energy of the ion-electron system (eV)
  ---------------------------------------------------
  alpha Z        PSCENC =      2652.81237852
  Ewald energy   TEWEN  =    -41662.21726187
  -Hartree energ DENC   =    -25892.72359093
  -exchange      EXHF   =         0.00000000
  -V(xc)+E(xc)   XCENC  =      3674.56813482
  PAW double counting   =     63372.54414037   -66855.76633253
  entropy T*S    EENTRO =        -0.00000000
  eigenvalues    EBANDS =    -10067.53281016
  atomic energy  EATOM  =     73862.19814772
  Solvation  Ediel_sol  =         0.00000000
  ---------------------------------------------------
  free energy    TOTEN  =      -916.11719406 eV

  energy without entropy =     -916.11719406  energy(sigma->0) =     -916.11719406


--------------------------------------------------------------------------------------------------------




--------------------------------------- Iteration      1(  15)  ---------------------------------------


    POTLOK:  cpu time    0.1722: real time    0.1722
    SETDIJ:  cpu time    4.9461: real time    4.9472
    EDDIAG:  cpu time    4.4027: real time    4.7890
  RMM-DIIS:  cpu time   18.1715: real time   18.1973
    ORTHCH:  cpu time    1.1462: real time    1.2281
       DOS:  cpu time    0.0010: real time    0.0011
    CHARGE:  cpu time    1.7830: real time    1.7839
    MIXING:  cpu time    0.0014: real time    0.0014
    --------------------------------------------
      LOOP:  cpu time   30.6241: real time   31.1202

 eigenvalue-minimisations  : 20285
 total energy-change (2. order) : 0.1487278E+02  (-0.2105287E+01)
 number of electron     671.9999869 magnetization      47.9999908
 augmentation part      249.6738085 magnetization      33.8021598

 Broyden mixing:
  rms(total) = 0.21883E+01    rms(broyden)= 0.21880E+01
  rms(prec ) = 0.22758E+01
  weight for this iteration     100.00

 eigenvalues of (default mixing * dielectric matrix)
  average eigenvalue GAMMA=   0.9391
  1.6897  0.3825  0.7451

 Free energy of the ion-electron system (eV)
  ---------------------------------------------------
  alpha Z        PSCENC =      2652.81237852
  Ewald energy   TEWEN  =    -41662.21726187
  -Hartree energ DENC   =    -25815.91039062
  -exchange      EXHF   =         0.00000000
  -V(xc)+E(xc)   XCENC  =      3707.98024780
  PAW double counting   =     67509.75078728   -71033.51022988
  entropy T*S    EENTRO =        -0.00000000
  eigenvalues    EBANDS =    -10122.34809642
  atomic energy  EATOM  =     73862.19814772
  Solvation  Ediel_sol  =         0.00000000
  ---------------------------------------------------
  free energy    TOTEN  =      -901.24441747 eV

  energy without entropy =     -901.24441747  energy(sigma->0) =     -901.24441747


--------------------------------------------------------------------------------------------------------




--------------------------------------- Iteration      1(  16)  ---------------------------------------


    POTLOK:  cpu time    0.1707: real time    0.1714
    SETDIJ:  cpu time    5.0069: real time    5.0079
    EDDIAG:  cpu time    4.4107: real time    4.7942
  RMM-DIIS:  cpu time   17.8328: real time   17.8607
    ORTHCH:  cpu time    1.1772: real time    1.2604
       DOS:  cpu time    0.0015: real time    0.0015
    CHARGE:  cpu time    1.7754: real time    1.7787
    MIXING:  cpu time    0.0010: real time    0.0010
    --------------------------------------------
      LOOP:  cpu time   30.3761: real time   30.8758

 eigenvalue-minimisations  : 19158
 total energy-change (2. order) :-0.1472299E+01  (-0.6753399E+00)
 number of electron     671.9999860 magnetization      47.9999900
 augmentation part      251.1760858 magnetization      33.8881387

 Broyden mixing:
  rms(total) = 0.14498E+01    rms(broyden)= 0.14493E+01
  rms(prec ) = 0.15348E+01
  weight for this iteration     100.00

 eigenvalues of (default mixing * dielectric matrix)
  average eigenvalue GAMMA=   0.9723
  2.0771  0.9020  0.3889  0.5212

 Free energy of the ion-electron system (eV)
  ---------------------------------------------------
  alpha Z        PSCENC =      2652.81237852
  Ewald energy   TEWEN  =    -41662.21726187
  -Hartree energ DENC   =    -25765.80317092
  -exchange      EXHF   =         0.00000000
  -V(xc)+E(xc)   XCENC  =      3708.95129845
  PAW double counting   =     70412.89589836   -73965.79800781
  entropy T*S    EENTRO =        -0.00000000
  eigenvalues    EBANDS =    -10145.75599906
  atomic energy  EATOM  =     73862.19814772
  Solvation  Ediel_sol  =         0.00000000
  ---------------------------------------------------
  free energy    TOTEN  =      -902.71671662 eV

  energy without entropy =     -902.71671662  energy(sigma->0) =     -902.71671662


--------------------------------------------------------------------------------------------------------




--------------------------------------- Iteration      1(  17)  ---------------------------------------


    POTLOK:  cpu time    0.1723: real time    0.1730
    SETDIJ:  cpu time    5.0066: real time    5.0103
    EDDIAG:  cpu time    4.4015: real time    4.7910
  RMM-DIIS:  cpu time   18.6467: real time   18.6775
    ORTHCH:  cpu time    1.1494: real time    1.2318
       DOS:  cpu time    0.0011: real time    0.0011
    CHARGE:  cpu time    1.7823: real time    1.7867
    MIXING:  cpu time    0.0018: real time    0.0018
    --------------------------------------------
      LOOP:  cpu time   31.1617: real time   31.6731

 eigenvalue-minimisations  : 20392
 total energy-change (2. order) : 0.1122039E+00  (-0.6682388E-01)
 number of electron     671.9999862 magnetization      47.9999894
 augmentation part      251.1580313 magnetization      33.8907717

 Broyden mixing:
  rms(total) = 0.78352E+00    rms(broyden)= 0.78339E+00
  rms(prec ) = 0.88403E+00
  weight for this iteration     100.00

 eigenvalues of (default mixing * dielectric matrix)
  average eigenvalue GAMMA=   0.9979
  2.2269  1.1314  0.3790  0.6891  0.5632

 Free energy of the ion-electron system (eV)
  ---------------------------------------------------
  alpha Z        PSCENC =      2652.81237852
  Ewald energy   TEWEN  =    -41662.21726187
  -Hartree energ DENC   =    -25755.42740575
  -exchange      EXHF   =         0.00000000
  -V(xc)+E(xc)   XCENC  =      3706.15990039
  PAW double counting   =     71308.88873601   -74870.47040030
  entropy T*S    EENTRO =        -0.00000000
  eigenvalues    EBANDS =    -10144.54860744
  atomic energy  EATOM  =     73862.19814772
  Solvation  Ediel_sol  =         0.00000000
  ---------------------------------------------------
  free energy    TOTEN  =      -902.60451272 eV

  energy without entropy =     -902.60451272  energy(sigma->0) =     -902.60451272


--------------------------------------------------------------------------------------------------------




--------------------------------------- Iteration      1(  18)  ---------------------------------------


    POTLOK:  cpu time    0.1692: real time    0.1695
    SETDIJ:  cpu time    5.0114: real time    5.0152
    EDDIAG:  cpu time    4.4290: real time    4.8385
  RMM-DIIS:  cpu time   17.9579: real time   18.0179
    ORTHCH:  cpu time    1.1462: real time    1.2300
       DOS:  cpu time    0.0010: real time    0.0010
    CHARGE:  cpu time    1.7813: real time    1.7852
    MIXING:  cpu time    0.0014: real time    0.0014
    --------------------------------------------
      LOOP:  cpu time   30.4976: real time   31.0588

 eigenvalue-minimisations  : 19046
 total energy-change (2. order) : 0.4172979E+00  (-0.7107272E-01)
 number of electron     671.9999864 magnetization      47.9999892
 augmentation part      250.6585393 magnetization      33.8604354

 Broyden mixing:
  rms(total) = 0.28914E+00    rms(broyden)= 0.28889E+00
  rms(prec ) = 0.30380E+00
  weight for this iteration     100.00

 eigenvalues of (default mixing * dielectric matrix)
  average eigenvalue GAMMA=   1.0177
  2.4487  1.3690  0.8454  0.3806  0.5916  0.4706

 Free energy of the ion-electron system (eV)
[...]
   4      -0.766    -0.478     1.244     0.016    -0.067     0.149
   5      -0.788    -0.515     1.303     0.018     0.069     0.050
   6      -0.738    -0.921     1.659     0.251    -0.012     0.113
   7      -0.828    -1.024     1.852    -0.205     0.005    -0.023
   8      -0.704    -1.087     1.791    -0.189    -0.025    -0.034
   9      -0.578    -0.979     1.557    -0.199    -0.029    -0.031
  10      -1.099    -0.543     1.642     0.030     0.049    -0.056
  11      -0.963    -0.912     1.875    -0.177    -0.001    -0.039
  12      -0.836    -0.451     1.287     0.037    -0.004     0.007
  13      -0.638    -0.751     1.389     0.172     0.048    -0.079
  14      -0.936    -0.856     1.792    -0.082     0.066     0.054
  15      -0.597    -0.801     1.399     0.152    -0.117    -0.128
  16      -0.962    -0.841     1.803    -0.219     0.023    -0.048
  17       1.468     1.536    -3.004    -0.028     0.100    -0.168
  18       1.415     1.513    -2.928     0.191    -0.194    -0.048
  19       1.426     1.482    -2.908     0.101    -0.111    -0.017
  20       1.446     1.589    -3.035     0.137     0.086    -0.087
  21       1.468     1.491    -2.959    -0.232     0.124    -0.030
  22       1.792     1.343    -3.135     0.102    -0.030     0.116
  23       1.436     1.532    -2.968     0.086    -0.099     0.286
  24       1.449     1.436    -2.885     0.089     0.021    -0.103
  25      -1.691     0.386     1.304     1.124    -0.361    -0.291
  26      -0.119     0.027     0.092    -0.176    -0.813     0.392
  27      -0.534    -1.178     1.712    -0.199    -1.092    -0.335
  28      -0.307    -0.905     1.212    -0.263    -0.202    -0.666
  29       0.661    -0.171    -0.490     0.139    -0.004     0.734
  30       0.338     1.537    -1.875     0.676    -0.907    -0.092
  31      -1.242    -0.736     1.977     0.315     0.557    -0.831
  32      -0.965     0.353     0.613    -0.494    -0.526     0.454
  33      -0.952    -0.060     1.012    -0.248     0.803    -0.101
  34      -0.536    -0.615     1.151    -0.440     0.404    -0.117
  35      -0.205    -0.133     0.337    -0.162    -0.872    -0.485
  36      -0.674     0.063     0.611    -0.432     0.403    -0.023
  37       0.073     0.009    -0.082    -0.632    -0.046     0.205
  38      -0.971    -2.674     3.645    -0.002     0.554     0.911
  39      -0.004     0.023    -0.019     0.799    -0.633     0.398
  40      -0.284    -0.982     1.266     0.610    -1.737    -0.109
  41      -1.511     1.837    -0.325    -4.640     2.632    -4.471
  42      -4.071     2.817     1.254     4.627     0.431     4.244
  43       5.949    -4.875    -1.075    -0.822    -5.295    -0.157
  44      -4.809     1.868     2.941    -5.104    -2.139     3.514
  45       5.594    -7.364     1.769     1.145     5.257     1.081
  46      -3.884     1.118     2.766     1.976    -3.267    -3.581
  47      -4.678     1.393     3.285    -4.362     3.250    -3.541
  48       5.159    -6.484     1.325    -0.851    -4.585     1.366
  49      -4.325     4.390    -0.065     4.431     2.048     5.269
  50      -1.777     2.283    -0.506    -4.679    -1.923     4.739
  51      -4.602     2.634     1.968     4.838    -2.697    -3.424
  52       7.006    -4.836    -2.170     1.800     3.586    -0.338
  53      -4.272     3.268     1.004    -3.846     1.427    -3.850
  54      -2.651     1.765     0.886     5.683     1.743     4.255
  55       5.305    -5.661     0.356     1.718    -3.496    -0.498
  56      -0.515     1.341    -0.826    -5.628    -1.447     3.170
  57       6.889    -5.768    -1.121    -0.525     4.660     1.998
  58      -3.130     0.659     2.471     4.660    -4.564    -3.464
  59      -3.226     5.116    -1.890    -5.731     1.772    -2.148
  60       6.294    -5.740    -0.554    -0.163    -4.604    -1.706
  61      -2.906     5.024    -2.118     5.473     1.415     3.973
  62      -3.358     1.954     1.405    -4.395    -3.260     3.359
  63      -1.555     1.029     0.526     5.824    -3.094    -4.118
  64       4.389    -4.633     0.244    -0.240     3.572     0.811
  65      -2.173     3.251    -1.078    -4.871     4.056    -3.971
  66      -3.464     3.304     0.160     4.301     1.926     3.483
  67       4.549    -6.560     2.011    -0.274    -4.631    -0.645
  68      -4.750     4.707     0.043    -3.772    -0.499     4.381
  69       5.268    -5.211    -0.057    -0.450     4.180     0.202
  70      -3.266     2.068     1.198     4.507    -1.304    -4.987
  71      -3.527     1.513     2.015    -5.268     2.423    -3.822
  72       3.873    -5.939     2.066     0.089    -5.826     1.060
  73      -3.343     1.695     1.647     3.812     0.778     4.514
  74      -4.110     3.993     0.117    -4.031    -1.925     4.908
  75      -3.312     2.337     0.976     5.070    -2.496    -3.884
  76       5.328    -6.537     1.209     0.036     4.398    -0.886
  77      -3.227     2.011     1.217    -4.184     2.833    -2.909
  78      -3.139     2.410     0.729     4.691     2.625     3.227
  79       3.818    -4.410     0.592     0.469    -4.818    -1.467
  80      -2.725     0.938     1.787    -4.720    -3.115     4.861
  81       3.477    -5.333     1.856     0.742     4.945     0.662
  82      -3.116     1.385     1.732     5.327    -2.105    -4.094
  83      -1.920     0.668     1.252    -5.766     2.731    -4.450
  84       7.744    -8.007     0.263     0.642    -4.253     1.021
  85      -2.914    -0.059     2.973     4.929     3.809     4.863
  86      -3.573     2.908     0.665    -4.281    -4.949     2.294
  87      -2.528     1.823     0.705     4.708    -3.752    -4.766
  88       4.229    -5.388     1.158     1.846     5.766    -0.068
 ---------------------------------------------------------------------


 Total hyperfine coupling parameters after diagonalization (MHz)
 (convention: |A_zz| > |A_xx| > |A_yy|)
 ----------------------------------------------------------------------
  ion      A_xx      A_yy      A_zz     asymmetry (A_yy - A_xx)/ A_zz 
 ----------------------------------------------------------------------
   1       0.322    -0.170     2.858      -0.172
   2       1.846     1.431     3.998      -0.104
   3      -0.517     0.025     2.606       0.208
   4       1.774     1.494     3.522      -0.080
   5       2.060     1.784     3.882      -0.071
   6       1.991     1.454     4.219      -0.127
   7       1.486     1.032     4.037      -0.112
   8       0.374    -0.165     2.792      -0.193
   9       2.040     1.475     4.094      -0.138
  10       2.789     2.230     4.976      -0.112
  11      -0.207     0.150     2.784       0.128
  12       1.745     1.354     3.480      -0.113
  13       1.835     1.469     3.742      -0.098
  14       0.813     0.627     3.412      -0.055
  15       1.760     1.406     3.704      -0.095
  16       0.495     0.042     2.975      -0.152
  17      14.775    10.304    14.871      -0.301
  18      13.365     9.158    13.762      -0.306
  19      13.822     9.561    14.032      -0.304
  20      15.051    10.647    15.357      -0.287
  21      15.724    11.514    16.191      -0.260
  22      16.651    12.188    17.141      -0.260
  23      14.061     9.676    14.256      -0.308
  24      12.779     8.536    12.957      -0.327
  25     100.146    97.319   101.077      -0.028
  26     100.312    99.588   101.426      -0.007
  27      95.733    95.076    98.663      -0.007
  28      93.371    92.375    94.993      -0.010
  29      94.300    92.832    94.624      -0.016
  30      95.123    92.617    96.722      -0.026
  31      95.382    94.423    98.309      -0.010
  32      98.315    97.092    99.495      -0.012
  33      96.921    95.699    98.292      -0.012
  34      96.923    96.121    98.423      -0.008
  35      98.938    97.903   100.009      -0.010
  36      96.415    95.264    96.980      -0.012
  37      92.591    92.067    93.398      -0.006
  38      97.165    95.389   102.032      -0.017
  39     100.111    98.499   100.589      -0.016
  40     102.257   101.284   105.439      -0.009
  41       4.052     2.552    15.643      -0.096
  42       6.742     0.936    15.358      -0.378
  43       4.520     3.075    17.030      -0.085
  44       6.969    -0.199    15.355      -0.467
  45       5.985     0.370    17.307      -0.324
  46       4.886     1.293    13.506      -0.266
  47       9.199     3.096    18.409      -0.332
  48       7.361     2.285    17.358      -0.292
  49       1.463    -1.349    14.404      -0.195
  50      -2.736    -0.467    10.776       0.211
  51       8.289     2.105    17.300      -0.357
  52       2.386    -0.035    13.826      -0.175
  53       5.387     1.082    14.457      -0.298
  54       7.541     2.524    17.595      -0.285
  55       7.149     2.651    15.926      -0.282
  56       3.758     0.177    13.191      -0.271
  57       6.802     2.018    17.966      -0.266
  58       6.787     1.894    17.386      -0.281
  59       4.602     0.855    15.825      -0.237
  60       6.704     2.391    17.499      -0.246
  61       5.563     3.265    18.432      -0.125
  62       4.641     0.185    14.005      -0.318
  63       4.163     0.570    15.682      -0.229
  64       6.822     3.555    14.863      -0.220
  65       3.289     0.482    15.546      -0.181
  66       4.943     1.353    14.451      -0.248
  67       5.232     0.013    14.748      -0.354
  68       7.308     3.058    17.614      -0.241
  69       2.875    -0.098    12.740      -0.233
  70       3.710    -0.436    13.979      -0.297
  71       9.476     3.945    18.955      -0.292
  72       2.491    -1.004    14.080      -0.248
  73       3.928    -0.403    12.608      -0.343
  74       3.986     1.275    15.893      -0.171
  75       6.719     2.368    16.911      -0.257
  76       6.395     1.200    16.005      -0.325
  77       4.239    -0.254    12.516      -0.359
  78       6.764     2.515    15.984      -0.266
  79       2.589     0.121    12.479      -0.198
  80       3.561     0.506    15.340      -0.199
  81       7.532     4.466    17.628      -0.174
  82       9.050     3.849    18.712      -0.278
  83       3.116    -1.269    14.176      -0.309
  84       7.464     0.680    18.576      -0.365
  85       3.769     0.022    16.138      -0.232
  86       8.293     1.282    16.615      -0.422
  87       3.583     1.419    16.237      -0.133
  88       5.861     2.606    17.440      -0.187
 ---------------------------------------------------------------------



--------------------------------------------------------------------------------------------------------


 stress matrix after NEB project (eV)
    -40.69489      0.83873      0.59456
      0.83706    -42.66145     -1.33222
      0.61750     -1.29786    -52.34319
  FORCES: max atom, RMS     2.804022    1.173571
  FORCE total and by dimension   11.009072    2.540319
  Stress total and by dimension   78.876367   52.343189
     LOOP+:  cpu time  785.7952: real time  801.1357
    4ORBIT:  cpu time    0.0000: real time    0.0000
 


 total charge     
 
# of ion       s       p       d       tot
------------------------------------------
    1        0.051   5.996   0.000   6.047
    2        0.051   5.994   0.000   6.046
    3        0.051   5.995   0.000   6.046
    4        0.048   5.990   0.000   6.037
    5        0.053   5.996   0.000   6.049
    6        0.051   5.992   0.000   6.044
    7        0.055   6.000   0.000   6.055
    8        0.054   5.998   0.000   6.052
    9        0.054   5.997   0.000   6.051
   10        0.049   5.991   0.000   6.040
   11        0.054   5.999   0.000   6.053
   12        0.044   5.986   0.000   6.030
   13        0.050   5.994   0.000   6.043
   14        0.049   5.993   0.000   6.042
   15        0.049   5.990   0.000   6.039
   16        0.051   5.996   0.000   6.047
   17        0.152   6.134   0.088   6.373
   18        0.150   6.128   0.084   6.363
   19        0.150   6.127   0.083   6.359
   20        0.155   6.139   0.093   6.387
   21        0.145   6.122   0.080   6.346
   22        0.154   6.137   0.092   6.383
   23        0.151   6.133   0.088   6.372
   24        0.145   6.123   0.080   6.349
   25        0.369   6.443   4.817  11.629
   26        0.364   6.432   4.809  11.606
   27        0.373   6.450   4.815  11.638
   28        0.385   6.475   4.842  11.702
   29        0.391   6.485   4.863  11.738
   30        0.386   6.479   4.860  11.725
   31        0.388   6.473   4.865  11.727
   32        0.368   6.439   4.816  11.623
   33        0.382   6.473   4.847  11.702
   34        0.373   6.449   4.830  11.652
   35        0.365   6.432   4.809  11.606
   36        0.381   6.467   4.843  11.691
   37        0.384   6.475   4.845  11.704
   38        0.375   6.452   4.824  11.651
   39        0.378   6.458   4.852  11.688
   40        0.377   6.460   4.845  11.683
   41        1.599   3.509   0.000   5.108
   42        1.597   3.502   0.000   5.099
   43        1.601   3.478   0.000   5.079
   44        1.598   3.509   0.000   5.107
   45        1.600   3.489   0.000   5.090
   46        1.596   3.523   0.000   5.120
   47        1.601   3.511   0.000   5.112
   48        1.599   3.497   0.000   5.096
   49        1.601   3.514   0.000   5.115
   50        1.598   3.492   0.000   5.090
   51        1.601   3.533   0.000   5.134
   52        1.599   3.474   0.000   5.073
   53        1.599   3.528   0.000   5.127
   54        1.600   3.529   0.000   5.129
   55        1.596   3.517   0.000   5.113
   56        1.596   3.482   0.000   5.078
   57        1.604   3.495   0.000   5.099
   58        1.600   3.524   0.000   5.123
   59        1.602   3.500   0.000   5.102
   60        1.601   3.498   0.000   5.099
   61        1.599   3.496   0.000   5.095
   62        1.596   3.506   0.000   5.102
   63        1.600   3.498   0.000   5.098
   64        1.596   3.512   0.000   5.107
   65        1.603   3.489   0.000   5.091
   66        1.598   3.525   0.000   5.123
   67        1.601   3.520   0.000   5.121
   68        1.598   3.508   0.000   5.106
   69        1.596   3.475   0.000   5.071
   70        1.601   3.533   0.000   5.134
   71        1.599   3.537   0.000   5.137
   72        1.599   3.482   0.000   5.081
   73        1.596   3.497   0.000   5.093
   74        1.599   3.481   0.000   5.080
   75        1.599   3.524   0.000   5.123
   76        1.603   3.526   0.000   5.128
   77        1.596   3.534   0.000   5.130
   78        1.599   3.550   0.000   5.149
   79        1.594   3.495   0.000   5.089
   80        1.602   3.522   0.000   5.124
   81        1.602   3.503   0.000   5.106
   82        1.598   3.522   0.000   5.120
   83        1.599   3.494   0.000   5.094
   84        1.601   3.496   0.000   5.097
   85        1.599   3.508   0.000   5.107
   86        1.599   3.520   0.000   5.120
   87        1.600   3.515   0.000   5.116
   88        1.603   3.527   0.000   5.130
--------------------------------------------------
tot         84.818 416.690  78.071 579.579
 


 magnetization (x)
 
# of ion       s       p       d       tot
------------------------------------------
    1        0.001   0.000   0.000   0.001
    2        0.002   0.000   0.000   0.002
    3        0.001   0.000   0.000   0.001
    4        0.002   0.000   0.000   0.002
    5        0.002   0.000   0.000   0.002
    6        0.002   0.000   0.000   0.002
    7        0.001   0.001   0.000   0.002
    8        0.001   0.000   0.000   0.001
    9        0.002   0.000   0.000   0.002
   10        0.002   0.000   0.000   0.003
   11        0.001   0.000   0.000   0.001
   12        0.002   0.000   0.000   0.002
   13        0.002  -0.000   0.000   0.002
   14        0.001   0.001   0.000   0.002
   15        0.002   0.000   0.000   0.002
   16        0.001   0.000   0.000   0.001
   17        0.008   0.002   0.001   0.011
   18        0.007   0.002   0.001   0.010
   19        0.007   0.002   0.001   0.010
   20        0.008   0.003   0.001   0.012
   21        0.008   0.003   0.001   0.012
   22        0.008   0.003   0.001   0.013
   23        0.007   0.002   0.001   0.011
   24        0.007   0.002   0.001   0.010
   25        0.016   0.031   2.771   2.817
   26        0.016   0.030   2.782   2.829
   27        0.015   0.031   2.769   2.815
   28        0.015   0.031   2.733   2.778
   29        0.014   0.032   2.721   2.766
   30        0.015   0.031   2.720   2.766
   31        0.015   0.029   2.724   2.768
   32        0.016   0.030   2.775   2.820
   33        0.016   0.031   2.743   2.789
   34        0.015   0.030   2.765   2.810
   35        0.016   0.030   2.784   2.831
   36        0.016   0.031   2.737   2.784
   37        0.014   0.030   2.736   2.780
   38        0.016   0.031   2.759   2.806
   39        0.016   0.030   2.742   2.788
   40        0.017   0.030   2.762   2.809
   41        0.002   0.022   0.000   0.024
   42        0.002   0.041   0.000   0.043
   43        0.002   0.030   0.000   0.032
   44        0.002   0.043   0.000   0.045
   45        0.002   0.040   0.000   0.042
   46        0.002   0.032   0.000   0.034
   47        0.003   0.055   0.000   0.058
   48        0.002   0.045   0.000   0.048
   49        0.001   0.015   0.000   0.016
   50        0.001  -0.008   0.000  -0.006
   51        0.002   0.051   0.000   0.053
   52        0.002   0.012   0.000   0.013
   53        0.002   0.030   0.000   0.032
   54        0.002   0.059   0.000   0.061
   55        0.002   0.044   0.000   0.046
   56        0.002   0.014   0.000   0.015
   57        0.002   0.033   0.000   0.036
   58        0.002   0.045   0.000   0.047
   59        0.002   0.037   0.000   0.039
   60        0.002   0.043   0.000   0.045
   61        0.002   0.041   0.000   0.043
   62        0.002   0.031   0.000   0.033
   63        0.002   0.019   0.000   0.021
   64        0.002   0.036   0.000   0.038
   65        0.002   0.015   0.000   0.017
   66        0.002   0.030   0.000   0.032
   67        0.002   0.030   0.000   0.032
   68        0.002   0.046   0.000   0.048
   69        0.002   0.010   0.000   0.011
   70        0.001   0.029   0.000   0.030
   71        0.002   0.071   0.000   0.074
   72        0.002   0.006   0.000   0.007
   73        0.002   0.018   0.000   0.020
   74        0.002   0.022   0.000   0.024
   75        0.002   0.047   0.000   0.050
   76        0.002   0.040   0.000   0.042
   77        0.001   0.026   0.000   0.027
   78        0.002   0.047   0.000   0.049
   79        0.002   0.010   0.000   0.012
   80        0.002   0.024   0.000   0.026
   81        0.003   0.042   0.000   0.045
   82        0.002   0.062   0.000   0.065
   83        0.002   0.020   0.000   0.022
   84        0.002   0.052   0.000   0.054
   85        0.002   0.027   0.000   0.029
   86        0.002   0.048   0.000   0.050
   87        0.002   0.028   0.000   0.030
   88        0.002   0.048   0.000   0.050
--------------------------------------------------
tot          0.424   2.116  44.032  46.572
 

 total amount of memory used by VASP MPI-rank0    94423. kBytes
=======================================================================

   base      :      30000. kBytes
   nonlr-proj:      13664. kBytes
   fftplans  :       1275. kBytes
   grid      :      22786. kBytes
   one-center:       2737. kBytes
   wavefun   :      23961. kBytes
 
  
  
 General timing and accounting informations for this job:
 ========================================================
  
                  Total CPU time used (sec):      806.599
                            User time (sec):      798.636
                          System time (sec):        7.963
                         Elapsed time (sec):      824.611
  
                   Maximum memory used (kb):      194168.
                   Average memory used (kb):           0.
  
                          Minor page faults:       294016
                          Major page faults:            0
                 Voluntary context switches:       266193
