 vasp.5.4.4.18Apr17-6-g9f103f2a35 (build Dec 02 2020 12:53:39) complex          
  
 executed on             LinuxIFC date 2021.08.04  11:31:39
 running on   96 total cores
 distrk:  each k-point on   96 cores,    1 groups
 distr:  one band on NCORES_PER_BAND=   1 cores,   96 groups


--------------------------------------------------------------------------------------------------------


 INCAR:
 POTCAR:    PAW_PBE Na_pv 19Sep2006               
 POTCAR:    PAW_PBE Mg_pv 13Apr2007               
 POTCAR:    PAW_PBE Mn_pv 02Aug2007               
 POTCAR:    PAW_PBE O 08Apr2002                   

 ----------------------------------------------------------------------------- 
|                                                                             |
|           W    W    AA    RRRRR   N    N  II  N    N   GGGG   !!!           |
|           W    W   A  A   R    R  NN   N  II  NN   N  G    G  !!!           |
|           W    W  A    A  R    R  N N  N  II  N N  N  G       !!!           |
|           W WW W  AAAAAA  RRRRR   N  N N  II  N  N N  G  GGG   !            |
|           WW  WW  A    A  R   R   N   NN  II  N   NN  G    G                |
|           W    W  A    A  R    R  N    N  II  N    N   GGGG   !!!           |
|                                                                             |
|      For optimal performance we recommend to set                            |
|        NCORE= 4 - approx SQRT( number of cores)                             |
|      NCORE specifies how many cores store one orbital (NPAR=cpu/NCORE).     |
|      This setting can  greatly improve the performance of VASP for DFT.     |
|      The default,   NCORE=1            might be grossly inefficient         |
|      on modern multi-core architectures or massively parallel machines.     |
|      Do your own testing !!!!                                               |
|      Unfortunately you need to use the default for GW and RPA calculations. |
|      (for HF NCORE is supported but not extensively tested yet)             |
|                                                                             |
 ----------------------------------------------------------------------------- 

 POTCAR:    PAW_PBE Na_pv 19Sep2006               
   VRHFIN =Na: p6s1                                                             
   LEXCH  = PE                                                                  
   EATOM  =   766.0439 eV,   56.3026 Ry                                         
                                                                                
   TITEL  = PAW_PBE Na_pv 19Sep2006                                             
   LULTRA =        F    use ultrasoft PP ?                                      
   IUNSCR =        1    unscreen: 0-lin 1-nonlin 2-no                           
   RPACOR =    1.800    partial core radius                                     
   POMASS =   22.990; ZVAL   =    7.000    mass and valenz                      
   RCORE  =    2.200    outmost cutoff radius                                   
   RWIGS  =    2.200; RWIGS  =    1.164    wigner-seitz radius (au A)           
   ENMAX  =  259.561; ENMIN  =  194.671 eV                                      
   ICORE  =        2    local potential                                         
   LCOR   =        T    correct aug charges                                     
   LPAW   =        T    paw PP                                                  
   EAUG   =  368.056                                                            
   DEXC   =    0.000                                                            
   RMAX   =    2.245    core radius for proj-oper                               
   RAUG   =    1.300    factor for augmentation sphere                          
   RDEP   =    2.259    radius for radial grids                                 
   RDEPT  =    1.738    core radius for aug-charge                              
                                                                                
   Atomic configuration                                                         
    5 entries                                                                   
     n  l   j            E        occ.                                          
     1  0  0.50     -1033.6933   2.0000                                         
     2  0  0.50       -56.7526   2.0000                                         
     2  1  1.50       -28.6721   6.0000                                         
     3  0  0.50        -2.7440   1.0000                                         
     3  2  1.50        -1.3606   0.0000                                         
   Description                                                                  
     l       E           TYP  RCUT    TYP  RCUT                                 
     1    -28.6720912     23  2.000                                             
     1      6.8029130     23  2.000                                             
     0     -2.7439560     23  2.200                                             
     0     34.0145650     23  2.200                                             
     2     -1.3605826     23  2.200                                             
  local pseudopotential read in
  partial core-charges read in
  partial kinetic energy density read in
  atomic valenz-charges read in
  non local Contribution for L=           1  read in
    real space projection operators read in
  non local Contribution for L=           1  read in
    real space projection operators read in
  non local Contribution for L=           0  read in
    real space projection operators read in
  non local Contribution for L=           0  read in
    real space projection operators read in
    PAW grid and wavefunctions read in
 
   number of l-projection  operators is LMAX  =           4
   number of lm-projection operators is LMMAX =           8
 
 POTCAR:    PAW_PBE Mg_pv 13Apr2007               
   VRHFIN =Mg: p6s2                                                             
   LEXCH  = PE                                                                  
   EATOM  =  1056.7344 eV,   77.6678 Ry                                         
                                                                                
   TITEL  = PAW_PBE Mg_pv 13Apr2007                                             
   LULTRA =        F    use ultrasoft PP ?                                      
   IUNSCR =        1    unscreen: 0-lin 1-nonlin 2-no                           
   RPACOR =    1.500    partial core radius                                     
   POMASS =   24.305; ZVAL   =    8.000    mass and valenz                      
   RCORE  =    2.000    outmost cutoff radius                                   
   RWIGS  =    2.000; RWIGS  =    1.058    wigner-seitz radius (au A)           
   ENMAX  =  403.929; ENMIN  =  302.947 eV                                      
   RCLOC  =    1.506    cutoff for local pot                                    
   LCOR   =        T    correct aug charges                                     
   LPAW   =        T    paw PP                                                  
   EAUG   =  758.780                                                            
   DEXC   =    0.000                                                            
   RMAX   =    2.045    core radius for proj-oper                               
   RAUG   =    1.300    factor for augmentation sphere                          
   RDEP   =    2.025    radius for radial grids                                 
   RDEPT  =    1.557    core radius for aug-charge                              
                                                                                
   Atomic configuration                                                         
    5 entries                                                                   
     n  l   j            E        occ.                                          
     1  0  0.50     -1259.6230   2.0000                                         
     2  0  0.50       -79.8442   2.0000                                         
     2  1  1.50       -46.6121   6.0000                                         
     3  0  0.50        -4.7055   2.0000                                         
     3  2  1.50        -1.3606   0.0000                                         
   Description                                                                  
     l       E           TYP  RCUT    TYP  RCUT                                 
     1    -46.6121073     23  1.600                                             
     1      2.7211652     23  1.600                                             
     0     -4.7054661     23  2.000                                             
     0     61.2262170     23  2.000                                             
     2     -1.3605826     23  2.000                                             
  local pseudopotential read in
  partial core-charges read in
  partial kinetic energy density read in
  atomic valenz-charges read in
  non local Contribution for L=           1  read in
    real space projection operators read in
  non local Contribution for L=           1  read in
    real space projection operators read in
  non local Contribution for L=           0  read in
    real space projection operators read in
  non local Contribution for L=           0  read in
    real space projection operators read in
  non local Contribution for L=           2  read in
    real space projection operators read in
    PAW grid and wavefunctions read in
 
   number of l-projection  operators is LMAX  =           5
   number of lm-projection operators is LMMAX =          13
 
 POTCAR:    PAW_PBE Mn_pv 02Aug2007               
   VRHFIN =Mn: 3p4s3d                                                           
   LEXCH  = PE                                                                  
   EATOM  =  2025.2664 eV,  148.8529 Ry                                         
                                                                                
   TITEL  = PAW_PBE Mn_pv 02Aug2007                                             
   LULTRA =        F    use ultrasoft PP ?                                      
   IUNSCR =        1    unscreen: 0-lin 1-nonlin 2-no                           
   RPACOR =    2.080    partial core radius                                     
   POMASS =   54.938; ZVAL   =   13.000    mass and valenz                      
   RCORE  =    2.300    outmost cutoff radius                                   
   RWIGS  =    2.500; RWIGS  =    1.323    wigner-seitz radius (au A)           
   ENMAX  =  269.864; ENMIN  =  202.398 eV                                      
   ICORE  =        3    local potential                                         
   LCOR   =        T    correct aug charges                                     
   LPAW   =        T    paw PP                                                  
   EAUG   =  569.085                                                            
   DEXC   =    0.000                                                            
   RMAX   =    2.343    core radius for proj-oper                               
   RAUG   =    1.300    factor for augmentation sphere                          
   RDEP   =    2.338    radius for radial grids                                 
   RDEPT  =    1.798    core radius for aug-charge                              
                                                                                
   Atomic configuration                                                         
    8 entries                                                                   
     n  l   j            E        occ.                                          
     1  0  0.50     -6424.8287   2.0000                                         
     2  0  0.50      -739.1154   2.0000                                         
     2  1  1.50      -625.3949   6.0000                                         
     3  0  0.50       -81.6100   2.0000                                         
     3  1  1.50       -50.4667   6.0000                                         
     3  2  2.50        -3.3745   6.0000                                         
     4  0  0.50        -4.1331   1.0000                                         
     4  3  2.50        -1.3606   0.0000                                         
   Description                                                                  
     l       E           TYP  RCUT    TYP  RCUT                                 
     1    -50.4666628     23  2.000                                             
     1     -1.3605826     23  2.000                                             
     2     -3.3744729     23  2.300                                             
     2     -4.7350555     23  2.300                                             
     0     -4.1331431     23  2.300                                             
     0      7.6656591     23  2.300                                             
     3      9.5240782     23  2.300                                             
  local pseudopotential read in
  partial core-charges read in
  partial kinetic energy density read in
  atomic valenz-charges read in
  non local Contribution for L=           1  read in
    real space projection operators read in
  non local Contribution for L=           1  read in
    real space projection operators read in
  non local Contribution for L=           2  read in
    real space projection operators read in
  non local Contribution for L=           2  read in
    real space projection operators read in
  non local Contribution for L=           0  read in
    real space projection operators read in
  non local Contribution for L=           0  read in
    real space projection operators read in
    PAW grid and wavefunctions read in
 
   number of l-projection  operators is LMAX  =           6
   number of lm-projection operators is LMMAX =          18
 
 POTCAR:    PAW_PBE O 08Apr2002                   
   VRHFIN =O: s2p4                                                              
   LEXCH  = PE                                                                  
   EATOM  =   432.3788 eV,   31.7789 Ry                                         
                                                                                
   TITEL  = PAW_PBE O 08Apr2002                                                 
   LULTRA =        F    use ultrasoft PP ?                                      
   IUNSCR =        1    unscreen: 0-lin 1-nonlin 2-no                           
   RPACOR =    1.200    partial core radius                                     
   POMASS =   16.000; ZVAL   =    6.000    mass and valenz                      
   RCORE  =    1.520    outmost cutoff radius                                   
   RWIGS  =    1.550; RWIGS  =    0.820    wigner-seitz radius (au A)           
   ENMAX  =  400.000; ENMIN  =  300.000 eV                                      
   ICORE  =        2    local potential                                         
   LCOR   =        T    correct aug charges                                     
   LPAW   =        T    paw PP                                                  
   EAUG   =  605.392                                                            
   DEXC   =    0.000                                                            
   RMAX   =    1.553    core radius for proj-oper                               
   RAUG   =    1.300    factor for augmentation sphere                          
   RDEP   =    1.550    radius for radial grids                                 
   RDEPT  =    1.329    core radius for aug-charge                              
                                                                                
   Atomic configuration                                                         
    4 entries                                                                   
     n  l   j            E        occ.                                          
     1  0  0.50      -514.6923   2.0000                                         
     2  0  0.50       -23.9615   2.0000                                         
     2  1  0.50        -9.0305   4.0000                                         
     3  2  1.50        -9.5241   0.0000                                         
   Description                                                                  
     l       E           TYP  RCUT    TYP  RCUT                                 
     0    -23.9615318     23  1.200                                             
     0     -9.5240782     23  1.200                                             
     1     -9.0304911     23  1.520                                             
     1      8.1634956     23  1.520                                             
     2     -9.5240782      7  1.500                                             
  local pseudopotential read in
  partial core-charges read in
  partial kinetic energy density read in
  kinetic energy density of atom read in
  atomic valenz-charges read in
  non local Contribution for L=           0  read in
    real space projection operators read in
  non local Contribution for L=           0  read in
    real space projection operators read in
  non local Contribution for L=           1  read in
    real space projection operators read in
  non local Contribution for L=           1  read in
    real space projection operators read in
    PAW grid and wavefunctions read in
 
   number of l-projection  operators is LMAX  =           4
   number of lm-projection operators is LMMAX =           8
 
 Optimization of the real space projectors (new method)

 maximal supplied QI-value         = 17.01
 optimisation between [QCUT,QGAM] = [ 10.20, 20.41] = [ 29.16,116.64] Ry 
 Optimized for a Real-space Cutoff    1.30 Angstroem

   l    n(q)    QCUT    max X(q) W(low)/X(q) W(high)/X(q)  e(spline) 
   1      7    10.205     4.940    0.23E-03    0.84E-03    0.11E-06
   1      7    10.205     6.253    0.40E-03    0.13E-02    0.18E-06
   0      8    10.205    37.438    0.23E-03    0.37E-03    0.42E-07
   0      8    10.205     9.606    0.16E-03    0.26E-03    0.31E-07
 Optimization of the real space projectors (new method)

 maximal supplied QI-value         = 18.90
 optimisation between [QCUT,QGAM] = [ 10.20, 20.41] = [ 29.16,116.64] Ry 
 Optimized for a Real-space Cutoff    1.26 Angstroem

   l    n(q)    QCUT    max X(q) W(low)/X(q) W(high)/X(q)  e(spline) 
   1      7    10.205     2.974    0.63E-04    0.14E-03    0.13E-06
   1      7    10.205     4.279    0.11E-03    0.45E-03    0.24E-06
   0      8    10.205    16.381    0.44E-03    0.15E-03    0.55E-07
   0      8    10.205     5.611    0.31E-03    0.11E-03    0.40E-07
   2      7    10.205     4.652    0.50E-03    0.47E-03    0.57E-07
 Optimization of the real space projectors (new method)

 maximal supplied QI-value         = 16.25
 optimisation between [QCUT,QGAM] = [ 10.24, 20.48] = [ 29.35,117.42] Ry 
 Optimized for a Real-space Cutoff    1.34 Angstroem

   l    n(q)    QCUT    max X(q) W(low)/X(q) W(high)/X(q)  e(spline) 
   1      8    10.239     3.658    0.23E-03    0.30E-03    0.98E-07
   1      8    10.239     5.612    0.32E-03    0.65E-03    0.21E-06
   2      7    10.239    55.373    0.42E-03    0.45E-03    0.65E-07
   2      7    10.239    50.863    0.43E-03    0.48E-03    0.67E-07
   0      8    10.239    79.536    0.11E-03    0.21E-03    0.56E-07
   0      8    10.239    38.668    0.96E-04    0.19E-03    0.52E-07
 Optimization of the real space projectors (new method)

 maximal supplied QI-value         = 24.76
 optimisation between [QCUT,QGAM] = [ 10.15, 20.30] = [ 28.85,115.39] Ry 
 Optimized for a Real-space Cutoff    1.38 Angstroem

   l    n(q)    QCUT    max X(q) W(low)/X(q) W(high)/X(q)  e(spline) 
   0      8    10.150    20.381    0.22E-03    0.32E-03    0.29E-06
   0      8    10.150    15.268    0.23E-03    0.35E-03    0.30E-06
   1      8    10.150     5.964    0.46E-03    0.53E-03    0.21E-06
   1      8    10.150     5.382    0.38E-03    0.45E-03    0.19E-06
  PAW_PBE Na_pv 19Sep2006               :
 energy of atom  1       EATOM= -766.0439
 kinetic energy error for atom=    0.0103 (will be added to EATOM!!)
  PAW_PBE Mg_pv 13Apr2007               :
 energy of atom  2       EATOM=-1056.7344
 kinetic energy error for atom=    0.0820 (will be added to EATOM!!)
  PAW_PBE Mn_pv 02Aug2007               :
 energy of atom  3       EATOM=-2025.2664
 kinetic energy error for atom=    0.0284 (will be added to EATOM!!)
  PAW_PBE O 08Apr2002                   :
 energy of atom  4       EATOM= -432.3788
 kinetic energy error for atom=    0.1156 (will be added to EATOM!!)
 
 
 POSCAR: Na Mg Mn  O                             
  positions in cartesian coordinates
  No initial velocities read in

 METAGGA = SCAN     LMAXTAU =  6    LMIXTAU =  F

 exchange correlation table for  LEXCH =        8
   RHO(1)=    0.500       N(1)  =     2000
   RHO(2)=  100.500       N(2)  =     4000

 VTST: version 3.2, (02/03/18)

 CHAIN: initializing optimizer
 
 OPT: Using VASP Dynamics algorithm
 CHAIN: Read ICHAIN            0
 
 POSCAR: Na Mg Mn  O                             
  positions in cartesian coordinates
  No initial velocities read in
 


--------------------------------------------------------------------------------------------------------


 ion  position               nearest neighbor table
   1  0.043  0.473  0.236-  66 2.20  64 2.25  55 2.27  37 2.77
   2  0.751  0.712  0.759-  85 2.25
   3  0.393  0.509  0.745-  80 2.32  83 2.37
   4  0.078  0.011  0.752-  69 2.35  47 2.36  72 2.36  25 2.87  27 2.89
   5  0.240  0.008  0.240-  41 2.18  67 2.29  76 2.29
   6  0.612  0.212  0.247-  43 2.36
   7  0.028  0.297  0.752-  57 2.23  58 2.29  60 2.30  61 2.32
   8  0.891  0.520  0.747-  68 2.19  71 2.27
   9  0.120  0.224  0.256-  50 2.25  41 2.35
  10  0.905  0.694  0.245-  65 2.24  74 2.38  36 2.84  34 2.86
  11  0.560  0.534  0.246-  78 2.15  87 2.29  33 2.80  35 2.98
  12  0.259  0.721  0.751-  81 2.21  73 2.32
  13  0.592  0.018  0.757-  56 2.22  59 2.31  49 2.34  84 2.35  29 2.73  31 2.88
  14  0.451  0.230  0.750-  48 2.23  46 2.28  49 2.30  45 2.37  26 2.89  28 2.92
  15  0.384  0.753  0.256-  86 2.18  77 2.33  40 2.96
  16  0.762  0.998  0.259-  63 2.10
  17  0.762  0.352  0.005-  60 1.94  53 1.97  66 2.02  43 2.03  49 2.18  71 2.19  30 2.76  37 2.79

  18  0.748  0.360  0.502-  75 1.98  46 1.99  52 1.99  62 2.08  57 2.10  68 2.13  39 2.82  28 2.82
                            31 2.84
  19  0.260  0.350  0.003-  55 2.00  61 2.01  78 2.02  48 2.08  41 2.10  83 2.18  25 2.81  26 2.85

  20  0.249  0.363  0.498-  50 2.02  45 2.05  87 2.09  64 2.12  58 2.12  80 2.13  27 2.86
  21  0.255  0.853  0.985-  73 1.96  77 2.02  84 2.03  42 2.08  47 2.14  67 2.16
  22  0.254  0.865  0.500-  81 2.01  44 2.04  70 2.06  86 2.07  76 2.10  51 2.12  36 2.80
  23  0.759  0.855  0.002-  65 2.01  54 2.05  85 2.05  72 2.08  79 2.13  59 2.14
  24  0.746  0.864  0.502-  88 1.98  74 2.05  63 2.05  82 2.07  56 2.09  69 2.13  32 2.80  35 2.82

  25  0.092  0.026  0.007-  41 1.87  54 1.88  67 1.88  47 1.92  72 1.92  61 1.97  19 2.81   4 2.87
                            26 2.88  30 2.93  34 2.94
  26  0.424  0.186  0.005-  42 1.82  49 1.92  47 1.93  48 1.98  41 2.01  43 2.02  29 2.83  19 2.85
                            33 2.87  25 2.88  14 2.89
  27  0.089  0.034  0.495-  69 1.90  58 1.91  44 1.92  76 1.95  50 1.97  63 2.06  36 2.78  20 2.86
                             4 2.89  28 2.90  32 2.91
  28  0.424  0.198  0.491-  46 1.88  51 1.90  44 1.92  45 1.92  50 1.92  52 1.94  18 2.82  31 2.83
                            27 2.90  14 2.92  35 2.97
  29  0.586  0.022  0.000-  84 1.86  59 1.86  53 1.91  49 1.96  42 1.96  79 1.97  13 2.73  26 2.83
                            30 2.84  38 2.92
  30  0.914  0.186  0.001-  59 1.82  53 1.85  55 1.88  61 1.91  54 1.95  60 2.00  17 2.76  29 2.84
                            37 2.85  25 2.93
  31  0.583  0.033  0.501-  62 1.83  56 1.89  88 1.94  46 1.96  51 1.98  81 2.08  32 2.81  28 2.83
                            18 2.84  13 2.88  40 2.95
  32  0.907  0.187  0.497-  62 1.82  57 1.85  63 1.86  58 1.95  64 1.96  56 2.00  24 2.80  31 2.81
                            27 2.91  39 2.95
  33  0.593  0.517  0.999-  48 1.84  71 1.86  43 1.87  65 1.93  85 2.00  78 2.02  11 2.80  26 2.87
                            34 2.88  38 2.97
  34  0.924  0.688  0.990-  72 1.79  73 1.91  65 1.93  71 1.95  66 1.96  67 1.98  10 2.86  33 2.88
                            37 2.88  25 2.94
  35  0.596  0.540  0.509-  82 1.90  45 1.91  74 1.92  68 1.94  87 1.96  52 1.96  24 2.82  36 2.91
                            40 2.93  28 2.97  11 2.98
  36  0.931  0.713  0.497-  69 1.79  70 1.90  74 1.92  76 1.93  68 1.97  75 2.05  27 2.78  22 2.80
                            10 2.84  39 2.86  35 2.91
  37  0.083  0.514  0.992-  60 1.78  83 1.87  77 1.90  55 1.91  66 1.93  73 1.95   1 2.77  17 2.79
                            30 2.85  34 2.88  38 2.93
  38  0.420  0.685  0.002-  77 1.85  84 1.88  79 1.88  78 1.90  83 1.97  85 1.99  29 2.92  37 2.93
                            33 2.97
  39  0.073  0.527  0.505-  75 1.84  70 1.86  86 1.88  64 1.98  57 1.98  80 1.99  18 2.82  36 2.86
                            40 2.94  32 2.95
  40  0.411  0.693  0.510-  80 1.89  87 1.93  86 1.95  81 1.95  82 1.97  88 1.97  35 2.93  39 2.94
                            31 2.95  15 2.96
  41  0.250  0.170  0.105-  25 1.87  26 2.01  19 2.10   5 2.18   9 2.35
  42  0.421  0.029  0.090-  26 1.82  29 1.96  21 2.08
  43  0.593  0.365  0.096-  33 1.87  26 2.02  17 2.03   6 2.36
  44  0.258  0.046  0.586-  28 1.92  27 1.92  22 2.04
  45  0.430  0.363  0.583-  35 1.91  28 1.92  20 2.05  14 2.37
  46  0.572  0.195  0.591-  28 1.88  31 1.96  18 1.99  14 2.28
  47  0.254  0.047  0.905-  25 1.92  26 1.93  21 2.14   4 2.36
  48  0.444  0.360  0.908-  33 1.84  26 1.98  19 2.08  14 2.23
  49  0.571  0.175  0.902-  26 1.92  29 1.96  17 2.18  14 2.30  13 2.34
  50  0.259  0.198  0.402-  28 1.92  27 1.97  20 2.02   9 2.25
  51  0.430  0.044  0.397-  28 1.90  31 1.98  22 2.12
  52  0.587  0.375  0.409-  28 1.94  35 1.96  18 1.99
  53  0.754  0.176  0.091-  30 1.85  29 1.91  17 1.97
  54  0.934  0.033  0.094-  25 1.88  30 1.95  23 2.05
  55  0.081  0.350  0.081-  30 1.88  37 1.91  19 2.00   1 2.27
  56  0.736  0.036  0.601-  31 1.89  32 2.00  24 2.09  13 2.22
  57  0.921  0.343  0.594-  32 1.85  39 1.98  18 2.10   7 2.23
  58  0.067  0.178  0.591-  27 1.91  32 1.95  20 2.12   7 2.29
  59  0.753  0.042  0.913-  30 1.82  29 1.86  23 2.14  13 2.31
  60  0.929  0.364  0.910-  37 1.78  17 1.94  30 2.00   7 2.30
  61  0.078  0.185  0.914-  30 1.91  25 1.97  19 2.01   7 2.32
  62  0.746  0.176  0.413-  32 1.82  31 1.83  18 2.08
  63  0.914  0.039  0.402-  32 1.86  24 2.05  27 2.06  16 2.10
  64  0.064  0.361  0.404-  32 1.96  39 1.98  20 2.12   1 2.25
  65  0.761  0.680  0.087-  34 1.93  33 1.93  23 2.01  10 2.24
  66  0.935  0.533  0.091-  37 1.93  34 1.96  17 2.02   1 2.20
  67  0.078  0.857  0.092-  25 1.88  34 1.98  21 2.16   5 2.29
  68  0.769  0.553  0.598-  35 1.94  36 1.97  18 2.13   8 2.19
  69  0.938  0.866  0.586-  36 1.79  27 1.90  24 2.13   4 2.35
  70  0.074  0.687  0.591-  39 1.86  36 1.90  22 2.06
  71  0.749  0.530  0.900-  33 1.86  34 1.95  17 2.19   8 2.27
  72  0.943  0.854  0.917-  34 1.79  25 1.92  23 2.08   4 2.36
  73  0.083  0.680  0.902-  34 1.91  37 1.95  21 1.96  12 2.32
  74  0.756  0.692  0.410-  35 1.92  36 1.92  24 2.05  10 2.38
  75  0.921  0.528  0.412-  39 1.84  18 1.98  36 2.05
  76  0.083  0.871  0.395-  36 1.93  27 1.95  22 2.10   5 2.29
  77  0.251  0.677  0.076-  38 1.85  37 1.90  21 2.02  15 2.33
  78  0.429  0.530  0.093-  38 1.90  33 2.02  19 2.02  11 2.15
  79  0.569  0.848  0.094-  38 1.88  29 1.97  23 2.13
  80  0.246  0.540  0.600-  40 1.89  39 1.99  20 2.13   3 2.32
  81  0.413  0.858  0.604-  40 1.95  22 2.01  31 2.08  12 2.21
  82  0.575  0.688  0.602-  35 1.90  40 1.97  24 2.07
  83  0.249  0.532  0.904-  37 1.87  38 1.97  19 2.18   3 2.37
  84  0.442  0.854  0.913-  29 1.86  38 1.88  21 2.03  13 2.35
  85  0.584  0.681  0.906-  38 1.99  33 2.00  23 2.05   2 2.25
  86  0.240  0.675  0.414-  39 1.88  40 1.95  22 2.07  15 2.18
  87  0.437  0.547  0.413-  40 1.93  35 1.96  20 2.09  11 2.29
  88  0.574  0.861  0.414-  31 1.94  40 1.97  24 1.98
 
  LATTYP: Found a hexagonal cell.
 ALAT       =    10.0190000534
 C/A-ratio  =     1.1196726572
  
  Lattice vectors:
  
 A1 = (  10.0190000534,   0.0000000000,   0.0000000000)
 A2 = (  -5.0095000267,   8.6767085668,   0.0000000000)
 A3 = (   0.0000000000,   0.0000000000,  11.2180004120)


Analysis of symmetry for initial positions (statically):
=====================================================================
 Subroutine PRICEL returns:
 Original cell was already a primitive cell.
 

 Routine SETGRP: Setting up the symmetry group for a 
 hexagonal supercell.


 Subroutine GETGRP returns: Found  1 space group operations
 (whereof  1 operations were pure point group operations)
 out of a pool of 24 trial point group operations.


The static configuration has the point symmetry C_1 .


Analysis of symmetry for dynamics (positions and initial velocities):
=====================================================================
 Subroutine PRICEL returns:
 Original cell was already a primitive cell.
 

 Routine SETGRP: Setting up the symmetry group for a 
 hexagonal supercell.


 Subroutine GETGRP returns: Found  1 space group operations
 (whereof  1 operations were pure point group operations)
 out of a pool of 24 trial point group operations.


The dynamic configuration has the point symmetry C_1 .


Analysis of structural, dynamic, and magnetic symmetry:
=====================================================================
 Subroutine PRICEL returns:
 Original cell was already a primitive cell.
 

 Routine SETGRP: Setting up the symmetry group for a 
 hexagonal supercell.


 Subroutine GETGRP returns: Found  1 space group operations
 (whereof  1 operations were pure point group operations)
 out of a pool of 24 trial point group operations.


The magnetic configuration has the point symmetry C_1 .


 Subroutine INISYM returns: Found  1 space group operations
 (whereof  1 operations are pure point group operations),
 and found     1 'primitive' translations

 
 

Automatic generation of k-mesh.
 generate k-points for:    2    2    2
Space group operators:
 irot       det(A)        alpha          n_x          n_y          n_z        tau_x        tau_y        tau_z
    1     1.000000     0.000000     1.000000     0.000000     0.000000     0.000000     0.000000     0.000000
 
 Subroutine IBZKPT returns following result:
 ===========================================
 
 Found      8 irreducible k-points:
 
 Following reciprocal coordinates:
            Coordinates               Weight
  0.000000  0.000000  0.000000      1.000000
  0.500000 -0.000000 -0.000000      1.000000
  0.000000  0.500000  0.000000      1.000000
  0.500000  0.500000 -0.000000      1.000000
  0.000000  0.000000  0.500000      1.000000
  0.500000 -0.000000  0.500000      1.000000
  0.000000  0.500000  0.500000      1.000000
  0.500000  0.500000  0.500000      1.000000
 
 Following cartesian coordinates:
            Coordinates               Weight
  0.000000  0.000000  0.000000      1.000000
  0.049905  0.028813 -0.000000      1.000000
  0.000000  0.057626  0.000000      1.000000
  0.049905  0.086438 -0.000000      1.000000
  0.000000  0.000000  0.044571      1.000000
  0.049905  0.028813  0.044571      1.000000
  0.000000  0.057626  0.044571      1.000000
  0.049905  0.086438  0.044571      1.000000
 


--------------------------------------------------------------------------------------------------------




 Dimension of arrays:
   k-points           NKPTS =      8   k-points in BZ     NKDIM =      8   number of bands    NBANDS=    480
   number of dos      NEDOS =    301   number of ions     NIONS =     88
   non local maximal  LDIM  =      6   non local SUM 2l+1 LMDIM =     18
   total plane-waves  NPLWV = 140000
   max r-space proj   IRMAX =   1632   max aug-charges    IRDMAX=   4555
   dimension x,y,z NGX =    50 NGY =   50 NGZ =   56
   dimension x,y,z NGXF=   100 NGYF=  100 NGZF=  112
   support grid    NGXF=   100 NGYF=  100 NGZF=  112
   ions per type =              16   8  16  48
   NGX,Y,Z   is equivalent  to a cutoff of   8.30,  8.30,  8.30 a.u.
   NGXF,Y,Z  is equivalent  to a cutoff of  16.59, 16.59, 16.60 a.u.

 SYSTEM =  unknown system                          
 POSCAR =  Na Mg Mn  O                             

 Startparameter for this run:
   NWRITE =      2    write-flag & timer
   PREC   = normal    normal or accurate (medium, high low for compatibility)
   ISTART =      0    job   : 0-new  1-cont  2-samecut
   ICHARG =      1    charge: 1-file 2-atom 10-const
   ISPIN  =      2    spin polarized calculation?
   LNONCOLLINEAR =      F non collinear calculations
   LSORBIT =      F    spin-orbit coupling
   INIWAV =      1    electr: 0-lowe 1-rand  2-diag
   LASPH  =      T    aspherical Exc in radial PAW
   METAGGA=      F    non-selfconsistent MetaGGA calc.

 Electronic Relaxation 1
   ENCUT  =  400.0 eV  29.40 Ry    5.42 a.u.  16.34 16.34 18.29*2*pi/ulx,y,z
   ENINI  =  400.0     initial cutoff
   ENAUG  =  758.8 eV  augmentation charge cutoff
   NELM   =    200;   NELMIN=  6; NELMDL=-12     # of ELM steps 
   EDIFF  = 0.1E-04   stopping-criterion for ELM
   LREAL  =      T    real-space projection
   NLSPLINE    = F    spline interpolate recip. space projectors
   LCOMPAT=      F    compatible to vasp.4.4
   GGA_COMPAT  = T    GGA compatible to vasp.4.4-vasp.4.6
   LMAXPAW     = -100 max onsite density
   LMAXMIX     =    4 max onsite mixed and CHGCAR
   VOSKOWN=      0    Vosko Wilk Nusair interpolation
   ROPT   =   -0.00050  -0.00050  -0.00050  -0.00050
 Ionic relaxation
   EDIFFG = 0.1E-03   stopping-criterion for IOM
   NSW    =      1    number of steps for IOM
   NBLOCK =      1;   KBLOCK =      1    inner block; outer block 
   IBRION =     -1    ionic relax: 0-MD 1-quasi-New 2-CG
   NFREE  =      0    steps in history (QN), initial steepest desc. (CG)
   ISIF   =      2    stress and relaxation
   IWAVPR =     10    prediction:  0-non 1-charg 2-wave 3-comb
   ISYM   =      2    0-nonsym 1-usesym 2-fastsym
   LCORR  =      T    Harris-Foulkes like correction to forces

   POTIM  = 0.5000    time-step for ionic-motion
   TEIN   =    0.0    initial temperature
   TEBEG  =    0.0;   TEEND  =   0.0 temperature during run
   SMASS  =  -3.00    Nose mass-parameter (am)
   estimated Nose-frequenzy (Omega)   =  0.10E-29 period in steps =****** mass=  -0.229E-26a.u.
   SCALEE = 1.0000    scale energy and forces
   NPACO  =    256;   APACO  = 16.0  distance and # of slots for P.C.
   PSTRESS=    0.0 pullay stress

  Mass of Ions in am
   POMASS =  22.99 24.30 54.94 16.00
  Ionic Valenz
   ZVAL   =   7.00  8.00 13.00  6.00
  Atomic Wigner-Seitz radii
   RWIGS  =  -1.00 -1.00 -1.00 -1.00
  virtual crystal weights 
   VCA    =   1.00  1.00  1.00  1.00
   NELECT =     672.0000    total number of electrons
   NUPDOWN=      48.0000    fix difference up-down

 DOS related values:
   EMIN   =  10.00;   EMAX   =-10.00  energy-range for DOS
   EFERMI =   0.00
   ISMEAR =     0;   SIGMA  =   0.05  broadening in eV -4-tet -1-fermi 0-gaus

 Electronic relaxation 2 (details)
   IALGO  =     48    algorithm
   LDIAG  =      T    sub-space diagonalisation (order eigenvalues)
   LSUBROT=      F    optimize rotation matrix (better conditioning)
   TURBO    =      0    0=normal 1=particle mesh
   IRESTART =      0    0=no restart 2=restart with 2 vectors
   NREBOOT  =      0    no. of reboots
   NMIN     =      0    reboot dimension
   EREF     =   0.00    reference energy to select bands
   IMIX   =      4    mixing-type and parameters
     AMIX     =   0.40;   BMIX     =  1.00
     AMIX_MAG =   1.60;   BMIX_MAG =  1.00
     AMIN     =   0.10
     WC   =   100.;   INIMIX=   1;  MIXPRE=   1;  MAXMIX= -45

 Intra band minimization:
   WEIMIN = 0.0000     energy-eigenvalue tresh-hold
   EBREAK =  0.52E-08  absolut break condition
   DEPER  =   0.30     relativ break condition  

   TIME   =   0.40     timestep for ELM

  volume/ion in A,a.u.               =      11.08        74.78
  Fermi-wavevector in a.u.,A,eV,Ry     =   1.445993  2.732531 28.448379  2.090897
  Thomas-Fermi vector in A             =   2.564112
 
 Write flags
   LWAVE        =      F    write WAVECAR
   LDOWNSAMPLE  =      F    k-point downsampling of WAVECAR
   LCHARG       =      F    write CHGCAR
   LVTOT        =      F    write LOCPOT, total local potential
   LVHAR        =      F    write LOCPOT, Hartree potential only
   LELF         =      F    write electronic localiz. function (ELF)
   LORBIT       =     11    0 simple, 1 ext, 2 COOP (PROOUT), +10 PAW based schemes


 Dipole corrections
   LMONO  =      F    monopole corrections only (constant potential shift)
   LDIPOL =      F    correct potential (dipole corrections)
   IDIPOL =      0    1-x, 2-y, 3-z, 4-all directions 
   EPSILON=  1.0000000 bulk dielectric constant

 Exchange correlation treatment:
   GGA     =    --    GGA type
   LEXCH   =     8    internal setting for exchange type
   VOSKOWN=      0    Vosko Wilk Nusair interpolation
   LHFCALC =     F    Hartree Fock is set to
   LHFONE  =     F    Hartree Fock one center treatment
   AEXX    =    0.0000 exact exchange contribution

 Linear response parameters
   LEPSILON=     F    determine dielectric tensor
   LRPA    =     F    only Hartree local field effects (RPA)
   LNABLA  =     F    use nabla operator in PAW spheres
   LVEL    =     F    velocity operator in full k-point grid
   LINTERFAST=   F  fast interpolation
   KINTER  =     0    interpolate to denser k-point grid
   CSHIFT  =0.1000    complex shift for real part using Kramers Kronig
   OMEGAMAX=  -1.0    maximum frequency
   DEG_THRESHOLD= 0.2000000E-02 threshold for treating states as degnerate
   RTIME   =   -0.100 relaxation time in fs
  (WPLASMAI=    0.000 imaginary part of plasma frequency in eV, 0.658/RTIME)
   DFIELD  = 0.0000000 0.0000000 0.0000000 field for delta impulse in time
 
 Orbital magnetization related:
   ORBITALMAG=     F  switch on orbital magnetization
   LCHIMAG   =     F  perturbation theory with respect to B field
   DQ        =  0.001000  dq finite difference perturbation B field
   LLRAUG    =     F  two centre corrections for induced B field



--------------------------------------------------------------------------------------------------------


 Static calculation
 charge density and potential will be updated during run
 spin polarized calculation
 RMM-DIIS sequential band-by-band
 perform sub-space diagonalisation
    before iterative eigenvector-optimisation
 modified Broyden-mixing scheme, WC =      100.0
 initial mixing is a Kerker type mixing with AMIX =  0.4000 and BMIX =      1.0000
 Hartree-type preconditioning will be used
 using additional bands          144
 real space projection scheme for non local part
 use partial core corrections
 calculate Harris-corrections to forces 
   (improved forces if not selfconsistent)
 use gradient corrections 
 use of overlap-Matrix (Vanderbilt PP)
 Gauss-broadening in eV      SIGMA  =   0.05


--------------------------------------------------------------------------------------------------------


  energy-cutoff  :      400.00
  volume of cell :      975.20
      direct lattice vectors                 reciprocal lattice vectors
    10.019000053  0.000000000  0.000000000     0.099810360  0.057625538 -0.000000000
    -5.009500027  8.676708567  0.000000000     0.000000000  0.115251076  0.000000000
     0.000000000  0.000000000 11.218000412     0.000000000  0.000000000  0.089142446

  length of vectors
    10.019000053 10.019000053 11.218000412     0.115251076  0.115251076  0.089142446


 
 k-points in units of 2pi/SCALE and weight: read from INCAR                         
   0.00000000  0.00000000  0.00000000       0.125
   0.04990518  0.02881277 -0.00000000       0.125
   0.00000000  0.05762554  0.00000000       0.125
   0.04990518  0.08643831 -0.00000000       0.125
   0.00000000  0.00000000  0.04457122       0.125
   0.04990518  0.02881277  0.04457122       0.125
   0.00000000  0.05762554  0.04457122       0.125
   0.04990518  0.08643831  0.04457122       0.125
 
 k-points in reciprocal lattice and weights: read from INCAR                         
   0.00000000  0.00000000  0.00000000       0.125
   0.50000000 -0.00000000 -0.00000000       0.125
   0.00000000  0.50000000  0.00000000       0.125
   0.50000000  0.50000000 -0.00000000       0.125
   0.00000000  0.00000000  0.50000000       0.125
   0.50000000 -0.00000000  0.50000000       0.125
   0.00000000  0.50000000  0.50000000       0.125
   0.50000000  0.50000000  0.50000000       0.125
 
 position of ions in fractional coordinates (direct lattice) 
   0.04309787  0.47250175  0.23630860
   0.75052173  0.71249170  0.75879922
   0.39250889  0.50928166  0.74527810
   0.07788918  0.01149251  0.75220001
   0.23955289  0.00842008  0.23978872
   0.61203433  0.21169219  0.24733285
   0.02798279  0.29706755  0.75178371
   0.89094524  0.52018771  0.74697804
   0.12028417  0.22443896  0.25550899
   0.90476925  0.69365869  0.24475663
   0.56027125  0.53449597  0.24552326
   0.25876738  0.72112796  0.75125599
   0.59219835  0.01779327  0.75734709
   0.45092795  0.22969292  0.75014082
   0.38436705  0.75344914  0.25569708
   0.76248396  0.99826868  0.25856836
   0.76161463  0.35179699  0.00511180
   0.74830665  0.35989108  0.50217951
   0.26038527  0.35041283  0.00299951
   0.24874445  0.36273893  0.49765464
   0.25492476  0.85264821  0.98477443
   0.25369961  0.86484408  0.49953020
   0.75883304  0.85517682  0.00197791
   0.74649049  0.86440727  0.50210196
   0.09196722  0.02614026  0.00740272
   0.42382971  0.18569714  0.00547680
   0.08899511  0.03375029  0.49475306
   0.42357388  0.19845429  0.49106523
   0.58625971  0.02186906  0.00044568
   0.91393441  0.18584467  0.00120339
   0.58305965  0.03251595  0.50135406
   0.90728849  0.18737866  0.49727133
   0.59312806  0.51656454  0.99923383
   0.92443457  0.68786107  0.99032787
   0.59623369  0.54018871  0.50933320
   0.93083929  0.71339033  0.49724815
   0.08301525  0.51430677  0.99214976
   0.42001936  0.68539354  0.00160743
   0.07270232  0.52691179  0.50451416
   0.41111887  0.69281225  0.50986716
   0.24960245  0.16965304  0.10534409
   0.42131817  0.02884654  0.08974059
   0.59331071  0.36483881  0.09618648
   0.25753420  0.04632701  0.58563824
   0.43015334  0.36301553  0.58322337
   0.57167572  0.19471785  0.59144943
   0.25438870  0.04670734  0.90524154
   0.44379932  0.36007894  0.90829913
   0.57097678  0.17489697  0.90195219
   0.25932438  0.19761872  0.40184613
   0.43027923  0.04413966  0.39679264
   0.58747404  0.37525750  0.40921464
   0.75376260  0.17644825  0.09067926
   0.93430643  0.03265121  0.09357193
   0.08078945  0.35017656  0.08085416
   0.73616259  0.03563690  0.60113209
   0.92122479  0.34295263  0.59435013
   0.06666051  0.17819776  0.59141199
   0.75300278  0.04172769  0.91345156
   0.92894877  0.36423950  0.91041180
   0.07789220  0.18504482  0.91425384
   0.74597761  0.17621313  0.41336600
   0.91393995  0.03926028  0.40181760
   0.06431629  0.36068170  0.40417274
   0.76139619  0.68018534  0.08703824
   0.93488864  0.53264783  0.09073364
   0.07816060  0.85717757  0.09157604
   0.76891689  0.55334231  0.59804776
   0.93811602  0.86555633  0.58586733
   0.07434251  0.68650917  0.59068192
   0.74916396  0.53031515  0.90044568
   0.94255781  0.85414647  0.91657155
   0.08331582  0.68021185  0.90170259
   0.75575110  0.69209309  0.41036636
   0.92102738  0.52772200  0.41219200
   0.08316091  0.87098696  0.39543411
   0.25107713  0.67682577  0.07567900
   0.42863289  0.53041081  0.09319308
   0.56905910  0.84787566  0.09405687
   0.24569291  0.54001122  0.60016935
   0.41266341  0.85775959  0.60402565
   0.57532099  0.68760175  0.60195220
   0.24872591  0.53151030  0.90375286
   0.44187580  0.85419257  0.91322871
   0.58446944  0.68145311  0.90556246
   0.24026098  0.67476970  0.41440808
   0.43652681  0.54699313  0.41342305
   0.57355671  0.86063972  0.41381172
 
 position of ions in cartesian coordinates  (Angst):
  -1.93519995  4.09976000  2.65091000
   3.95025005  6.18208287  8.51221000
   1.38130008  4.41888857  8.36053000
   0.72279995  0.09971713  8.43818000
   2.35790008  0.07305857  2.68995000
   5.07149992  1.83679143  2.77458000
  -1.20780029  2.57756857  8.43351000
   6.32050011  4.51351713  8.37960000
   0.08080013  1.94739143  2.86630000
   5.58999992  6.01867430  2.74568000
   2.93580011  4.63766573  2.75428000
  -1.01990011  6.25701713  8.42759000
   5.84409995  0.15438700  8.49592000
   3.36720040  1.99297857  8.41508000
   0.07657003  6.53745857  2.86841000
   2.63849992  8.66168637  2.90062000
   5.86829000  3.05244000  0.05734420
   5.69441000  3.12267000  5.63345000
   0.85340700  3.04043000  0.03364850
   0.67503000  3.14738000  5.58269000
  -1.71725000  7.39818000 11.04720000
  -1.79062000  7.50400000  5.60373000
   3.31874000  7.42012000  0.02218820
   3.14884000  7.50021000  5.63258000
   0.79046997  0.22681143  0.08304370
   3.31610000  1.61124000  0.06143870
   0.72256997  0.29284143  5.55014000
   3.24963000  1.72193000  5.50877000
   5.76418303  0.18975143  0.00499959
   8.22572000  1.61252000  0.01349959
   5.67878603  0.28213143  5.62419000
   8.15145000  1.62583000  5.57839000
   3.35482000  4.48208000 11.20940548
   5.81607000  5.96837000 11.10949841
   3.26759000  4.68706000  5.71370000
   5.75235000  6.18988000  5.57813000
  -1.74469005  4.46249000 11.12993641
   0.77469500  5.94696000  0.01803210
  -1.91116005  4.57186000  5.65964000
   0.64835700  6.01133000  5.71969000
   1.65089000  1.47203000  1.18175000
   4.07668000  0.25029300  1.00671000
   4.11672000  3.16560000  1.07902000
   2.34816000  0.40196600  6.56969000
   2.49118000  3.14978000  6.54260000
   4.75218000  1.68951000  6.63488000
   2.31474000  0.40526600 10.15500000
   2.64261000  3.12430000 10.18930000
   4.84447000  1.51753000 10.11810000
   1.60820000  1.71468000  4.50791000
   4.08985000  0.38298700  4.45122000
   4.00605000  3.25600000  4.59057000
   6.66803000  1.53099000  1.01724000
   9.19725000  0.28330500  1.04969000
  -0.94478005  3.03838000  0.90702200
   7.19709000  0.30921100  6.74350000
   7.51173000  2.97570000  6.66742000
  -0.22481005  1.54617000  6.63446000
   7.33530000  0.36205900 10.24710000
   7.48248000  3.16040000 10.21300000
  -0.14658005  1.60558000 10.25610000
   6.59121000  1.52895000  4.63714000
   8.96009000  0.34065000  4.50759000
  -1.16245005  3.12953000  4.53401000
   4.22104000  5.90177000  0.97639500
   6.69835000  4.62163000  1.01785000
  -3.51094005  7.43748000  1.02730000
   4.93181000  4.80119000  6.70890000
   5.06298000  7.51018000  6.57226000
  -2.69423005  5.95664000  6.62627000
   4.84926000  4.60139000 10.10120000
   5.16464000  7.41118000 10.28210000
  -2.57278005  5.90200000 10.11530000
   4.10483000  6.00509000  4.60349000
   6.58415000  4.57889000  4.62397000
  -3.53002005  7.55730000  4.43598000
  -0.87501700  5.87262000  0.84896700
   1.63738000  4.60222000  1.04544000
   1.45397000  7.35677000  1.05513000
  -0.24358900  4.68552000  6.73270000
  -0.16247200  7.44253000  6.77596000
   2.31960000  5.96612000  6.75270000
  -0.17061600  4.61176000 10.13830000
   0.14807600  7.41158000 10.24460000
   2.44206000  5.91277000 10.15860000
  -0.97308400  5.85478000  4.64883000
   1.63340000  4.74610000  4.63778000
   1.43509000  7.46752000  4.64214000
 


--------------------------------------------------------------------------------------------------------


 k-point  1 :   0.0000 0.0000 0.0000  plane waves:   17725
 k-point  2 :   0.5000-0.0000-0.0000  plane waves:   17736
 k-point  3 :   0.0000 0.5000 0.0000  plane waves:   17736
 k-point  4 :   0.5000 0.5000-0.0000  plane waves:   17736
 k-point  5 :   0.0000 0.0000 0.5000  plane waves:   17676
 k-point  6 :   0.5000-0.0000 0.5000  plane waves:   17700
 k-point  7 :   0.0000 0.5000 0.5000  plane waves:   17700
 k-point  8 :   0.5000 0.5000 0.5000  plane waves:   17700

 maximum and minimum number of plane-waves per node :     17736    17676

 maximum number of plane-waves:     17736
 maximum index in each direction: 
   IXMAX=   16   IYMAX=   16   IZMAX=   18
   IXMIN=  -16   IYMIN=  -16   IZMIN=  -18


 serial   3D FFT for wavefunctions
 parallel 3D FFT for charge:
    minimum data exchange during FFTs selected (reduces bandwidth)


 total amount of memory used by VASP MPI-rank0    94434. kBytes
=======================================================================

   base      :      30000. kBytes
   nonlr-proj:      13675. kBytes
   fftplans  :       1275. kBytes
   grid      :      22786. kBytes
   one-center:       2737. kBytes
   wavefun   :      23961. kBytes
 
     INWAV:  cpu time    0.0000: real time    0.0001
 Broyden mixing: mesh for mixing (old mesh)
   NGX = 33   NGY = 33   NGZ = 37
  (NGX  =100   NGY  =100   NGZ  =112)
  gives a total of  40293 points

 initial charge density was supplied:
 charge density of overlapping atoms calculated
 number of electron     672.0000000 magnetization      48.0000000
 keeping initial charge density in first step


--------------------------------------------------------------------------------------------------------


 Maximum index for non-local projection operator         1551
 Maximum index for augmentation-charges          442 (set IRDMAX)


--------------------------------------------------------------------------------------------------------


 First call to EWALD:  gamma=   0.179
 Maximum number of real-space cells 3x 3x 2
 Maximum number of reciprocal cells 3x 3x 3

    FEWALD:  cpu time    0.0028: real time    0.0028


--------------------------------------- Iteration      1(   1)  ---------------------------------------


    POTLOK:  cpu time    0.1879: real time    0.1895
    SETDIJ:  cpu time    4.6336: real time    4.6376
    EDDIAG:  cpu time    4.4280: real time    4.8225
  RMM-DIIS:  cpu time    9.1535: real time    9.1567
    ORTHCH:  cpu time    1.1699: real time    1.2557
       DOS:  cpu time    0.0021: real time    0.0022
    --------------------------------------------
      LOOP:  cpu time   19.5751: real time   20.0642

 eigenvalue-minimisations  :  7680
 total energy-change (2. order) : 0.1591628E+04  (-0.3496584E+05)
 number of electron     672.0000000 magnetization      48.0000000
 augmentation part      672.0000000 magnetization      48.0000000

 Free energy of the ion-electron system (eV)
  ---------------------------------------------------
  alpha Z        PSCENC =      2652.81237852
  Ewald energy   TEWEN  =    -41680.23822435
  -Hartree energ DENC   =    -25921.37354184
  -exchange      EXHF   =         0.00000000
  -V(xc)+E(xc)   XCENC  =      3606.77304532
  PAW double counting   =     55594.23204139   -59034.67079123
  entropy T*S    EENTRO =        -0.04537856
  eigenvalues    EBANDS =     -7488.05947359
  atomic energy  EATOM  =     73862.19814772
  Solvation  Ediel_sol  =         0.00000000
  ---------------------------------------------------
  free energy    TOTEN  =      1591.62820338 eV

  energy without entropy =     1591.67358194  energy(sigma->0) =     1591.65089266


--------------------------------------------------------------------------------------------------------




--------------------------------------- Iteration      1(   2)  ---------------------------------------


    EDDIAG:  cpu time    4.5298: real time    4.9153
  RMM-DIIS:  cpu time    9.1595: real time    9.1785
    ORTHCH:  cpu time    1.1630: real time    1.2467
       DOS:  cpu time    0.0028: real time    0.0028
    --------------------------------------------
      LOOP:  cpu time   14.8552: real time   15.3433

 eigenvalue-minimisations  :  7680
 total energy-change (2. order) :-0.2309329E+04  (-0.8019757E+04)
 number of electron     672.0000000 magnetization      48.0000000
 augmentation part      672.0000000 magnetization      48.0000000

 Free energy of the ion-electron system (eV)
  ---------------------------------------------------
  alpha Z        PSCENC =      2652.81237852
  Ewald energy   TEWEN  =    -41680.23822435
  -Hartree energ DENC   =    -25921.37354184
  -exchange      EXHF   =         0.00000000
  -V(xc)+E(xc)   XCENC  =      3606.77304532
  PAW double counting   =     55594.23204139   -59034.67079123
  entropy T*S    EENTRO =        -0.03908008
  eigenvalues    EBANDS =     -9797.39508775
  atomic energy  EATOM  =     73862.19814772
  Solvation  Ediel_sol  =         0.00000000
  ---------------------------------------------------
  free energy    TOTEN  =      -717.70111229 eV

  energy without entropy =     -717.66203222  energy(sigma->0) =     -717.68157226


--------------------------------------------------------------------------------------------------------




--------------------------------------- Iteration      1(   3)  ---------------------------------------


    EDDIAG:  cpu time    4.4517: real time    4.8333
  RMM-DIIS:  cpu time    9.1482: real time    9.1576
    ORTHCH:  cpu time    1.1672: real time    1.2516
       DOS:  cpu time    0.0027: real time    0.0027
    --------------------------------------------
      LOOP:  cpu time   14.7697: real time   15.2452

 eigenvalue-minimisations  :  7680
 total energy-change (2. order) : 0.7524959E+02  (-0.1423268E+04)
 number of electron     672.0000000 magnetization      48.0000000
 augmentation part      672.0000000 magnetization      48.0000000

 Free energy of the ion-electron system (eV)
  ---------------------------------------------------
  alpha Z        PSCENC =      2652.81237852
  Ewald energy   TEWEN  =    -41680.23822435
  -Hartree energ DENC   =    -25921.37354184
  -exchange      EXHF   =         0.00000000
  -V(xc)+E(xc)   XCENC  =      3606.77304532
  PAW double counting   =     55594.23204139   -59034.67079123
  entropy T*S    EENTRO =        -0.03950033
  eigenvalues    EBANDS =     -9722.14507335
  atomic energy  EATOM  =     73862.19814772
  Solvation  Ediel_sol  =         0.00000000
  ---------------------------------------------------
  free energy    TOTEN  =      -642.45151815 eV

  energy without entropy =     -642.41201782  energy(sigma->0) =     -642.43176798


--------------------------------------------------------------------------------------------------------




--------------------------------------- Iteration      1(   4)  ---------------------------------------


    EDDIAG:  cpu time    4.4548: real time    4.8600
  RMM-DIIS:  cpu time    9.1527: real time    9.1751
    ORTHCH:  cpu time    1.1657: real time    1.2517
       DOS:  cpu time    0.0010: real time    0.0010
    --------------------------------------------
      LOOP:  cpu time   14.7742: real time   15.2878

 eigenvalue-minimisations  :  7680
 total energy-change (2. order) :-0.4679985E+03  (-0.4304370E+03)
 number of electron     672.0000000 magnetization      48.0000000
 augmentation part      672.0000000 magnetization      48.0000000

 Free energy of the ion-electron system (eV)
  ---------------------------------------------------
  alpha Z        PSCENC =      2652.81237852
  Ewald energy   TEWEN  =    -41680.23822435
  -Hartree energ DENC   =    -25921.37354184
  -exchange      EXHF   =         0.00000000
  -V(xc)+E(xc)   XCENC  =      3606.77304532
  PAW double counting   =     55594.23204139   -59034.67079123
  entropy T*S    EENTRO =        -0.00000000
  eigenvalues    EBANDS =    -10190.18310055
  atomic energy  EATOM  =     73862.19814772
  Solvation  Ediel_sol  =         0.00000000
  ---------------------------------------------------
  free energy    TOTEN  =     -1110.45004502 eV

  energy without entropy =    -1110.45004502  energy(sigma->0) =    -1110.45004502


--------------------------------------------------------------------------------------------------------




--------------------------------------- Iteration      1(   5)  ---------------------------------------


    EDDIAG:  cpu time    4.4365: real time    4.8375
  RMM-DIIS:  cpu time    9.1483: real time    9.1617
    ORTHCH:  cpu time    1.1926: real time    1.2799
       DOS:  cpu time    0.0014: real time    0.0014
    --------------------------------------------
      LOOP:  cpu time   14.7787: real time   15.2804

 eigenvalue-minimisations  :  7680
 total energy-change (2. order) :-0.1043407E+03  (-0.1596958E+03)
 number of electron     672.0000000 magnetization      48.0000000
 augmentation part      672.0000000 magnetization      48.0000000

 Free energy of the ion-electron system (eV)
  ---------------------------------------------------
  alpha Z        PSCENC =      2652.81237852
  Ewald energy   TEWEN  =    -41680.23822435
  -Hartree energ DENC   =    -25921.37354184
  -exchange      EXHF   =         0.00000000
  -V(xc)+E(xc)   XCENC  =      3606.77304532
  PAW double counting   =     55594.23204139   -59034.67079123
  entropy T*S    EENTRO =        -0.00000000
  eigenvalues    EBANDS =    -10294.52380449
  atomic energy  EATOM  =     73862.19814772
  Solvation  Ediel_sol  =         0.00000000
  ---------------------------------------------------
  free energy    TOTEN  =     -1214.79074895 eV

  energy without entropy =    -1214.79074895  energy(sigma->0) =    -1214.79074895


--------------------------------------------------------------------------------------------------------




--------------------------------------- Iteration      1(   6)  ---------------------------------------


    EDDIAG:  cpu time    4.4426: real time    4.8418
  RMM-DIIS:  cpu time    9.1145: real time    9.1632
    ORTHCH:  cpu time    1.1691: real time    1.2547
       DOS:  cpu time    0.0015: real time    0.0015
    --------------------------------------------
      LOOP:  cpu time   14.7277: real time   15.2612

 eigenvalue-minimisations  :  7680
 total energy-change (2. order) :-0.8902542E+01  (-0.7925184E+02)
 number of electron     672.0000000 magnetization      48.0000000
 augmentation part      672.0000000 magnetization      48.0000000

 Free energy of the ion-electron system (eV)
  ---------------------------------------------------
  alpha Z        PSCENC =      2652.81237852
  Ewald energy   TEWEN  =    -41680.23822435
  -Hartree energ DENC   =    -25921.37354184
  -exchange      EXHF   =         0.00000000
  -V(xc)+E(xc)   XCENC  =      3606.77304532
  PAW double counting   =     55594.23204139   -59034.67079123
  entropy T*S    EENTRO =        -0.00000000
  eigenvalues    EBANDS =    -10303.42634640
  atomic energy  EATOM  =     73862.19814772
  Solvation  Ediel_sol  =         0.00000000
  ---------------------------------------------------
  free energy    TOTEN  =     -1223.69329087 eV

  energy without entropy =    -1223.69329087  energy(sigma->0) =    -1223.69329087


--------------------------------------------------------------------------------------------------------




--------------------------------------- Iteration      1(   7)  ---------------------------------------


    EDDIAG:  cpu time    4.4568: real time    4.8265
  RMM-DIIS:  cpu time    9.1386: real time    9.1541
    ORTHCH:  cpu time    1.1833: real time    1.2712
       DOS:  cpu time    0.0015: real time    0.0015
    --------------------------------------------
      LOOP:  cpu time   14.7802: real time   15.2533

 eigenvalue-minimisations  :  7680
 total energy-change (2. order) :-0.1841400E+01  (-0.4831091E+02)
 number of electron     672.0000000 magnetization      48.0000000
 augmentation part      672.0000000 magnetization      48.0000000

 Free energy of the ion-electron system (eV)
  ---------------------------------------------------
  alpha Z        PSCENC =      2652.81237852
  Ewald energy   TEWEN  =    -41680.23822435
  -Hartree energ DENC   =    -25921.37354184
  -exchange      EXHF   =         0.00000000
  -V(xc)+E(xc)   XCENC  =      3606.77304532
  PAW double counting   =     55594.23204139   -59034.67079123
  entropy T*S    EENTRO =        -0.00000000
  eigenvalues    EBANDS =    -10305.26774607
  atomic energy  EATOM  =     73862.19814772
  Solvation  Ediel_sol  =         0.00000000
  ---------------------------------------------------
  free energy    TOTEN  =     -1225.53469054 eV

  energy without entropy =    -1225.53469054  energy(sigma->0) =    -1225.53469054


--------------------------------------------------------------------------------------------------------




--------------------------------------- Iteration      1(   8)  ---------------------------------------


    EDDIAG:  cpu time    4.4392: real time    4.8324
  RMM-DIIS:  cpu time    9.1362: real time    9.1672
    ORTHCH:  cpu time    1.1649: real time    1.2535
       DOS:  cpu time    0.0014: real time    0.0014
    --------------------------------------------
      LOOP:  cpu time   14.7418: real time   15.2544

 eigenvalue-minimisations  :  7680
 total energy-change (2. order) : 0.5055245E+01  (-0.2993269E+02)
 number of electron     672.0000000 magnetization      48.0000000
 augmentation part      672.0000000 magnetization      48.0000000

 Free energy of the ion-electron system (eV)
  ---------------------------------------------------
  alpha Z        PSCENC =      2652.81237852
  Ewald energy   TEWEN  =    -41680.23822435
  -Hartree energ DENC   =    -25921.37354184
  -exchange      EXHF   =         0.00000000
  -V(xc)+E(xc)   XCENC  =      3606.77304532
  PAW double counting   =     55594.23204139   -59034.67079123
  entropy T*S    EENTRO =        -0.00000000
  eigenvalues    EBANDS =    -10300.21250105
  atomic energy  EATOM  =     73862.19814772
  Solvation  Ediel_sol  =         0.00000000
  ---------------------------------------------------
  free energy    TOTEN  =     -1220.47944552 eV

  energy without entropy =    -1220.47944552  energy(sigma->0) =    -1220.47944552


--------------------------------------------------------------------------------------------------------




--------------------------------------- Iteration      1(   9)  ---------------------------------------


    EDDIAG:  cpu time    4.4382: real time    4.8233
  RMM-DIIS:  cpu time   19.2488: real time   19.3047
    ORTHCH:  cpu time    1.2626: real time    1.3452
       DOS:  cpu time    0.0014: real time    0.0014
    --------------------------------------------
      LOOP:  cpu time   24.9509: real time   25.4746

 eigenvalue-minimisations  : 21780
 total energy-change (2. order) : 0.9228258E+01  (-0.1319121E+02)
 number of electron     672.0000000 magnetization      48.0000000
 augmentation part      672.0000000 magnetization      48.0000000

 Free energy of the ion-electron system (eV)
  ---------------------------------------------------
  alpha Z        PSCENC =      2652.81237852
  Ewald energy   TEWEN  =    -41680.23822435
  -Hartree energ DENC   =    -25921.37354184
  -exchange      EXHF   =         0.00000000
  -V(xc)+E(xc)   XCENC  =      3606.77304532
  PAW double counting   =     55594.23204139   -59034.67079123
  entropy T*S    EENTRO =        -0.00000000
  eigenvalues    EBANDS =    -10290.98424313
  atomic energy  EATOM  =     73862.19814772
  Solvation  Ediel_sol  =         0.00000000
  ---------------------------------------------------
  free energy    TOTEN  =     -1211.25118760 eV

  energy without entropy =    -1211.25118760  energy(sigma->0) =    -1211.25118760


--------------------------------------------------------------------------------------------------------




--------------------------------------- Iteration      1(  10)  ---------------------------------------


    EDDIAG:  cpu time    4.4420: real time    4.8344
  RMM-DIIS:  cpu time   17.6591: real time   17.6815
    ORTHCH:  cpu time    1.1656: real time    1.2498
       DOS:  cpu time    0.0012: real time    0.0012
    --------------------------------------------
      LOOP:  cpu time   23.2680: real time   23.7668

 eigenvalue-minimisations  : 19640
 total energy-change (2. order) :-0.1894597E+01  (-0.5297626E+00)
 number of electron     672.0000000 magnetization      48.0000000
 augmentation part      672.0000000 magnetization      48.0000000

 Free energy of the ion-electron system (eV)
  ---------------------------------------------------
  alpha Z        PSCENC =      2652.81237852
  Ewald energy   TEWEN  =    -41680.23822435
  -Hartree energ DENC   =    -25921.37354184
  -exchange      EXHF   =         0.00000000
  -V(xc)+E(xc)   XCENC  =      3606.77304532
  PAW double counting   =     55594.23204139   -59034.67079123
  entropy T*S    EENTRO =        -0.00000001
  eigenvalues    EBANDS =    -10292.87884049
  atomic energy  EATOM  =     73862.19814772
  Solvation  Ediel_sol  =         0.00000000
  ---------------------------------------------------
  free energy    TOTEN  =     -1213.14578497 eV

  energy without entropy =    -1213.14578496  energy(sigma->0) =    -1213.14578497


--------------------------------------------------------------------------------------------------------




--------------------------------------- Iteration      1(  11)  ---------------------------------------


    EDDIAG:  cpu time    4.4535: real time    4.8434
  RMM-DIIS:  cpu time   19.7605: real time   19.7887
    ORTHCH:  cpu time    1.1867: real time    1.2695
       DOS:  cpu time    0.0026: real time    0.0026
    --------------------------------------------
      LOOP:  cpu time   25.4032: real time   25.9041

 eigenvalue-minimisations  : 22551
 total energy-change (2. order) : 0.6974857E-01  (-0.4359200E-01)
 number of electron     672.0000000 magnetization      48.0000000
 augmentation part      672.0000000 magnetization      48.0000000

 Free energy of the ion-electron system (eV)
  ---------------------------------------------------
  alpha Z        PSCENC =      2652.81237852
  Ewald energy   TEWEN  =    -41680.23822435
  -Hartree energ DENC   =    -25921.37354184
  -exchange      EXHF   =         0.00000000
  -V(xc)+E(xc)   XCENC  =      3606.77304532
  PAW double counting   =     55594.23204139   -59034.67079123
  entropy T*S    EENTRO =        -0.00000001
  eigenvalues    EBANDS =    -10292.80909192
  atomic energy  EATOM  =     73862.19814772
  Solvation  Ediel_sol  =         0.00000000
  ---------------------------------------------------
  free energy    TOTEN  =     -1213.07603640 eV

  energy without entropy =    -1213.07603639  energy(sigma->0) =    -1213.07603639


--------------------------------------------------------------------------------------------------------




--------------------------------------- Iteration      1(  12)  ---------------------------------------


    EDDIAG:  cpu time    4.4515: real time    4.8241
  RMM-DIIS:  cpu time   21.4734: real time   21.5099
    ORTHCH:  cpu time    1.1684: real time    1.2516
       DOS:  cpu time    0.0016: real time    0.0016
    CHARGE:  cpu time    1.8036: real time    1.8094
    MIXING:  cpu time    0.0010: real time    0.0011
    --------------------------------------------
      LOOP:  cpu time   28.8996: real time   29.3978

 eigenvalue-minimisations  : 24431
 total energy-change (2. order) :-0.7692075E-03  (-0.4299817E-02)
 number of electron     671.9999446 magnetization      47.9999951
 augmentation part      239.1853252 magnetization      29.0494620

 Broyden mixing:
  rms(total) = 0.12730E+02    rms(broyden)= 0.12721E+02
  rms(prec ) = 0.14550E+02
  weight for this iteration     100.00

 Free energy of the ion-electron system (eV)
  ---------------------------------------------------
  alpha Z        PSCENC =      2652.81237852
  Ewald energy   TEWEN  =    -41680.23822435
  -Hartree energ DENC   =    -25921.37354184
  -exchange      EXHF   =         0.00000000
  -V(xc)+E(xc)   XCENC  =      3606.77304532
  PAW double counting   =     55594.23204139   -59034.67079123
  entropy T*S    EENTRO =        -0.00000001
  eigenvalues    EBANDS =    -10292.80986113
  atomic energy  EATOM  =     73862.19814772
  Solvation  Ediel_sol  =         0.00000000
  ---------------------------------------------------
  free energy    TOTEN  =     -1213.07680560 eV

  energy without entropy =    -1213.07680560  energy(sigma->0) =    -1213.07680560


--------------------------------------------------------------------------------------------------------




--------------------------------------- Iteration      1(  13)  ---------------------------------------


    POTLOK:  cpu time    0.1749: real time    0.1755
    SETDIJ:  cpu time    4.9590: real time    4.9789
    EDDIAG:  cpu time    4.4508: real time    4.8668
  RMM-DIIS:  cpu time   17.1646: real time   17.2331
    ORTHCH:  cpu time    1.1666: real time    1.2491
       DOS:  cpu time    0.0019: real time    0.0019
    CHARGE:  cpu time    1.8154: real time    1.8194
    MIXING:  cpu time    0.0009: real time    0.0009
    --------------------------------------------
      LOOP:  cpu time   29.7340: real time   30.3257

 eigenvalue-minimisations  : 18783
 total energy-change (2. order) : 0.2287234E+03  (-0.1215134E+03)
 number of electron     671.9999489 magnetization      47.9999937
 augmentation part      268.8398729 magnetization      26.4896083

 Broyden mixing:
  rms(total) = 0.13915E+02    rms(broyden)= 0.13912E+02
  rms(prec ) = 0.15631E+02
  weight for this iteration     100.00

 eigenvalues of (default mixing * dielectric matrix)
  average eigenvalue GAMMA=   0.3216
  0.3216

 Free energy of the ion-electron system (eV)
  ---------------------------------------------------
  alpha Z        PSCENC =      2652.81237852
  Ewald energy   TEWEN  =    -41680.23822435
  -Hartree energ DENC   =    -25261.55308077
  -exchange      EXHF   =         0.00000000
  -V(xc)+E(xc)   XCENC  =      3697.43963573
  PAW double counting   =     60025.06491580   -63450.85829885
  entropy T*S    EENTRO =        -0.07407225
  eigenvalues    EBANDS =    -10829.14477243
  atomic energy  EATOM  =     73862.19814772
  Solvation  Ediel_sol  =         0.00000000
  ---------------------------------------------------
  free energy    TOTEN  =      -984.35337088 eV

  energy without entropy =     -984.27929862  energy(sigma->0) =     -984.31633475


--------------------------------------------------------------------------------------------------------




--------------------------------------- Iteration      1(  14)  ---------------------------------------


    POTLOK:  cpu time    0.1759: real time    0.1760
    SETDIJ:  cpu time    4.9617: real time    4.9643
    EDDIAG:  cpu time    4.5480: real time    4.9507
  RMM-DIIS:  cpu time   17.8520: real time   17.8630
    ORTHCH:  cpu time    1.1850: real time    1.2705
       DOS:  cpu time    0.0016: real time    0.0016
    CHARGE:  cpu time    1.8125: real time    1.8154
    MIXING:  cpu time    0.0008: real time    0.0009
    --------------------------------------------
      LOOP:  cpu time   30.5375: real time   31.0423

 eigenvalue-minimisations  : 19442
 total energy-change (2. order) : 0.6884417E+02  (-0.1777019E+02)
 number of electron     671.9999451 magnetization      47.9999901
 augmentation part      246.6262602 magnetization      32.1490925

 Broyden mixing:
  rms(total) = 0.53809E+01    rms(broyden)= 0.53767E+01
  rms(prec ) = 0.58120E+01
  weight for this iteration     100.00

 eigenvalues of (default mixing * dielectric matrix)
  average eigenvalue GAMMA=   0.7363
  1.1143  0.3582

 Free energy of the ion-electron system (eV)
  ---------------------------------------------------
  alpha Z        PSCENC =      2652.81237852
  Ewald energy   TEWEN  =    -41680.23822435
  -Hartree energ DENC   =    -25876.39423451
  -exchange      EXHF   =         0.00000000
  -V(xc)+E(xc)   XCENC  =      3675.11736870
  PAW double counting   =     63465.51439465   -66948.88414185
  entropy T*S    EENTRO =        -0.00000000
  eigenvalues    EBANDS =    -10065.63489083
  atomic energy  EATOM  =     73862.19814772
  Solvation  Ediel_sol  =         0.00000000
  ---------------------------------------------------
  free energy    TOTEN  =      -915.50920195 eV

  energy without entropy =     -915.50920195  energy(sigma->0) =     -915.50920195


--------------------------------------------------------------------------------------------------------




--------------------------------------- Iteration      1(  15)  ---------------------------------------


    POTLOK:  cpu time    0.1670: real time    0.1671
    SETDIJ:  cpu time    4.9643: real time    4.9762
    EDDIAG:  cpu time    4.4594: real time    4.8553
  RMM-DIIS:  cpu time   18.0903: real time   18.0998
    ORTHCH:  cpu time    1.1814: real time    1.2694
       DOS:  cpu time    0.0011: real time    0.0011
    CHARGE:  cpu time    1.8078: real time    1.8087
    MIXING:  cpu time    0.0009: real time    0.0009
    --------------------------------------------
      LOOP:  cpu time   30.6722: real time   31.1786

 eigenvalue-minimisations  : 20285
 total energy-change (2. order) : 0.1454889E+02  (-0.2040939E+01)
 number of electron     671.9999458 magnetization      47.9999878
 augmentation part      249.6146801 magnetization      33.7584203

 Broyden mixing:
  rms(total) = 0.22349E+01    rms(broyden)= 0.22345E+01
  rms(prec ) = 0.23251E+01
  weight for this iteration     100.00

 eigenvalues of (default mixing * dielectric matrix)
  average eigenvalue GAMMA=   0.9358
  1.6886  0.3869  0.7320

 Free energy of the ion-electron system (eV)
  ---------------------------------------------------
  alpha Z        PSCENC =      2652.81237852
  Ewald energy   TEWEN  =    -41680.23822435
  -Hartree energ DENC   =    -25803.95150140
  -exchange      EXHF   =         0.00000000
  -V(xc)+E(xc)   XCENC  =      3708.20021616
  PAW double counting   =     67637.53142793   -71161.50651707
  entropy T*S    EENTRO =        -0.00000000
  eigenvalues    EBANDS =    -10116.00623590
  atomic energy  EATOM  =     73862.19814772
  Solvation  Ediel_sol  =         0.00000000
  ---------------------------------------------------
  free energy    TOTEN  =      -900.96030838 eV

  energy without entropy =     -900.96030838  energy(sigma->0) =     -900.96030838


--------------------------------------------------------------------------------------------------------




--------------------------------------- Iteration      1(  16)  ---------------------------------------


    POTLOK:  cpu time    0.1663: real time    0.1667
    SETDIJ:  cpu time    5.0217: real time    5.0345
    EDDIAG:  cpu time    4.4579: real time    4.8513
  RMM-DIIS:  cpu time   17.3838: real time   17.3942
    ORTHCH:  cpu time    1.1638: real time    1.2486
       DOS:  cpu time    0.0012: real time    0.0012
    CHARGE:  cpu time    1.8097: real time    1.8132
    MIXING:  cpu time    0.0012: real time    0.0012
    --------------------------------------------
      LOOP:  cpu time   30.0055: real time   30.5110

 eigenvalue-minimisations  : 19085
 total energy-change (2. order) :-0.1410609E+01  (-0.6737306E+00)
 number of electron     671.9999465 magnetization      47.9999872
 augmentation part      251.1271251 magnetization      33.8479241

 Broyden mixing:
  rms(total) = 0.14783E+01    rms(broyden)= 0.14778E+01
  rms(prec ) = 0.15566E+01
  weight for this iteration     100.00

 eigenvalues of (default mixing * dielectric matrix)
  average eigenvalue GAMMA=   0.9726
  2.0942  0.8925  0.3936  0.5099

 Free energy of the ion-electron system (eV)
  ---------------------------------------------------
  alpha Z        PSCENC =      2652.81237852
  Ewald energy   TEWEN  =    -41680.23822435
  -Hartree energ DENC   =    -25752.77787524
  -exchange      EXHF   =         0.00000000
  -V(xc)+E(xc)   XCENC  =      3709.21862126
  PAW double counting   =     70580.64927630   -74133.78479280
  entropy T*S    EENTRO =        -0.00000000
  eigenvalues    EBANDS =    -10140.44844857
  atomic energy  EATOM  =     73862.19814772
  Solvation  Ediel_sol  =         0.00000000
  ---------------------------------------------------
  free energy    TOTEN  =      -902.37091716 eV

  energy without entropy =     -902.37091716  energy(sigma->0) =     -902.37091716


--------------------------------------------------------------------------------------------------------




--------------------------------------- Iteration      1(  17)  ---------------------------------------


    POTLOK:  cpu time    0.1716: real time    0.1727
    SETDIJ:  cpu time    5.0269: real time    5.0414
    EDDIAG:  cpu time    4.4502: real time    4.8533
  RMM-DIIS:  cpu time   18.6277: real time   18.6653
    ORTHCH:  cpu time    1.1611: real time    1.2499
       DOS:  cpu time    0.0011: real time    0.0011
    CHARGE:  cpu time    1.7872: real time    1.7908
    MIXING:  cpu time    0.0018: real time    0.0018
    --------------------------------------------
      LOOP:  cpu time   31.2275: real time   31.7763

 eigenvalue-minimisations  : 20563
 total energy-change (2. order) : 0.7942002E-01  (-0.6947319E-01)
 number of electron     671.9999464 magnetization      47.9999869
 augmentation part      251.1548424 magnetization      33.8445215

 Broyden mixing:
  rms(total) = 0.78609E+00    rms(broyden)= 0.78594E+00
  rms(prec ) = 0.88708E+00
  weight for this iteration     100.00

 eigenvalues of (default mixing * dielectric matrix)
  average eigenvalue GAMMA=   0.9974
  2.2376  1.1263  0.3820  0.6813  0.5597

 Free energy of the ion-electron system (eV)
  ---------------------------------------------------
  alpha Z        PSCENC =      2652.81237852
  Ewald energy   TEWEN  =    -41680.23822435
  -Hartree energ DENC   =    -25740.91532832
  -exchange      EXHF   =         0.00000000
  -V(xc)+E(xc)   XCENC  =      3706.40415638
  PAW double counting   =     71493.73755790   -75055.64525810
  entropy T*S    EENTRO =        -0.00000000
  eigenvalues    EBANDS =    -10140.64492689
  atomic energy  EATOM  =     73862.19814772
  Solvation  Ediel_sol  =         0.00000000
  ---------------------------------------------------
  free energy    TOTEN  =      -902.29149714 eV

  energy without entropy =     -902.29149714  energy(sigma->0) =     -902.29149714


--------------------------------------------------------------------------------------------------------




--------------------------------------- Iteration      1(  18)  ---------------------------------------


    POTLOK:  cpu time    0.1704: real time    0.1706
    SETDIJ:  cpu time    5.0233: real time    5.0352
    EDDIAG:  cpu time    4.4691: real time    4.8743
  RMM-DIIS:  cpu time   17.6046: real time   17.6393
    ORTHCH:  cpu time    1.1644: real time    1.2471
       DOS:  cpu time    0.0013: real time    0.0013
    CHARGE:  cpu time    1.7859: real time    1.7892
    MIXING:  cpu time    0.0011: real time    0.0011
    --------------------------------------------
      LOOP:  cpu time   30.2201: real time   30.7581

 eigenvalue-minimisations  : 19144
 total energy-change (2. order) : 0.4133179E+00  (-0.7199897E-01)
 number of electron     671.9999463 magnetization      47.9999868
 augmentation part      250.6436864 magnetization      33.8135338

 Broyden mixing:
  rms(total) = 0.28254E+00    rms(broyden)= 0.28226E+00
  rms(prec ) = 0.29646E+00
  weight for this iteration     100.00

 eigenvalues of (default mixing * dielectric matrix)
  average eigenvalue GAMMA=   1.0181
  2.4524  1.3797  0.8335  0.5880  0.3839  0.4709

 Free energy of the ion-electron system (eV)
  ---------------------------------------------------
[...]
   4      -1.073    -0.770     1.842    -0.027    -0.001     0.022
   5      -0.668    -0.992     1.660     0.204     0.004    -0.206
   6      -0.589    -0.893     1.481    -0.093     0.021    -0.044
   7      -1.128    -0.584     1.712    -0.080    -0.047     0.038
   8      -0.631    -0.814     1.445    -0.140     0.017    -0.061
   9      -0.514    -0.763     1.276    -0.136    -0.021    -0.089
  10      -1.038    -0.888     1.926     0.099     0.067     0.060
  11      -0.931    -0.894     1.825    -0.199     0.045     0.040
  12      -0.583    -0.803     1.386     0.179    -0.010     0.012
  13      -1.045    -0.944     1.989     0.097     0.041     0.016
  14      -1.113    -0.716     1.829    -0.073     0.037     0.036
  15      -1.009    -0.600     1.609     0.146     0.009     0.032
  16      -0.541    -0.832     1.373     0.094    -0.003     0.070
  17       1.683     1.299    -2.982    -0.032    -0.208    -0.196
  18       1.513     1.499    -3.012     0.141    -0.027    -0.003
  19       1.606     1.319    -2.925     0.113     0.056    -0.085
  20       1.339     1.511    -2.850     0.040    -0.044     0.179
  21       1.338     1.589    -2.927     0.092     0.064     0.261
  22       1.381     1.530    -2.911     0.006     0.172    -0.173
  23       1.509     1.447    -2.956    -0.156     0.011     0.049
  24       1.640     1.337    -2.977    -0.160    -0.121    -0.131
  25       0.525    -0.441    -0.085    -0.317     0.434     0.447
  26       1.406     0.396    -1.802    -0.169    -0.614     1.439
  27      -0.360     0.329     0.031    -0.327     1.889    -0.869
  28       0.046    -0.887     0.841    -0.015    -0.947    -0.402
  29       0.018    -0.764     0.747    -1.835     0.648    -0.062
  30      -3.619     0.686     2.933    -2.370    -0.990    -0.383
  31       0.261     0.361    -0.622     0.053    -0.658     0.008
  32       0.127     1.256    -1.383    -0.125    -0.103    -1.391
  33       0.537    -0.327    -0.209    -0.786     0.206     0.145
  34       0.318    -1.939     1.621     0.590     0.859     0.796
  35      -1.609    -0.189     1.799    -0.482     0.715    -0.535
  36       0.979    -0.399    -0.580     0.901    -0.429    -0.293
  37      -1.288    -1.464     2.752    -1.482     0.349    -0.050
  38      -1.742    -0.836     2.578    -0.274    -0.566    -0.027
  39       0.547    -1.300     0.753    -0.630    -1.110    -0.705
  40      -1.703     1.356     0.347    -0.818     1.595    -0.294
  41      -3.797     3.642     0.155    -5.102     0.509    -3.978
  42      -1.999     0.108     1.892     6.323     1.119     5.442
  43       5.498    -5.949     0.451     0.261    -4.777     1.366
  44      -4.790     4.953    -0.163    -3.859    -3.847     3.939
  45       2.917    -5.951     3.034    -0.829     4.719    -1.455
  46      -2.714     3.072    -0.358     4.341    -3.156    -3.429
  47      -1.570     4.647    -3.077    -5.425     0.215    -2.355
  48       5.249    -5.202    -0.047    -1.533    -4.984    -0.910
  49      -3.353     4.158    -0.805     5.423     3.566     4.089
  50      -3.670     1.491     2.180    -3.781    -0.325     4.872
  51      -2.489     1.515     0.974     4.885    -1.642    -4.536
  52       5.064    -6.156     1.092    -1.517     4.962    -0.534
  53      -4.004     3.445     0.559    -4.196     2.496    -4.348
  54      -4.454     2.584     1.870     4.673     0.421     4.823
  55       2.548    -5.146     2.598    -0.291    -4.414     1.246
  56      -4.211     5.103    -0.892    -4.301    -3.686     3.858
  57       6.797    -6.229    -0.568     1.117     2.381    -0.340
  58      -2.818     2.981    -0.162     5.715    -0.450    -4.620
  59      -3.913     4.335    -0.422    -6.659     3.180    -5.247
  60       3.158    -5.335     2.178    -2.049    -5.005    -0.642
  61      -4.616     3.760     0.856     2.582     2.295     3.892
  62      -3.580     2.389     1.190    -5.900    -1.318     4.916
  63      -3.653     2.505     1.148     4.599    -1.501    -4.832
  64       4.718    -5.144     0.426    -0.585     4.573     0.269
  65      -1.584     0.891     0.693    -3.927     3.203    -2.679
  66      -2.102     3.892    -1.790     4.061     1.515     1.764
  67       6.807    -6.170    -0.637     1.650    -5.876    -0.387
  68      -3.136     1.211     1.924    -4.307    -2.395     4.216
  69       5.733    -6.261     0.527     1.242     6.053    -1.311
  70      -0.251    -0.791     1.043     6.885    -2.956    -3.830
  71      -1.879     1.725     0.153    -6.441     3.414    -3.330
  72       5.063    -7.328     2.265     1.797    -3.754     0.179
  73      -3.203     0.353     2.850     3.790     2.553     3.809
  74      -2.119     3.412    -1.293    -5.593    -1.265     3.164
  75      -3.773     1.448     2.325     3.193    -6.145    -3.456
  76       5.416    -5.481     0.065    -0.893     4.976     0.229
  77      -5.241     1.762     3.479    -3.016     3.076    -4.577
  78      -3.369     1.897     1.471     5.087     0.853     3.689
  79       6.133    -6.519     0.386    -0.287    -5.199     0.504
  80      -2.085     1.269     0.816    -4.690    -0.285     4.911
  81       4.401    -5.542     1.141     0.901     4.276    -0.632
  82      -4.161     2.925     1.236     4.933    -1.629    -4.878
  83      -3.552     3.008     0.544    -5.178     2.080    -3.502
  84       5.890    -6.463     0.573    -0.505    -4.361    -0.843
  85      -0.835     0.402     0.432     4.290     2.622     3.595
  86      -4.061     4.674    -0.613    -4.603    -2.063     2.935
  87      -3.546     4.134    -0.588     4.755    -1.596    -4.495
  88       4.985    -6.082     1.097     0.552     4.475    -0.769
 ---------------------------------------------------------------------


 Total hyperfine coupling parameters after diagonalization (MHz)
 (convention: |A_zz| > |A_xx| > |A_yy|)
 ----------------------------------------------------------------------
  ion      A_xx      A_yy      A_zz     asymmetry (A_yy - A_xx)/ A_zz 
 ----------------------------------------------------------------------
   1       0.800     0.280     3.316      -0.157
   2       2.560     2.217     4.553      -0.075
   3       2.070     1.666     3.881      -0.104
   4       0.396     0.089     3.006      -0.102
   5       2.517     1.987     4.767      -0.111
   6       1.767     1.411     3.813      -0.094
   7       2.000     1.433     4.286      -0.132
   8       1.719     1.384     3.723      -0.090
   9       2.119     1.746     3.852      -0.097
  10      -0.259    -0.013     2.757       0.089
  11      -0.235     0.167     2.706       0.148
  12       2.576     2.156     4.445      -0.095
  13      -0.658    -0.440     2.435       0.089
  14       1.126     0.702     3.658      -0.116
  15       0.982     0.479     3.145      -0.160
  16       2.458     2.110     4.347      -0.080
  17      14.582    10.275    14.969      -0.288
  18      14.539    10.162    14.821      -0.295
  19      13.585     9.375    13.948      -0.302
  20      13.342     9.153    13.536      -0.309
  21      15.933    11.682    16.260      -0.261
  22      13.104     8.792    13.253      -0.325
  23      15.569    11.292    15.887      -0.269
  24      14.145     9.885    14.579      -0.292
  25      95.466    94.375    96.056      -0.011
  26      99.086    95.686    99.998      -0.034
  27     101.193    99.114   103.380      -0.020
  28      93.862    93.280    95.844      -0.006
  29     104.039   101.246   105.331      -0.027
  30     103.053    96.505   104.399      -0.063
  31      98.183    96.854    98.448      -0.013
  32      95.495    93.371    97.218      -0.022
  33      92.438    91.703    93.586      -0.008
  34      96.861    94.778    99.231      -0.021
  35      97.218    95.650    99.602      -0.016
  36      97.038    96.839    99.261      -0.002
  37      93.798    90.853    96.511      -0.031
  38      94.683    93.561    98.099      -0.011
  39      95.728    93.670    97.352      -0.021
  40      97.476    94.140    98.781      -0.034
  41       6.911     1.563    16.340      -0.327
  42      10.798     3.404    20.625      -0.359
  43       7.873     3.479    18.266      -0.241
  44       5.119    -0.168    16.111      -0.328
  45       2.730    -1.750    12.316      -0.364
  46       6.118     3.097    16.449      -0.184
  47       5.462     3.152    16.610      -0.139
  48       5.419     1.585    15.949      -0.240
  49       5.033     1.480    17.777      -0.200
  50       6.376     1.284    15.039      -0.339
  51       7.234     3.127    17.135      -0.240
  52       3.213    -0.921    14.026      -0.295
  53       6.811     3.398    17.825      -0.191
  54       5.718    -0.485    14.946      -0.415
  55       5.205     1.549    14.003      -0.261
  56       6.228     1.735    17.860      -0.252
  57       7.442     2.255    16.201      -0.320
  58       5.575     0.001    15.619      -0.357
  59       8.583     4.581    23.475      -0.170
  60       8.050     3.255    17.337      -0.277
  61       4.094     0.266    13.338      -0.287
  62       6.477     0.538    17.130      -0.347
  63       6.391     2.226    16.904      -0.246
  64      -1.476     1.409    11.416       0.253
  65       4.309     1.411    12.758      -0.227
  66       6.194     4.138    14.999      -0.137
  67       1.991    -0.633    15.985      -0.164
  68       2.608    -1.140    12.488      -0.300
  69       7.109     2.577    19.431      -0.233
  70       7.919     2.139    18.814      -0.307
  71       5.928     1.318    17.281      -0.267
  72       7.318    -0.164    15.271      -0.490
  73       5.145     1.308    14.312      -0.268
  74       6.769     3.471    17.255      -0.191
  75       6.793     0.402    17.076      -0.374
  76       8.333     5.421    19.509      -0.149
  77       4.481    -0.104    15.103      -0.304
  78       6.026    -0.041    13.888      -0.437
  79       3.345    -0.552    15.220      -0.256
  80       5.933     0.269    14.258      -0.397
  81       5.412     1.134    14.311      -0.299
  82       5.422     0.697    16.352      -0.289
  83       4.930     0.183    14.650      -0.324
  84       5.931     0.941    15.944      -0.313
  85       2.601     0.481    12.162      -0.174
  86       3.924    -0.314    13.920      -0.304
  87       2.491    -0.482    14.213      -0.209
  88       4.255    -0.392    13.811      -0.336
 ---------------------------------------------------------------------



--------------------------------------------------------------------------------------------------------


 stress matrix after NEB project (eV)
    -39.05466     -1.94493      2.20953
     -1.93887    -42.35017      6.85533
      2.23286      6.80955    -51.07758
  FORCES: max atom, RMS     3.086345    1.267053
  FORCE total and by dimension   11.886011    3.064367
  Stress total and by dimension   77.707769   51.077579
     LOOP+:  cpu time  737.0212: real time  751.4190
    4ORBIT:  cpu time    0.0000: real time    0.0000
 


 total charge     
 
# of ion       s       p       d       tot
------------------------------------------
    1        0.055   5.999   0.000   6.054
    2        0.049   5.991   0.000   6.040
    3        0.048   5.989   0.000   6.038
    4        0.047   5.990   0.000   6.037
    5        0.055   6.000   0.000   6.055
    6        0.044   5.986   0.000   6.030
    7        0.053   5.996   0.000   6.049
    8        0.051   5.994   0.000   6.045
    9        0.049   5.991   0.000   6.041
   10        0.050   5.993   0.000   6.043
   11        0.051   5.995   0.000   6.046
   12        0.053   5.995   0.000   6.048
   13        0.053   5.999   0.000   6.052
   14        0.053   5.998   0.000   6.051
   15        0.049   5.992   0.000   6.041
   16        0.050   5.993   0.000   6.043
   17        0.153   6.136   0.090   6.379
   18        0.152   6.134   0.089   6.375
   19        0.148   6.126   0.082   6.356
   20        0.143   6.118   0.076   6.337
   21        0.148   6.126   0.083   6.356
   22        0.148   6.126   0.083   6.357
   23        0.144   6.120   0.078   6.343
   24        0.148   6.127   0.084   6.359
   25        0.388   6.480   4.861  11.730
   26        0.368   6.435   4.828  11.631
   27        0.362   6.425   4.808  11.595
   28        0.382   6.469   4.838  11.689
   29        0.381   6.467   4.855  11.703
   30        0.390   6.488   4.866  11.744
   31        0.371   6.439   4.832  11.642
   32        0.389   6.487   4.863  11.739
   33        0.384   6.470   4.846  11.700
   34        0.382   6.467   4.851  11.700
   35        0.371   6.445   4.813  11.629
   36        0.382   6.462   4.855  11.698
   37        0.401   6.509   4.890  11.801
   38        0.385   6.473   4.843  11.702
   39        0.381   6.461   4.844  11.686
   40        0.364   6.430   4.801  11.595
   41        1.599   3.508   0.000   5.107
   42        1.601   3.510   0.000   5.112
   43        1.598   3.499   0.000   5.097
   44        1.602   3.489   0.000   5.091
   45        1.597   3.518   0.000   5.115
   46        1.601   3.514   0.000   5.115
   47        1.600   3.486   0.000   5.086
   48        1.600   3.517   0.000   5.117
   49        1.601   3.479   0.000   5.080
   50        1.598   3.504   0.000   5.101
   51        1.597   3.490   0.000   5.087
   52        1.598   3.494   0.000   5.092
   53        1.599   3.545   0.000   5.143
   54        1.599   3.503   0.000   5.102
   55        1.599   3.543   0.000   5.142
   56        1.604   3.474   0.000   5.078
   57        1.599   3.516   0.000   5.115
   58        1.598   3.497   0.000   5.095
   59        1.606   3.520   0.000   5.125
   60        1.602   3.556   0.000   5.159
   61        1.597   3.515   0.000   5.113
   62        1.604   3.539   0.000   5.143
   63        1.599   3.513   0.000   5.113
   64        1.596   3.492   0.000   5.088
   65        1.598   3.520   0.000   5.119
   66        1.597   3.520   0.000   5.117
   67        1.600   3.491   0.000   5.092
   68        1.598   3.493   0.000   5.091
   69        1.604   3.526   0.000   5.129
   70        1.601   3.517   0.000   5.118
   71        1.600   3.498   0.000   5.098
   72        1.600   3.551   0.000   5.151
   73        1.597   3.529   0.000   5.126
   74        1.599   3.502   0.000   5.101
   75        1.601   3.502   0.000   5.102
   76        1.599   3.492   0.000   5.090
   77        1.601   3.539   0.000   5.140
   78        1.598   3.505   0.000   5.103
   79        1.598   3.491   0.000   5.089
   80        1.596   3.504   0.000   5.100
   81        1.596   3.490   0.000   5.086
   82        1.598   3.496   0.000   5.094
   83        1.596   3.505   0.000   5.101
   84        1.600   3.545   0.000   5.145
   85        1.596   3.488   0.000   5.084
   86        1.600   3.509   0.000   5.109
   87        1.601   3.477   0.000   5.078
   88        1.598   3.502   0.000   5.100
--------------------------------------------------
tot         84.844 416.735  78.160 579.738
 


 magnetization (x)
 
# of ion       s       p       d       tot
------------------------------------------
    1        0.001   0.000   0.000   0.001
    2        0.002   0.000   0.000   0.003
    3        0.002   0.000   0.000   0.002
    4        0.001   0.000   0.000   0.001
    5        0.002   0.000   0.000   0.002
    6        0.002   0.000   0.000   0.002
    7        0.002   0.000   0.000   0.002
    8        0.002   0.000   0.000   0.002
    9        0.002   0.000   0.000   0.002
   10        0.001   0.000   0.000   0.001
   11        0.001   0.000   0.000   0.001
   12        0.002   0.000   0.000   0.003
   13        0.000   0.000   0.000   0.000
   14        0.001   0.001   0.000   0.002
   15        0.001   0.000   0.000   0.001
   16        0.002   0.000   0.000   0.003
   17        0.007   0.002   0.001   0.011
   18        0.007   0.002   0.001   0.011
   19        0.007   0.002   0.001   0.010
   20        0.007   0.002   0.001   0.010
   21        0.008   0.003   0.001   0.013
   22        0.007   0.002   0.001   0.009
   23        0.008   0.003   0.001   0.012
   24        0.007   0.002   0.001   0.011
   25        0.015   0.032   2.717   2.764
   26        0.016   0.029   2.764   2.809
   27        0.016   0.029   2.792   2.837
   28        0.015   0.030   2.745   2.790
   29        0.017   0.032   2.746   2.795
   30        0.017   0.032   2.737   2.785
   31        0.015   0.028   2.766   2.809
   32        0.015   0.031   2.721   2.767
   33        0.014   0.029   2.739   2.783
   34        0.015   0.031   2.733   2.779
   35        0.015   0.031   2.770   2.816
   36        0.015   0.030   2.736   2.782
   37        0.014   0.031   2.705   2.749
   38        0.015   0.031   2.736   2.781
   39        0.015   0.030   2.738   2.783
   40        0.015   0.029   2.781   2.825
   41        0.002   0.041   0.000   0.044
   42        0.003   0.066   0.000   0.068
   43        0.003   0.043   0.000   0.045
   44        0.002   0.019   0.000   0.021
   45        0.001   0.023   0.000   0.024
   46        0.002   0.036   0.000   0.039
   47        0.002   0.024   0.000   0.027
   48        0.002   0.045   0.000   0.046
   49        0.002   0.030   0.000   0.032
   50        0.002   0.032   0.000   0.034
   51        0.002   0.049   0.000   0.051
   52        0.002   0.016   0.000   0.017
   53        0.002   0.056   0.000   0.058
   54        0.002   0.030   0.000   0.031
   55        0.002   0.038   0.000   0.040
   56        0.002   0.031   0.000   0.034
   57        0.002   0.044   0.000   0.046
   58        0.002   0.035   0.000   0.037
   59        0.003   0.066   0.000   0.069
   60        0.002   0.053   0.000   0.055
   61        0.002   0.026   0.000   0.027
   62        0.002   0.051   0.000   0.053
   63        0.002   0.042   0.000   0.044
   64        0.001   0.008   0.000   0.009
   65        0.002   0.024   0.000   0.026
   66        0.002   0.037   0.000   0.039
   67        0.002   0.018   0.000   0.020
   68        0.001   0.014   0.000   0.015
   69        0.002   0.058   0.000   0.060
   70        0.002   0.051   0.000   0.054
   71        0.002   0.037   0.000   0.039
   72        0.002   0.057   0.000   0.058
   73        0.002   0.033   0.000   0.035
   74        0.002   0.037   0.000   0.039
   75        0.002   0.041   0.000   0.043
   76        0.003   0.055   0.000   0.058
   77        0.002   0.041   0.000   0.042
   78        0.002   0.033   0.000   0.035
   79        0.002   0.022   0.000   0.023
   80        0.002   0.032   0.000   0.034
   81        0.002   0.024   0.000   0.026
   82        0.002   0.031   0.000   0.033
   83        0.002   0.034   0.000   0.036
   84        0.002   0.045   0.000   0.047
   85        0.002   0.010   0.000   0.011
   86        0.002   0.020   0.000   0.021
   87        0.002   0.009   0.000   0.011
   88        0.002   0.015   0.000   0.017
--------------------------------------------------
tot          0.423   2.187  43.934  46.544
 

 total amount of memory used by VASP MPI-rank0    94434. kBytes
=======================================================================

   base      :      30000. kBytes
   nonlr-proj:      13675. kBytes
   fftplans  :       1275. kBytes
   grid      :      22786. kBytes
   one-center:       2737. kBytes
   wavefun   :      23961. kBytes
 
  
  
 General timing and accounting informations for this job:
 ========================================================
  
                  Total CPU time used (sec):      757.855
                            User time (sec):      750.214
                          System time (sec):        7.641
                         Elapsed time (sec):      774.769
  
                   Maximum memory used (kb):      194116.
                   Average memory used (kb):           0.
  
                          Minor page faults:       261871
                          Major page faults:            0
                 Voluntary context switches:       251460
