 vasp.5.4.4.18Apr17-6-g9f103f2a35 (build Dec 02 2020 12:53:39) complex          
  
 executed on             LinuxIFC date 2021.08.03  19:20:07
 running on   96 total cores
 distrk:  each k-point on   96 cores,    1 groups
 distr:  one band on NCORES_PER_BAND=   1 cores,   96 groups


--------------------------------------------------------------------------------------------------------


 INCAR:
 POTCAR:    PAW_PBE Na_pv 19Sep2006               
 POTCAR:    PAW_PBE Mg_pv 13Apr2007               
 POTCAR:    PAW_PBE Mn_pv 02Aug2007               
 POTCAR:    PAW_PBE O 08Apr2002                   

 ----------------------------------------------------------------------------- 
|                                                                             |
|           W    W    AA    RRRRR   N    N  II  N    N   GGGG   !!!           |
|           W    W   A  A   R    R  NN   N  II  NN   N  G    G  !!!           |
|           W    W  A    A  R    R  N N  N  II  N N  N  G       !!!           |
|           W WW W  AAAAAA  RRRRR   N  N N  II  N  N N  G  GGG   !            |
|           WW  WW  A    A  R   R   N   NN  II  N   NN  G    G                |
|           W    W  A    A  R    R  N    N  II  N    N   GGGG   !!!           |
|                                                                             |
|      For optimal performance we recommend to set                            |
|        NCORE= 4 - approx SQRT( number of cores)                             |
|      NCORE specifies how many cores store one orbital (NPAR=cpu/NCORE).     |
|      This setting can  greatly improve the performance of VASP for DFT.     |
|      The default,   NCORE=1            might be grossly inefficient         |
|      on modern multi-core architectures or massively parallel machines.     |
|      Do your own testing !!!!                                               |
|      Unfortunately you need to use the default for GW and RPA calculations. |
|      (for HF NCORE is supported but not extensively tested yet)             |
|                                                                             |
 ----------------------------------------------------------------------------- 

 POTCAR:    PAW_PBE Na_pv 19Sep2006               
   VRHFIN =Na: p6s1                                                             
   LEXCH  = PE                                                                  
   EATOM  =   766.0439 eV,   56.3026 Ry                                         
                                                                                
   TITEL  = PAW_PBE Na_pv 19Sep2006                                             
   LULTRA =        F    use ultrasoft PP ?                                      
   IUNSCR =        1    unscreen: 0-lin 1-nonlin 2-no                           
   RPACOR =    1.800    partial core radius                                     
   POMASS =   22.990; ZVAL   =    7.000    mass and valenz                      
   RCORE  =    2.200    outmost cutoff radius                                   
   RWIGS  =    2.200; RWIGS  =    1.164    wigner-seitz radius (au A)           
   ENMAX  =  259.561; ENMIN  =  194.671 eV                                      
   ICORE  =        2    local potential                                         
   LCOR   =        T    correct aug charges                                     
   LPAW   =        T    paw PP                                                  
   EAUG   =  368.056                                                            
   DEXC   =    0.000                                                            
   RMAX   =    2.245    core radius for proj-oper                               
   RAUG   =    1.300    factor for augmentation sphere                          
   RDEP   =    2.259    radius for radial grids                                 
   RDEPT  =    1.738    core radius for aug-charge                              
                                                                                
   Atomic configuration                                                         
    5 entries                                                                   
     n  l   j            E        occ.                                          
     1  0  0.50     -1033.6933   2.0000                                         
     2  0  0.50       -56.7526   2.0000                                         
     2  1  1.50       -28.6721   6.0000                                         
     3  0  0.50        -2.7440   1.0000                                         
     3  2  1.50        -1.3606   0.0000                                         
   Description                                                                  
     l       E           TYP  RCUT    TYP  RCUT                                 
     1    -28.6720912     23  2.000                                             
     1      6.8029130     23  2.000                                             
     0     -2.7439560     23  2.200                                             
     0     34.0145650     23  2.200                                             
     2     -1.3605826     23  2.200                                             
  local pseudopotential read in
  partial core-charges read in
  partial kinetic energy density read in
  atomic valenz-charges read in
  non local Contribution for L=           1  read in
    real space projection operators read in
  non local Contribution for L=           1  read in
    real space projection operators read in
  non local Contribution for L=           0  read in
    real space projection operators read in
  non local Contribution for L=           0  read in
    real space projection operators read in
    PAW grid and wavefunctions read in
 
   number of l-projection  operators is LMAX  =           4
   number of lm-projection operators is LMMAX =           8
 
 POTCAR:    PAW_PBE Mg_pv 13Apr2007               
   VRHFIN =Mg: p6s2                                                             
   LEXCH  = PE                                                                  
   EATOM  =  1056.7344 eV,   77.6678 Ry                                         
                                                                                
   TITEL  = PAW_PBE Mg_pv 13Apr2007                                             
   LULTRA =        F    use ultrasoft PP ?                                      
   IUNSCR =        1    unscreen: 0-lin 1-nonlin 2-no                           
   RPACOR =    1.500    partial core radius                                     
   POMASS =   24.305; ZVAL   =    8.000    mass and valenz                      
   RCORE  =    2.000    outmost cutoff radius                                   
   RWIGS  =    2.000; RWIGS  =    1.058    wigner-seitz radius (au A)           
   ENMAX  =  403.929; ENMIN  =  302.947 eV                                      
   RCLOC  =    1.506    cutoff for local pot                                    
   LCOR   =        T    correct aug charges                                     
   LPAW   =        T    paw PP                                                  
   EAUG   =  758.780                                                            
   DEXC   =    0.000                                                            
   RMAX   =    2.045    core radius for proj-oper                               
   RAUG   =    1.300    factor for augmentation sphere                          
   RDEP   =    2.025    radius for radial grids                                 
   RDEPT  =    1.557    core radius for aug-charge                              
                                                                                
   Atomic configuration                                                         
    5 entries                                                                   
     n  l   j            E        occ.                                          
     1  0  0.50     -1259.6230   2.0000                                         
     2  0  0.50       -79.8442   2.0000                                         
     2  1  1.50       -46.6121   6.0000                                         
     3  0  0.50        -4.7055   2.0000                                         
     3  2  1.50        -1.3606   0.0000                                         
   Description                                                                  
     l       E           TYP  RCUT    TYP  RCUT                                 
     1    -46.6121073     23  1.600                                             
     1      2.7211652     23  1.600                                             
     0     -4.7054661     23  2.000                                             
     0     61.2262170     23  2.000                                             
     2     -1.3605826     23  2.000                                             
  local pseudopotential read in
  partial core-charges read in
  partial kinetic energy density read in
  atomic valenz-charges read in
  non local Contribution for L=           1  read in
    real space projection operators read in
  non local Contribution for L=           1  read in
    real space projection operators read in
  non local Contribution for L=           0  read in
    real space projection operators read in
  non local Contribution for L=           0  read in
    real space projection operators read in
  non local Contribution for L=           2  read in
    real space projection operators read in
    PAW grid and wavefunctions read in
 
   number of l-projection  operators is LMAX  =           5
   number of lm-projection operators is LMMAX =          13
 
 POTCAR:    PAW_PBE Mn_pv 02Aug2007               
   VRHFIN =Mn: 3p4s3d                                                           
   LEXCH  = PE                                                                  
   EATOM  =  2025.2664 eV,  148.8529 Ry                                         
                                                                                
   TITEL  = PAW_PBE Mn_pv 02Aug2007                                             
   LULTRA =        F    use ultrasoft PP ?                                      
   IUNSCR =        1    unscreen: 0-lin 1-nonlin 2-no                           
   RPACOR =    2.080    partial core radius                                     
   POMASS =   54.938; ZVAL   =   13.000    mass and valenz                      
   RCORE  =    2.300    outmost cutoff radius                                   
   RWIGS  =    2.500; RWIGS  =    1.323    wigner-seitz radius (au A)           
   ENMAX  =  269.864; ENMIN  =  202.398 eV                                      
   ICORE  =        3    local potential                                         
   LCOR   =        T    correct aug charges                                     
   LPAW   =        T    paw PP                                                  
   EAUG   =  569.085                                                            
   DEXC   =    0.000                                                            
   RMAX   =    2.343    core radius for proj-oper                               
   RAUG   =    1.300    factor for augmentation sphere                          
   RDEP   =    2.338    radius for radial grids                                 
   RDEPT  =    1.798    core radius for aug-charge                              
                                                                                
   Atomic configuration                                                         
    8 entries                                                                   
     n  l   j            E        occ.                                          
     1  0  0.50     -6424.8287   2.0000                                         
     2  0  0.50      -739.1154   2.0000                                         
     2  1  1.50      -625.3949   6.0000                                         
     3  0  0.50       -81.6100   2.0000                                         
     3  1  1.50       -50.4667   6.0000                                         
     3  2  2.50        -3.3745   6.0000                                         
     4  0  0.50        -4.1331   1.0000                                         
     4  3  2.50        -1.3606   0.0000                                         
   Description                                                                  
     l       E           TYP  RCUT    TYP  RCUT                                 
     1    -50.4666628     23  2.000                                             
     1     -1.3605826     23  2.000                                             
     2     -3.3744729     23  2.300                                             
     2     -4.7350555     23  2.300                                             
     0     -4.1331431     23  2.300                                             
     0      7.6656591     23  2.300                                             
     3      9.5240782     23  2.300                                             
  local pseudopotential read in
  partial core-charges read in
  partial kinetic energy density read in
  atomic valenz-charges read in
  non local Contribution for L=           1  read in
    real space projection operators read in
  non local Contribution for L=           1  read in
    real space projection operators read in
  non local Contribution for L=           2  read in
    real space projection operators read in
  non local Contribution for L=           2  read in
    real space projection operators read in
  non local Contribution for L=           0  read in
    real space projection operators read in
  non local Contribution for L=           0  read in
    real space projection operators read in
    PAW grid and wavefunctions read in
 
   number of l-projection  operators is LMAX  =           6
   number of lm-projection operators is LMMAX =          18
 
 POTCAR:    PAW_PBE O 08Apr2002                   
   VRHFIN =O: s2p4                                                              
   LEXCH  = PE                                                                  
   EATOM  =   432.3788 eV,   31.7789 Ry                                         
                                                                                
   TITEL  = PAW_PBE O 08Apr2002                                                 
   LULTRA =        F    use ultrasoft PP ?                                      
   IUNSCR =        1    unscreen: 0-lin 1-nonlin 2-no                           
   RPACOR =    1.200    partial core radius                                     
   POMASS =   16.000; ZVAL   =    6.000    mass and valenz                      
   RCORE  =    1.520    outmost cutoff radius                                   
   RWIGS  =    1.550; RWIGS  =    0.820    wigner-seitz radius (au A)           
   ENMAX  =  400.000; ENMIN  =  300.000 eV                                      
   ICORE  =        2    local potential                                         
   LCOR   =        T    correct aug charges                                     
   LPAW   =        T    paw PP                                                  
   EAUG   =  605.392                                                            
   DEXC   =    0.000                                                            
   RMAX   =    1.553    core radius for proj-oper                               
   RAUG   =    1.300    factor for augmentation sphere                          
   RDEP   =    1.550    radius for radial grids                                 
   RDEPT  =    1.329    core radius for aug-charge                              
                                                                                
   Atomic configuration                                                         
    4 entries                                                                   
     n  l   j            E        occ.                                          
     1  0  0.50      -514.6923   2.0000                                         
     2  0  0.50       -23.9615   2.0000                                         
     2  1  0.50        -9.0305   4.0000                                         
     3  2  1.50        -9.5241   0.0000                                         
   Description                                                                  
     l       E           TYP  RCUT    TYP  RCUT                                 
     0    -23.9615318     23  1.200                                             
     0     -9.5240782     23  1.200                                             
     1     -9.0304911     23  1.520                                             
     1      8.1634956     23  1.520                                             
     2     -9.5240782      7  1.500                                             
  local pseudopotential read in
  partial core-charges read in
  partial kinetic energy density read in
  kinetic energy density of atom read in
  atomic valenz-charges read in
  non local Contribution for L=           0  read in
    real space projection operators read in
  non local Contribution for L=           0  read in
    real space projection operators read in
  non local Contribution for L=           1  read in
    real space projection operators read in
  non local Contribution for L=           1  read in
    real space projection operators read in
    PAW grid and wavefunctions read in
 
   number of l-projection  operators is LMAX  =           4
   number of lm-projection operators is LMMAX =           8
 
 Optimization of the real space projectors (new method)

 maximal supplied QI-value         = 17.01
 optimisation between [QCUT,QGAM] = [ 10.20, 20.41] = [ 29.16,116.64] Ry 
 Optimized for a Real-space Cutoff    1.30 Angstroem

   l    n(q)    QCUT    max X(q) W(low)/X(q) W(high)/X(q)  e(spline) 
   1      7    10.205     4.940    0.23E-03    0.84E-03    0.11E-06
   1      7    10.205     6.253    0.40E-03    0.13E-02    0.18E-06
   0      8    10.205    37.438    0.23E-03    0.37E-03    0.42E-07
   0      8    10.205     9.606    0.16E-03    0.26E-03    0.31E-07
 Optimization of the real space projectors (new method)

 maximal supplied QI-value         = 18.90
 optimisation between [QCUT,QGAM] = [ 10.20, 20.41] = [ 29.16,116.64] Ry 
 Optimized for a Real-space Cutoff    1.26 Angstroem

   l    n(q)    QCUT    max X(q) W(low)/X(q) W(high)/X(q)  e(spline) 
   1      7    10.205     2.974    0.63E-04    0.14E-03    0.13E-06
   1      7    10.205     4.279    0.11E-03    0.45E-03    0.24E-06
   0      8    10.205    16.381    0.44E-03    0.15E-03    0.55E-07
   0      8    10.205     5.611    0.31E-03    0.11E-03    0.40E-07
   2      7    10.205     4.652    0.50E-03    0.47E-03    0.57E-07
 Optimization of the real space projectors (new method)

 maximal supplied QI-value         = 16.25
 optimisation between [QCUT,QGAM] = [ 10.24, 20.48] = [ 29.35,117.42] Ry 
 Optimized for a Real-space Cutoff    1.34 Angstroem

   l    n(q)    QCUT    max X(q) W(low)/X(q) W(high)/X(q)  e(spline) 
   1      8    10.239     3.658    0.23E-03    0.30E-03    0.98E-07
   1      8    10.239     5.612    0.32E-03    0.65E-03    0.21E-06
   2      7    10.239    55.373    0.42E-03    0.45E-03    0.65E-07
   2      7    10.239    50.863    0.43E-03    0.48E-03    0.67E-07
   0      8    10.239    79.536    0.11E-03    0.21E-03    0.56E-07
   0      8    10.239    38.668    0.96E-04    0.19E-03    0.52E-07
 Optimization of the real space projectors (new method)

 maximal supplied QI-value         = 24.76
 optimisation between [QCUT,QGAM] = [ 10.15, 20.30] = [ 28.85,115.39] Ry 
 Optimized for a Real-space Cutoff    1.38 Angstroem

   l    n(q)    QCUT    max X(q) W(low)/X(q) W(high)/X(q)  e(spline) 
   0      8    10.150    20.381    0.22E-03    0.32E-03    0.29E-06
   0      8    10.150    15.268    0.23E-03    0.35E-03    0.30E-06
   1      8    10.150     5.964    0.46E-03    0.53E-03    0.21E-06
   1      8    10.150     5.382    0.38E-03    0.45E-03    0.19E-06
  PAW_PBE Na_pv 19Sep2006               :
 energy of atom  1       EATOM= -766.0439
 kinetic energy error for atom=    0.0103 (will be added to EATOM!!)
  PAW_PBE Mg_pv 13Apr2007               :
 energy of atom  2       EATOM=-1056.7344
 kinetic energy error for atom=    0.0820 (will be added to EATOM!!)
  PAW_PBE Mn_pv 02Aug2007               :
 energy of atom  3       EATOM=-2025.2664
 kinetic energy error for atom=    0.0284 (will be added to EATOM!!)
  PAW_PBE O 08Apr2002                   :
 energy of atom  4       EATOM= -432.3788
 kinetic energy error for atom=    0.1156 (will be added to EATOM!!)
 
 
 POSCAR: Na Mg Mn  O                             
  positions in cartesian coordinates
  No initial velocities read in

 METAGGA = SCAN     LMAXTAU =  6    LMIXTAU =  F

 exchange correlation table for  LEXCH =        8
   RHO(1)=    0.500       N(1)  =     2000
   RHO(2)=  100.500       N(2)  =     4000

 VTST: version 3.2, (02/03/18)

 CHAIN: initializing optimizer
 
 OPT: Using VASP Dynamics algorithm
 CHAIN: Read ICHAIN            0
 
 POSCAR: Na Mg Mn  O                             
  positions in cartesian coordinates
  No initial velocities read in
 


--------------------------------------------------------------------------------------------------------


 ion  position               nearest neighbor table
   1  0.521  0.648  0.251-  79 2.26  65 2.37
   2  0.569  0.530  0.743-  82 2.19  71 2.26  68 2.37  35 2.98
   3  0.304  0.608  0.761-  83 2.18  80 2.25  84 2.26  38 2.85  40 2.88
   4  0.314  0.141  0.753-  45 2.24  48 2.25  26 2.88  28 2.89
   5  0.496  0.104  0.241-  43 2.36  53 2.37
   6  0.013  0.439  0.248-  55 2.34  77 2.37  39 2.93  37 2.97
   7  0.799  0.404  0.740-  57 2.19  60 2.31
   8  0.815  0.924  0.735-  69 2.21  56 2.33  58 2.34
   9  0.006  0.934  0.251-  41 2.32  50 2.33  67 2.33  27 2.84  25 2.89
  10  0.276  0.781  0.245-  42 2.30  77 2.35  51 2.38
  11  0.298  0.274  0.243-  78 2.31  41 2.35
  12  0.027  0.781  0.755-  73 2.31  47 2.33
  13  0.003  0.276  0.755-  60 2.32  61 2.37
  14  0.524  0.992  0.744-  49 2.24  46 2.27  31 2.73  29 2.86
  15  0.819  0.086  0.244-  54 2.25  63 2.37  30 2.84  32 2.98
  16  0.704  0.464  0.250-  74 2.25  66 2.34
  17  0.657  0.285  0.987-  71 2.01  49 2.02  60 2.09  66 2.11  53 2.14  43 2.16  34 2.81
  18  0.660  0.275  0.503-  68 1.90  46 1.99  57 2.01  62 2.07  52 2.10  75 2.16  35 2.81
  19  0.155  0.288  0.003-  83 1.95  55 2.02  61 2.04  48 2.07  78 2.13  41 2.19  37 2.83  30 2.85

  20  0.167  0.286  0.501-  64 2.05  45 2.09  58 2.11  87 2.12  80 2.12  50 2.16  40 2.80
  21  0.156  0.777  0.995-  42 1.98  84 2.00  73 2.01  67 2.02  77 2.05  47 2.10
  22  0.165  0.786  0.513-  44 1.96  76 2.03  81 2.05  70 2.09  51 2.09  86 2.16  28 2.75  27 2.85
                            31 2.85
  23  0.664  0.781  0.007-  65 1.90  54 1.97  79 2.01  85 2.01  72 2.02  59 2.06  34 2.81  25 2.85

  24  0.663  0.770  0.492-  82 1.98  69 2.05  74 2.07  63 2.07  56 2.13  88 2.13  36 2.84
  25  0.992  0.944  0.995-  47 1.82  67 1.84  41 1.91  61 1.91  54 1.92  72 1.92  26 2.85  23 2.85
                            30 2.87   9 2.89  34 2.92
  26  0.320  0.108  0.008-  43 1.84  42 1.89  48 1.90  41 1.90  47 1.96  49 2.04  25 2.85   4 2.88
                            29 2.94  33 2.96
  27  0.998  0.947  0.504-  76 1.88  63 1.88  44 1.90  50 1.92  58 1.93  69 1.95  28 2.82   9 2.84
                            22 2.85  36 2.88  32 2.89
  28  0.324  0.102  0.498-  51 1.83  46 1.83  44 1.85  45 1.89  50 1.94  52 2.06  22 2.75  27 2.82
                            31 2.85   4 2.89  35 2.92
  29  0.495  0.945  0.997-  53 1.90  42 1.95  59 1.96  49 1.96  84 1.97  79 1.98  38 2.81  14 2.86
                            30 2.89  26 2.94
  30  0.827  0.111  0.992-  54 1.87  61 1.87  55 1.88  59 1.88  60 1.90  53 1.98  15 2.84  19 2.85
                            25 2.87  29 2.89  37 2.92
  31  0.494  0.944  0.504-  88 1.87  81 1.90  56 1.93  46 1.97  62 1.98  51 2.04  14 2.73  22 2.85
                            28 2.85  40 2.91  32 2.93
  32  0.831  0.112  0.509-  56 1.87  57 1.90  64 1.90  58 1.93  62 1.96  63 1.98  27 2.89  39 2.90
                            31 2.93  15 2.98
  33  0.486  0.449  0.007-  78 1.90  85 1.90  65 1.91  48 1.92  71 2.00  43 2.06  38 2.83  34 2.86
                            26 2.96
  34  0.816  0.609  0.002-  71 1.87  66 1.89  72 1.90  65 1.92  67 1.97  73 2.02  23 2.81  17 2.81
                            33 2.86  25 2.92  37 2.92
  35  0.499  0.438  0.489-  52 1.84  82 1.91  45 1.91  68 1.91  74 1.94  87 1.97  18 2.81  28 2.92
                            36 2.92  40 2.96   2 2.98
  36  0.835  0.615  0.504-  76 1.86  70 1.87  69 1.93  68 1.95  75 1.96  74 1.99  24 2.84  39 2.86
                            27 2.88  35 2.92
  37  0.989  0.447  0.985-  73 1.84  66 1.90  83 1.97  60 1.98  77 2.01  55 2.01  19 2.83  30 2.92
                            34 2.92   6 2.97  38 3.00
  38  0.333  0.621  0.014-  85 1.86  77 1.88  84 1.89  78 1.93  79 1.95  83 2.06  29 2.81  33 2.83
                             3 2.85  37 3.00
  39  0.996  0.447  0.509-  75 1.82  86 1.89  70 1.89  64 1.93  80 1.95  57 1.96  36 2.86  40 2.88
                            32 2.90   6 2.93
  40  0.329  0.608  0.505-  80 1.93  82 1.94  86 1.95  88 1.96  87 1.96  81 2.02  20 2.80   3 2.88
                            39 2.88  31 2.91  35 2.96
  41  0.150  0.093  0.095-  26 1.90  25 1.91  19 2.19   9 2.32  11 2.35
  42  0.327  0.945  0.086-  26 1.89  29 1.95  21 1.98  10 2.30
  43  0.472  0.263  0.098-  26 1.84  33 2.06  17 2.16   5 2.36
  44  0.166  0.960  0.593-  28 1.85  27 1.90  22 1.96
  45  0.347  0.275  0.585-  28 1.89  35 1.91  20 2.09   4 2.24
  46  0.479  0.109  0.588-  28 1.83  31 1.97  18 1.99  14 2.27
  47  0.152  0.959  0.906-  25 1.82  26 1.96  21 2.10  12 2.33
  48  0.333  0.275  0.919-  26 1.90  33 1.92  19 2.07   4 2.25
  49  0.483  0.103  0.902-  29 1.96  17 2.02  26 2.04  14 2.24
  50  0.159  0.096  0.404-  27 1.92  28 1.94  20 2.16   9 2.33
  51  0.332  0.958  0.404-  28 1.83  31 2.04  22 2.09  10 2.38
  52  0.488  0.280  0.398-  35 1.84  28 2.06  18 2.10
  53  0.657  0.103  0.087-  29 1.90  30 1.98  17 2.14   5 2.37
  54  0.838  0.960  0.084-  30 1.87  25 1.92  23 1.97  15 2.25
  55  0.971  0.273  0.087-  30 1.88  37 2.01  19 2.02   6 2.34
  56  0.664  0.953  0.590-  32 1.87  31 1.93  24 2.13   8 2.33
  57  0.830  0.275  0.596-  32 1.90  39 1.96  18 2.01   7 2.19
  58  0.991  0.104  0.599-  27 1.93  32 1.93  20 2.11   8 2.34
  59  0.665  0.952  0.905-  30 1.88  29 1.96  23 2.06
  60  0.829  0.267  0.895-  30 1.90  37 1.98  17 2.09   7 2.31  13 2.32
  61  0.988  0.107  0.909-  30 1.87  25 1.91  19 2.04  13 2.37
  62  0.667  0.102  0.407-  32 1.96  31 1.98  18 2.07
  63  0.848  0.957  0.411-  27 1.88  32 1.98  24 2.07  15 2.37
  64  0.982  0.278  0.416-  32 1.90  39 1.93  20 2.05
  65  0.655  0.612  0.092-  23 1.90  33 1.91  34 1.92   1 2.37
  66  0.843  0.460  0.084-  34 1.89  37 1.90  17 2.11  16 2.34
  67  0.986  0.787  0.083-  25 1.84  34 1.97  21 2.02   9 2.33
  68  0.661  0.443  0.583-  18 1.90  35 1.91  36 1.95   2 2.37
  69  0.836  0.779  0.596-  36 1.93  27 1.95  24 2.05   8 2.21
  70  0.981  0.599  0.598-  36 1.87  39 1.89  22 2.09
  71  0.657  0.463  0.905-  34 1.87  33 2.00  17 2.01   2 2.26
  72  0.831  0.774  0.909-  34 1.90  25 1.92  23 2.02
  73  0.984  0.605  0.905-  37 1.84  21 2.01  34 2.02  12 2.31
  74  0.668  0.596  0.396-  35 1.94  36 1.99  24 2.07  16 2.25
  75  0.856  0.460  0.413-  39 1.82  36 1.96  18 2.16
  76  0.989  0.780  0.420-  36 1.86  27 1.88  22 2.03
  77  0.157  0.602  0.089-  38 1.88  37 2.01  21 2.05  10 2.35   6 2.37
  78  0.339  0.462  0.105-  33 1.90  38 1.93  19 2.13  11 2.31
  79  0.499  0.789  0.103-  38 1.95  29 1.98  23 2.01   1 2.26
  80  0.165  0.462  0.606-  40 1.93  39 1.95  20 2.12   3 2.25
  81  0.343  0.785  0.602-  31 1.90  40 2.02  22 2.05
  82  0.496  0.596  0.581-  35 1.91  40 1.94  24 1.98   2 2.19
  83  0.168  0.454  0.905-  19 1.95  37 1.97  38 2.06   3 2.18
  84  0.328  0.768  0.911-  38 1.89  29 1.97  21 2.00   3 2.26
  85  0.481  0.610  0.921-  38 1.86  33 1.90  23 2.01
  86  0.158  0.598  0.414-  39 1.89  40 1.95  22 2.16
  87  0.344  0.462  0.398-  40 1.96  35 1.97  20 2.12
  88  0.478  0.783  0.410-  31 1.87  40 1.96  24 2.13
 
  LATTYP: Found a hexagonal cell.
 ALAT       =    10.0190000534
 C/A-ratio  =     1.1196726572
  
  Lattice vectors:
  
 A1 = (  10.0190000534,   0.0000000000,   0.0000000000)
 A2 = (  -5.0095000267,   8.6767085668,   0.0000000000)
 A3 = (   0.0000000000,   0.0000000000,  11.2180004120)


Analysis of symmetry for initial positions (statically):
=====================================================================
 Subroutine PRICEL returns:
 Original cell was already a primitive cell.
 

 Routine SETGRP: Setting up the symmetry group for a 
 hexagonal supercell.


 Subroutine GETGRP returns: Found  1 space group operations
 (whereof  1 operations were pure point group operations)
 out of a pool of 24 trial point group operations.


The static configuration has the point symmetry C_1 .


Analysis of symmetry for dynamics (positions and initial velocities):
=====================================================================
 Subroutine PRICEL returns:
 Original cell was already a primitive cell.
 

 Routine SETGRP: Setting up the symmetry group for a 
 hexagonal supercell.


 Subroutine GETGRP returns: Found  1 space group operations
 (whereof  1 operations were pure point group operations)
 out of a pool of 24 trial point group operations.


The dynamic configuration has the point symmetry C_1 .


Analysis of structural, dynamic, and magnetic symmetry:
=====================================================================
 Subroutine PRICEL returns:
 Original cell was already a primitive cell.
 

 Routine SETGRP: Setting up the symmetry group for a 
 hexagonal supercell.


 Subroutine GETGRP returns: Found  1 space group operations
 (whereof  1 operations were pure point group operations)
 out of a pool of 24 trial point group operations.


The magnetic configuration has the point symmetry C_1 .


 Subroutine INISYM returns: Found  1 space group operations
 (whereof  1 operations are pure point group operations),
 and found     1 'primitive' translations

 
 

Automatic generation of k-mesh.
 generate k-points for:    2    2    2
Space group operators:
 irot       det(A)        alpha          n_x          n_y          n_z        tau_x        tau_y        tau_z
    1     1.000000     0.000000     1.000000     0.000000     0.000000     0.000000     0.000000     0.000000
 
 Subroutine IBZKPT returns following result:
 ===========================================
 
 Found      8 irreducible k-points:
 
 Following reciprocal coordinates:
            Coordinates               Weight
  0.000000  0.000000  0.000000      1.000000
  0.500000 -0.000000 -0.000000      1.000000
  0.000000  0.500000  0.000000      1.000000
  0.500000  0.500000 -0.000000      1.000000
  0.000000  0.000000  0.500000      1.000000
  0.500000 -0.000000  0.500000      1.000000
  0.000000  0.500000  0.500000      1.000000
  0.500000  0.500000  0.500000      1.000000
 
 Following cartesian coordinates:
            Coordinates               Weight
  0.000000  0.000000  0.000000      1.000000
  0.049905  0.028813 -0.000000      1.000000
  0.000000  0.057626  0.000000      1.000000
  0.049905  0.086438 -0.000000      1.000000
  0.000000  0.000000  0.044571      1.000000
  0.049905  0.028813  0.044571      1.000000
  0.000000  0.057626  0.044571      1.000000
  0.049905  0.086438  0.044571      1.000000
 


--------------------------------------------------------------------------------------------------------




 Dimension of arrays:
   k-points           NKPTS =      8   k-points in BZ     NKDIM =      8   number of bands    NBANDS=    480
   number of dos      NEDOS =    301   number of ions     NIONS =     88
   non local maximal  LDIM  =      6   non local SUM 2l+1 LMDIM =     18
   total plane-waves  NPLWV = 140000
   max r-space proj   IRMAX =   1632   max aug-charges    IRDMAX=   4555
   dimension x,y,z NGX =    50 NGY =   50 NGZ =   56
   dimension x,y,z NGXF=   100 NGYF=  100 NGZF=  112
   support grid    NGXF=   100 NGYF=  100 NGZF=  112
   ions per type =              16   8  16  48
   NGX,Y,Z   is equivalent  to a cutoff of   8.30,  8.30,  8.30 a.u.
   NGXF,Y,Z  is equivalent  to a cutoff of  16.59, 16.59, 16.60 a.u.

 SYSTEM =  unknown system                          
 POSCAR =  Na Mg Mn  O                             

 Startparameter for this run:
   NWRITE =      2    write-flag & timer
   PREC   = normal    normal or accurate (medium, high low for compatibility)
   ISTART =      0    job   : 0-new  1-cont  2-samecut
   ICHARG =      1    charge: 1-file 2-atom 10-const
   ISPIN  =      2    spin polarized calculation?
   LNONCOLLINEAR =      F non collinear calculations
   LSORBIT =      F    spin-orbit coupling
   INIWAV =      1    electr: 0-lowe 1-rand  2-diag
   LASPH  =      T    aspherical Exc in radial PAW
   METAGGA=      F    non-selfconsistent MetaGGA calc.

 Electronic Relaxation 1
   ENCUT  =  400.0 eV  29.40 Ry    5.42 a.u.  16.34 16.34 18.29*2*pi/ulx,y,z
   ENINI  =  400.0     initial cutoff
   ENAUG  =  758.8 eV  augmentation charge cutoff
   NELM   =    200;   NELMIN=  6; NELMDL=-12     # of ELM steps 
   EDIFF  = 0.1E-04   stopping-criterion for ELM
   LREAL  =      T    real-space projection
   NLSPLINE    = F    spline interpolate recip. space projectors
   LCOMPAT=      F    compatible to vasp.4.4
   GGA_COMPAT  = T    GGA compatible to vasp.4.4-vasp.4.6
   LMAXPAW     = -100 max onsite density
   LMAXMIX     =    4 max onsite mixed and CHGCAR
   VOSKOWN=      0    Vosko Wilk Nusair interpolation
   ROPT   =   -0.00050  -0.00050  -0.00050  -0.00050
 Ionic relaxation
   EDIFFG = 0.1E-03   stopping-criterion for IOM
   NSW    =      1    number of steps for IOM
   NBLOCK =      1;   KBLOCK =      1    inner block; outer block 
   IBRION =     -1    ionic relax: 0-MD 1-quasi-New 2-CG
   NFREE  =      0    steps in history (QN), initial steepest desc. (CG)
   ISIF   =      2    stress and relaxation
   IWAVPR =     10    prediction:  0-non 1-charg 2-wave 3-comb
   ISYM   =      2    0-nonsym 1-usesym 2-fastsym
   LCORR  =      T    Harris-Foulkes like correction to forces

   POTIM  = 0.5000    time-step for ionic-motion
   TEIN   =    0.0    initial temperature
   TEBEG  =    0.0;   TEEND  =   0.0 temperature during run
   SMASS  =  -3.00    Nose mass-parameter (am)
   estimated Nose-frequenzy (Omega)   =  0.10E-29 period in steps =****** mass=  -0.229E-26a.u.
   SCALEE = 1.0000    scale energy and forces
   NPACO  =    256;   APACO  = 16.0  distance and # of slots for P.C.
   PSTRESS=    0.0 pullay stress

  Mass of Ions in am
   POMASS =  22.99 24.30 54.94 16.00
  Ionic Valenz
   ZVAL   =   7.00  8.00 13.00  6.00
  Atomic Wigner-Seitz radii
   RWIGS  =  -1.00 -1.00 -1.00 -1.00
  virtual crystal weights 
   VCA    =   1.00  1.00  1.00  1.00
   NELECT =     672.0000    total number of electrons
   NUPDOWN=      48.0000    fix difference up-down

 DOS related values:
   EMIN   =  10.00;   EMAX   =-10.00  energy-range for DOS
   EFERMI =   0.00
   ISMEAR =     0;   SIGMA  =   0.05  broadening in eV -4-tet -1-fermi 0-gaus

 Electronic relaxation 2 (details)
   IALGO  =     48    algorithm
   LDIAG  =      T    sub-space diagonalisation (order eigenvalues)
   LSUBROT=      F    optimize rotation matrix (better conditioning)
   TURBO    =      0    0=normal 1=particle mesh
   IRESTART =      0    0=no restart 2=restart with 2 vectors
   NREBOOT  =      0    no. of reboots
   NMIN     =      0    reboot dimension
   EREF     =   0.00    reference energy to select bands
   IMIX   =      4    mixing-type and parameters
     AMIX     =   0.40;   BMIX     =  1.00
     AMIX_MAG =   1.60;   BMIX_MAG =  1.00
     AMIN     =   0.10
     WC   =   100.;   INIMIX=   1;  MIXPRE=   1;  MAXMIX= -45

 Intra band minimization:
   WEIMIN = 0.0000     energy-eigenvalue tresh-hold
   EBREAK =  0.52E-08  absolut break condition
   DEPER  =   0.30     relativ break condition  

   TIME   =   0.40     timestep for ELM

  volume/ion in A,a.u.               =      11.08        74.78
  Fermi-wavevector in a.u.,A,eV,Ry     =   1.445993  2.732531 28.448379  2.090897
  Thomas-Fermi vector in A             =   2.564112
 
 Write flags
   LWAVE        =      F    write WAVECAR
   LDOWNSAMPLE  =      F    k-point downsampling of WAVECAR
   LCHARG       =      F    write CHGCAR
   LVTOT        =      F    write LOCPOT, total local potential
   LVHAR        =      F    write LOCPOT, Hartree potential only
   LELF         =      F    write electronic localiz. function (ELF)
   LORBIT       =     11    0 simple, 1 ext, 2 COOP (PROOUT), +10 PAW based schemes


 Dipole corrections
   LMONO  =      F    monopole corrections only (constant potential shift)
   LDIPOL =      F    correct potential (dipole corrections)
   IDIPOL =      0    1-x, 2-y, 3-z, 4-all directions 
   EPSILON=  1.0000000 bulk dielectric constant

 Exchange correlation treatment:
   GGA     =    --    GGA type
   LEXCH   =     8    internal setting for exchange type
   VOSKOWN=      0    Vosko Wilk Nusair interpolation
   LHFCALC =     F    Hartree Fock is set to
   LHFONE  =     F    Hartree Fock one center treatment
   AEXX    =    0.0000 exact exchange contribution

 Linear response parameters
   LEPSILON=     F    determine dielectric tensor
   LRPA    =     F    only Hartree local field effects (RPA)
   LNABLA  =     F    use nabla operator in PAW spheres
   LVEL    =     F    velocity operator in full k-point grid
   LINTERFAST=   F  fast interpolation
   KINTER  =     0    interpolate to denser k-point grid
   CSHIFT  =0.1000    complex shift for real part using Kramers Kronig
   OMEGAMAX=  -1.0    maximum frequency
   DEG_THRESHOLD= 0.2000000E-02 threshold for treating states as degnerate
   RTIME   =   -0.100 relaxation time in fs
  (WPLASMAI=    0.000 imaginary part of plasma frequency in eV, 0.658/RTIME)
   DFIELD  = 0.0000000 0.0000000 0.0000000 field for delta impulse in time
 
 Orbital magnetization related:
   ORBITALMAG=     F  switch on orbital magnetization
   LCHIMAG   =     F  perturbation theory with respect to B field
   DQ        =  0.001000  dq finite difference perturbation B field
   LLRAUG    =     F  two centre corrections for induced B field



--------------------------------------------------------------------------------------------------------


 Static calculation
 charge density and potential will be updated during run
 spin polarized calculation
 RMM-DIIS sequential band-by-band
 perform sub-space diagonalisation
    before iterative eigenvector-optimisation
 modified Broyden-mixing scheme, WC =      100.0
 initial mixing is a Kerker type mixing with AMIX =  0.4000 and BMIX =      1.0000
 Hartree-type preconditioning will be used
 using additional bands          144
 real space projection scheme for non local part
 use partial core corrections
 calculate Harris-corrections to forces 
   (improved forces if not selfconsistent)
 use gradient corrections 
 use of overlap-Matrix (Vanderbilt PP)
 Gauss-broadening in eV      SIGMA  =   0.05


--------------------------------------------------------------------------------------------------------


  energy-cutoff  :      400.00
  volume of cell :      975.20
      direct lattice vectors                 reciprocal lattice vectors
    10.019000053  0.000000000  0.000000000     0.099810360  0.057625538 -0.000000000
    -5.009500027  8.676708567  0.000000000     0.000000000  0.115251076  0.000000000
     0.000000000  0.000000000 11.218000412     0.000000000  0.000000000  0.089142446

  length of vectors
    10.019000053 10.019000053 11.218000412     0.115251076  0.115251076  0.089142446


 
 k-points in units of 2pi/SCALE and weight: read from INCAR                         
   0.00000000  0.00000000  0.00000000       0.125
   0.04990518  0.02881277 -0.00000000       0.125
   0.00000000  0.05762554  0.00000000       0.125
   0.04990518  0.08643831 -0.00000000       0.125
   0.00000000  0.00000000  0.04457122       0.125
   0.04990518  0.02881277  0.04457122       0.125
   0.00000000  0.05762554  0.04457122       0.125
   0.04990518  0.08643831  0.04457122       0.125
 
 k-points in reciprocal lattice and weights: read from INCAR                         
   0.00000000  0.00000000  0.00000000       0.125
   0.50000000 -0.00000000 -0.00000000       0.125
   0.00000000  0.50000000  0.00000000       0.125
   0.50000000  0.50000000 -0.00000000       0.125
   0.00000000  0.00000000  0.50000000       0.125
   0.50000000 -0.00000000  0.50000000       0.125
   0.00000000  0.50000000  0.50000000       0.125
   0.50000000  0.50000000  0.50000000       0.125
 
 position of ions in fractional coordinates (direct lattice) 
   0.52119570  0.64836205  0.25115528
   0.56928280  0.52993400  0.74343731
   0.30443536  0.60833173  0.76057316
   0.31442445  0.14141504  0.75338739
   0.49554041  0.10369485  0.24107861
   0.01281270  0.43854088  0.24836958
   0.79876854  0.40354572  0.74045193
   0.81508443  0.92379698  0.73464073
   0.00619291  0.93350968  0.25137100
   0.27631514  0.78085667  0.24501247
   0.29790157  0.27377498  0.24306917
   0.02741169  0.78051256  0.75470224
   0.00275418  0.27579484  0.75454356
   0.52359086  0.99168711  0.74433586
   0.81929417  0.08573873  0.24391958
   0.70413737  0.46418853  0.24967819
   0.65699697  0.28503896  0.98700820
   0.65951872  0.27507896  0.50264038
   0.15543194  0.28780729  0.00301827
   0.16662191  0.28620300  0.50110000
   0.15646166  0.77681991  0.99515061
   0.16529782  0.78570692  0.51274111
   0.66387866  0.78050910  0.00657244
   0.66337439  0.77034396  0.49172756
   0.99220893  0.94440189  0.99485401
   0.31992691  0.10776679  0.00787603
   0.99841303  0.94668732  0.50429932
   0.32351197  0.10249255  0.49846049
   0.49469504  0.94458860  0.99704043
   0.82731373  0.11071491  0.99165623
   0.49366417  0.94403540  0.50374396
   0.83109223  0.11243699  0.50873416
   0.48643793  0.44880959  0.00697864
   0.81567579  0.60867666  0.00164536
   0.49919131  0.43811314  0.48857370
   0.83458094  0.61530821  0.50386966
   0.98908601  0.44652416  0.98452594
   0.33333039  0.62142574  0.01354056
   0.99640557  0.44717187  0.50856568
   0.32873271  0.60844616  0.50469422
   0.15017666  0.09300727  0.09512212
   0.32710460  0.94470127  0.08588812
   0.47161010  0.26327610  0.09825459
   0.16558442  0.95965671  0.59293544
   0.34734023  0.27503978  0.58475751
   0.47928424  0.10888887  0.58803884
   0.15160549  0.95885525  0.90643605
   0.33322338  0.27540973  0.91920125
   0.48316921  0.10326427  0.90229093
   0.15850070  0.09615501  0.40352200
   0.33173631  0.95816271  0.40367265
   0.48839419  0.28034363  0.39789355
   0.65684699  0.10310211  0.08713139
   0.83761795  0.96044203  0.08402407
   0.97061031  0.27345738  0.08684204
   0.66432433  0.95256323  0.58954446
   0.83040423  0.27467213  0.59577463
   0.99091012  0.10364080  0.59903902
   0.66471091  0.95183923  0.90482257
   0.82873414  0.26741938  0.89468708
   0.98783257  0.10676606  0.90894095
   0.66654465  0.10150531  0.40700480
   0.84761776  0.95653905  0.41081207
   0.98181228  0.27817691  0.41595559
   0.65473331  0.61209962  0.09162774
   0.84279250  0.45969620  0.08374309
   0.98573222  0.78705882  0.08342895
   0.66069253  0.44307585  0.58313066
   0.83587997  0.77925171  0.59579780
   0.98075552  0.59943698  0.59750310
   0.65689007  0.46343380  0.90509000
   0.83050034  0.77424751  0.90911032
   0.98354891  0.60455067  0.90467995
   0.66779946  0.59627565  0.39627116
   0.85553640  0.45988406  0.41328845
   0.98896417  0.78034775  0.42021214
   0.15740262  0.60233094  0.08934213
   0.33945909  0.46224786  0.10546799
   0.49920872  0.78910914  0.10306917
   0.16468530  0.46173730  0.60590210
   0.34340460  0.78547873  0.60207343
   0.49639136  0.59645774  0.58103581
   0.16845195  0.45442001  0.90522371
   0.32752860  0.76819683  0.91105363
   0.48146876  0.61006198  0.92122478
   0.15810712  0.59765751  0.41397841
   0.34439260  0.46222366  0.39811284
   0.47840970  0.78321404  0.40951416
 
 position of ions in cartesian coordinates  (Angst):
   1.97389003  5.62564857  2.81746000
   3.04894005  4.59808287  8.33988000
   0.00270005  5.27831713  8.53211000
   2.44179995  1.22701713  8.45150000
   4.44536000  0.89973000  2.70442000
  -2.06850013  3.80509143  2.78621000
   5.98129981  3.50144857  8.30639000
   3.53857000  8.01551713  8.24120000
  -4.61436997  8.09979143  2.81988000
  -1.14330011  6.77526573  2.74855000
   1.61320011  2.37546573  2.72675000
  -3.63534000  6.77228000  8.46625000
  -1.35400008  2.39299143  8.46447000
   0.27800032  8.60458000  8.34996000
   7.77900011  0.74393000  2.73629000
   4.72939987  4.02762857  2.80089000
   5.15455000  2.47320000 11.07225841
   5.22971000  2.38678000  5.63862000
   0.11550200  2.49722000  0.03385890
   0.23565100  2.48330000  5.62134000
  -2.32389000  6.74024000 11.16360000
  -2.27988000  6.81735000  5.75193000
   2.74144000  6.77225000  0.07372960
   2.78731000  6.68405000  5.51620000
   5.20996000  8.19430000 11.16027271
   2.66549000  0.93506100  0.08835330
   5.26067000  8.21413000  5.65723000
   2.72783000  0.88929800  5.59173000
   0.22443300  8.19592000 11.18480000
   7.73423000  0.96064100 11.12440000
   0.21687600  8.19112000  5.65100000
   7.76346000  0.97558300  5.70698000
   2.62531000  3.89419000  0.07828640
   5.12309000  5.28131000  0.01845760
   2.80667000  3.80138000  5.48082000
   5.27928000  5.33885000  5.65241000
   7.67279000  3.87436000 11.04441241
   0.22660500  5.39193000  0.15189800
   7.74288000  3.87998000  5.70509000
   0.24556200  5.27931000  5.66166000
   1.03870000  0.80699700  1.06708000
  -1.45522003  8.19689757  0.96349300
   3.40618000  2.28437000  1.10222000
  -3.14841003  8.32666157  6.65155000
   2.10219000  2.38644000  6.55981000
   4.25647000  0.94479700  6.59662000
  -3.28445003  8.31970757 10.16840000
   1.95890000  2.38965000 10.31160000
   4.32357000  0.89599400 10.12190000
   1.10633000  0.83430900  4.52671000
  -1.47625003  8.31369857  4.52840000
   3.48884000  2.43246000  4.46357000
   6.06446000  0.89458700  0.97744000
   3.58075997  8.33347557  0.94258200
   8.35466000  2.37271000  0.97419400
   1.88399997  8.26511357  6.61351000
   6.94385000  2.38325000  6.68340000
   9.40874000  0.89926100  6.72002000
   1.89149997  8.25883157 10.15030000
   6.96345000  2.32032000 10.03660000
   9.36225000  0.92637800 10.19650000
   6.16962000  0.88073200  4.56578000
   3.70049997  8.29961057  4.60849000
   8.44325000  2.41366000  4.66619000
   3.49346000  5.31101000  1.02788000
   6.14109000  3.98865000  0.93943000
   5.93328000  6.82908000  0.93590600
   4.39989000  3.84444000  6.54156000
   4.47102000  6.76134000  6.68366000
   6.82331000  5.20114000  6.70279000
   4.25981000  4.02108000 10.15330000
   4.44219000  6.71792000 10.19840000
   6.82568000  5.24551000 10.14870000
   3.70364000  5.17371000  4.44537000
   6.26783000  3.99028000  4.63627000
   5.99928000  6.77085000  4.71394000
  -1.44036000  5.22625000  1.00224000
   1.08541000  4.01079000  1.18314000
   1.04853000  6.84687000  1.15623000
  -0.66309100  4.00636000  6.79701000
  -0.49428500  6.81537000  6.75406000
   1.98539000  5.17529000  6.51806000
  -0.58869700  3.94287000 10.15480000
  -0.56677300  6.66542000 10.22020000
   1.76773000  5.29333000 10.33430000
  -1.40989000  5.18570000  4.64401000
   1.13496000  4.01058000  4.46603000
   0.86967600  6.79572000  4.59393000
 


--------------------------------------------------------------------------------------------------------


 k-point  1 :   0.0000 0.0000 0.0000  plane waves:   17725
 k-point  2 :   0.5000-0.0000-0.0000  plane waves:   17736
 k-point  3 :   0.0000 0.5000 0.0000  plane waves:   17736
 k-point  4 :   0.5000 0.5000-0.0000  plane waves:   17736
 k-point  5 :   0.0000 0.0000 0.5000  plane waves:   17676
 k-point  6 :   0.5000-0.0000 0.5000  plane waves:   17700
 k-point  7 :   0.0000 0.5000 0.5000  plane waves:   17700
 k-point  8 :   0.5000 0.5000 0.5000  plane waves:   17700

 maximum and minimum number of plane-waves per node :     17736    17676

 maximum number of plane-waves:     17736
 maximum index in each direction: 
   IXMAX=   16   IYMAX=   16   IZMAX=   18
   IXMIN=  -16   IYMIN=  -16   IZMIN=  -18


 serial   3D FFT for wavefunctions
 parallel 3D FFT for charge:
    minimum data exchange during FFTs selected (reduces bandwidth)


 total amount of memory used by VASP MPI-rank0    94414. kBytes
=======================================================================

   base      :      30000. kBytes
   nonlr-proj:      13655. kBytes
   fftplans  :       1275. kBytes
   grid      :      22786. kBytes
   one-center:       2737. kBytes
   wavefun   :      23961. kBytes
 
     INWAV:  cpu time    0.0000: real time    0.0001
 Broyden mixing: mesh for mixing (old mesh)
   NGX = 33   NGY = 33   NGZ = 37
  (NGX  =100   NGY  =100   NGZ  =112)
  gives a total of  40293 points

 initial charge density was supplied:
 charge density of overlapping atoms calculated
 number of electron     672.0000000 magnetization      48.0000000
 keeping initial charge density in first step


--------------------------------------------------------------------------------------------------------


 Maximum index for non-local projection operator         1549
 Maximum index for augmentation-charges          550 (set IRDMAX)


--------------------------------------------------------------------------------------------------------


 First call to EWALD:  gamma=   0.179
 Maximum number of real-space cells 3x 3x 2
 Maximum number of reciprocal cells 3x 3x 3

    FEWALD:  cpu time    0.0027: real time    0.0027


--------------------------------------- Iteration      1(   1)  ---------------------------------------


    POTLOK:  cpu time    0.2424: real time    0.2623
    SETDIJ:  cpu time    4.6132: real time    4.6168
    EDDIAG:  cpu time    4.4221: real time    4.8286
  RMM-DIIS:  cpu time    9.1046: real time    9.1155
    ORTHCH:  cpu time    1.1709: real time    1.2541
       DOS:  cpu time    0.0025: real time    0.0027
    --------------------------------------------
      LOOP:  cpu time   19.5558: real time   20.0800

 eigenvalue-minimisations  :  7680
 total energy-change (2. order) : 0.1509890E+04  (-0.3496606E+05)
 number of electron     672.0000000 magnetization      48.0000000
 augmentation part      672.0000000 magnetization      48.0000000

 Free energy of the ion-electron system (eV)
  ---------------------------------------------------
  alpha Z        PSCENC =      2652.81237852
  Ewald energy   TEWEN  =    -41719.09914458
  -Hartree energ DENC   =    -25887.51577557
  -exchange      EXHF   =         0.00000000
  -V(xc)+E(xc)   XCENC  =      3606.51626042
  PAW double counting   =     55594.23204139   -59034.67079123
  entropy T*S    EENTRO =        -0.05459199
  eigenvalues    EBANDS =     -7564.52888539
  atomic energy  EATOM  =     73862.19814772
  Solvation  Ediel_sol  =         0.00000000
  ---------------------------------------------------
  free energy    TOTEN  =      1509.88963929 eV

  energy without entropy =     1509.94423128  energy(sigma->0) =     1509.91693529


--------------------------------------------------------------------------------------------------------




--------------------------------------- Iteration      1(   2)  ---------------------------------------


    EDDIAG:  cpu time    4.4154: real time    4.8254
  RMM-DIIS:  cpu time    9.0882: real time    9.1283
    ORTHCH:  cpu time    1.2181: real time    1.2971
       DOS:  cpu time    0.0022: real time    0.0022
    --------------------------------------------
      LOOP:  cpu time   14.7240: real time   15.2530

 eigenvalue-minimisations  :  7680
 total energy-change (2. order) :-0.2218698E+04  (-0.7993129E+04)
 number of electron     672.0000000 magnetization      48.0000000
 augmentation part      672.0000000 magnetization      48.0000000

 Free energy of the ion-electron system (eV)
  ---------------------------------------------------
  alpha Z        PSCENC =      2652.81237852
  Ewald energy   TEWEN  =    -41719.09914458
  -Hartree energ DENC   =    -25887.51577557
  -exchange      EXHF   =         0.00000000
  -V(xc)+E(xc)   XCENC  =      3606.51626042
  PAW double counting   =     55594.23204139   -59034.67079123
  entropy T*S    EENTRO =        -0.03898818
  eigenvalues    EBANDS =     -9783.24224586
  atomic energy  EATOM  =     73862.19814772
  Solvation  Ediel_sol  =         0.00000000
  ---------------------------------------------------
  free energy    TOTEN  =      -708.80811737 eV

  energy without entropy =     -708.76912919  energy(sigma->0) =     -708.78862328


--------------------------------------------------------------------------------------------------------




--------------------------------------- Iteration      1(   3)  ---------------------------------------


    EDDIAG:  cpu time    4.4203: real time    4.8331
  RMM-DIIS:  cpu time    9.1179: real time    9.1219
    ORTHCH:  cpu time    1.1767: real time    1.2566
       DOS:  cpu time    0.0026: real time    0.0026
    --------------------------------------------
      LOOP:  cpu time   14.7174: real time   15.2142

 eigenvalue-minimisations  :  7680
 total energy-change (2. order) : 0.6495852E+02  (-0.1418255E+04)
 number of electron     672.0000000 magnetization      48.0000000
 augmentation part      672.0000000 magnetization      48.0000000

 Free energy of the ion-electron system (eV)
  ---------------------------------------------------
  alpha Z        PSCENC =      2652.81237852
  Ewald energy   TEWEN  =    -41719.09914458
  -Hartree energ DENC   =    -25887.51577557
  -exchange      EXHF   =         0.00000000
  -V(xc)+E(xc)   XCENC  =      3606.51626042
  PAW double counting   =     55594.23204139   -59034.67079123
  entropy T*S    EENTRO =        -0.04588982
  eigenvalues    EBANDS =     -9718.27682886
  atomic energy  EATOM  =     73862.19814772
  Solvation  Ediel_sol  =         0.00000000
  ---------------------------------------------------
  free energy    TOTEN  =      -643.84960201 eV

  energy without entropy =     -643.80371219  energy(sigma->0) =     -643.82665710


--------------------------------------------------------------------------------------------------------




--------------------------------------- Iteration      1(   4)  ---------------------------------------


    EDDIAG:  cpu time    4.4764: real time    4.8942
  RMM-DIIS:  cpu time    9.1058: real time    9.1328
    ORTHCH:  cpu time    1.2118: real time    1.2950
       DOS:  cpu time    0.0014: real time    0.0014
    --------------------------------------------
      LOOP:  cpu time   14.7955: real time   15.3234

 eigenvalue-minimisations  :  7680
 total energy-change (2. order) :-0.4675725E+03  (-0.4295256E+03)
 number of electron     672.0000000 magnetization      48.0000000
 augmentation part      672.0000000 magnetization      48.0000000

 Free energy of the ion-electron system (eV)
  ---------------------------------------------------
  alpha Z        PSCENC =      2652.81237852
  Ewald energy   TEWEN  =    -41719.09914458
  -Hartree energ DENC   =    -25887.51577557
  -exchange      EXHF   =         0.00000000
  -V(xc)+E(xc)   XCENC  =      3606.51626042
  PAW double counting   =     55594.23204139   -59034.67079123
  entropy T*S    EENTRO =        -0.00000000
  eigenvalues    EBANDS =    -10185.89519849
  atomic energy  EATOM  =     73862.19814772
  Solvation  Ediel_sol  =         0.00000000
  ---------------------------------------------------
  free energy    TOTEN  =     -1111.42208182 eV

  energy without entropy =    -1111.42208182  energy(sigma->0) =    -1111.42208182


--------------------------------------------------------------------------------------------------------




--------------------------------------- Iteration      1(   5)  ---------------------------------------


    EDDIAG:  cpu time    4.4381: real time    4.8417
  RMM-DIIS:  cpu time    9.0958: real time    9.1359
    ORTHCH:  cpu time    1.1695: real time    1.2508
       DOS:  cpu time    0.0015: real time    0.0015
    --------------------------------------------
      LOOP:  cpu time   14.7049: real time   15.2300

 eigenvalue-minimisations  :  7680
 total energy-change (2. order) :-0.1045300E+03  (-0.1600537E+03)
 number of electron     672.0000000 magnetization      48.0000000
 augmentation part      672.0000000 magnetization      48.0000000

 Free energy of the ion-electron system (eV)
  ---------------------------------------------------
  alpha Z        PSCENC =      2652.81237852
  Ewald energy   TEWEN  =    -41719.09914458
  -Hartree energ DENC   =    -25887.51577557
  -exchange      EXHF   =         0.00000000
  -V(xc)+E(xc)   XCENC  =      3606.51626042
  PAW double counting   =     55594.23204139   -59034.67079123
  entropy T*S    EENTRO =        -0.00000000
  eigenvalues    EBANDS =    -10290.42515672
  atomic energy  EATOM  =     73862.19814772
  Solvation  Ediel_sol  =         0.00000000
  ---------------------------------------------------
  free energy    TOTEN  =     -1215.95204005 eV

  energy without entropy =    -1215.95204005  energy(sigma->0) =    -1215.95204005


--------------------------------------------------------------------------------------------------------




--------------------------------------- Iteration      1(   6)  ---------------------------------------


    EDDIAG:  cpu time    4.4362: real time    4.8489
  RMM-DIIS:  cpu time    9.1061: real time    9.1297
    ORTHCH:  cpu time    1.1725: real time    1.2519
       DOS:  cpu time    0.0018: real time    0.0018
    --------------------------------------------
      LOOP:  cpu time   14.7166: real time   15.2324

 eigenvalue-minimisations  :  7680
 total energy-change (2. order) :-0.8848434E+01  (-0.7924602E+02)
 number of electron     672.0000000 magnetization      48.0000000
 augmentation part      672.0000000 magnetization      48.0000000

 Free energy of the ion-electron system (eV)
  ---------------------------------------------------
  alpha Z        PSCENC =      2652.81237852
  Ewald energy   TEWEN  =    -41719.09914458
  -Hartree energ DENC   =    -25887.51577557
  -exchange      EXHF   =         0.00000000
  -V(xc)+E(xc)   XCENC  =      3606.51626042
  PAW double counting   =     55594.23204139   -59034.67079123
  entropy T*S    EENTRO =        -0.00000000
  eigenvalues    EBANDS =    -10299.27359035
  atomic energy  EATOM  =     73862.19814772
  Solvation  Ediel_sol  =         0.00000000
  ---------------------------------------------------
  free energy    TOTEN  =     -1224.80047368 eV

  energy without entropy =    -1224.80047368  energy(sigma->0) =    -1224.80047368


--------------------------------------------------------------------------------------------------------




--------------------------------------- Iteration      1(   7)  ---------------------------------------


    EDDIAG:  cpu time    4.3927: real time    4.8250
  RMM-DIIS:  cpu time    9.0926: real time    9.1187
    ORTHCH:  cpu time    1.1756: real time    1.2575
       DOS:  cpu time    0.0012: real time    0.0012
    --------------------------------------------
      LOOP:  cpu time   14.6620: real time   15.2024

 eigenvalue-minimisations  :  7680
 total energy-change (2. order) :-0.1806025E+01  (-0.4825990E+02)
 number of electron     672.0000000 magnetization      48.0000000
 augmentation part      672.0000000 magnetization      48.0000000

 Free energy of the ion-electron system (eV)
  ---------------------------------------------------
  alpha Z        PSCENC =      2652.81237852
  Ewald energy   TEWEN  =    -41719.09914458
  -Hartree energ DENC   =    -25887.51577557
  -exchange      EXHF   =         0.00000000
  -V(xc)+E(xc)   XCENC  =      3606.51626042
  PAW double counting   =     55594.23204139   -59034.67079123
  entropy T*S    EENTRO =        -0.00000000
  eigenvalues    EBANDS =    -10301.07961499
  atomic energy  EATOM  =     73862.19814772
  Solvation  Ediel_sol  =         0.00000000
  ---------------------------------------------------
  free energy    TOTEN  =     -1226.60649832 eV

  energy without entropy =    -1226.60649832  energy(sigma->0) =    -1226.60649832


--------------------------------------------------------------------------------------------------------




--------------------------------------- Iteration      1(   8)  ---------------------------------------


    EDDIAG:  cpu time    4.4363: real time    4.8469
  RMM-DIIS:  cpu time    9.0369: real time    9.1286
    ORTHCH:  cpu time    1.1722: real time    1.2547
       DOS:  cpu time    0.0011: real time    0.0011
    --------------------------------------------
      LOOP:  cpu time   14.6465: real time   15.2313

 eigenvalue-minimisations  :  7680
 total energy-change (2. order) : 0.5034429E+01  (-0.2986676E+02)
 number of electron     672.0000000 magnetization      48.0000000
 augmentation part      672.0000000 magnetization      48.0000000

 Free energy of the ion-electron system (eV)
  ---------------------------------------------------
  alpha Z        PSCENC =      2652.81237852
  Ewald energy   TEWEN  =    -41719.09914458
  -Hartree energ DENC   =    -25887.51577557
  -exchange      EXHF   =         0.00000000
  -V(xc)+E(xc)   XCENC  =      3606.51626042
  PAW double counting   =     55594.23204139   -59034.67079123
  entropy T*S    EENTRO =        -0.00000000
  eigenvalues    EBANDS =    -10296.04518614
  atomic energy  EATOM  =     73862.19814772
  Solvation  Ediel_sol  =         0.00000000
  ---------------------------------------------------
  free energy    TOTEN  =     -1221.57206947 eV

  energy without entropy =    -1221.57206947  energy(sigma->0) =    -1221.57206947


--------------------------------------------------------------------------------------------------------




--------------------------------------- Iteration      1(   9)  ---------------------------------------


    EDDIAG:  cpu time    4.4010: real time    4.8252
  RMM-DIIS:  cpu time   19.3220: real time   19.3463
    ORTHCH:  cpu time    1.1670: real time    1.2496
       DOS:  cpu time    0.0016: real time    0.0016
    --------------------------------------------
      LOOP:  cpu time   24.8916: real time   25.4227

 eigenvalue-minimisations  : 21808
 total energy-change (2. order) : 0.9184801E+01  (-0.1317392E+02)
 number of electron     672.0000000 magnetization      48.0000000
 augmentation part      672.0000000 magnetization      48.0000000

 Free energy of the ion-electron system (eV)
  ---------------------------------------------------
  alpha Z        PSCENC =      2652.81237852
  Ewald energy   TEWEN  =    -41719.09914458
  -Hartree energ DENC   =    -25887.51577557
  -exchange      EXHF   =         0.00000000
  -V(xc)+E(xc)   XCENC  =      3606.51626042
  PAW double counting   =     55594.23204139   -59034.67079123
  entropy T*S    EENTRO =        -0.00000000
  eigenvalues    EBANDS =    -10286.86038486
  atomic energy  EATOM  =     73862.19814772
  Solvation  Ediel_sol  =         0.00000000
  ---------------------------------------------------
  free energy    TOTEN  =     -1212.38726819 eV

  energy without entropy =    -1212.38726819  energy(sigma->0) =    -1212.38726819


--------------------------------------------------------------------------------------------------------




--------------------------------------- Iteration      1(  10)  ---------------------------------------


    EDDIAG:  cpu time    4.4363: real time    4.8527
  RMM-DIIS:  cpu time   17.9294: real time   17.9380
    ORTHCH:  cpu time    1.1736: real time    1.2540
       DOS:  cpu time    0.0015: real time    0.0015
    --------------------------------------------
      LOOP:  cpu time   23.5409: real time   24.0462

 eigenvalue-minimisations  : 19695
 total energy-change (2. order) :-0.1894500E+01  (-0.5304691E+00)
 number of electron     672.0000000 magnetization      48.0000000
 augmentation part      672.0000000 magnetization      48.0000000

 Free energy of the ion-electron system (eV)
  ---------------------------------------------------
  alpha Z        PSCENC =      2652.81237852
  Ewald energy   TEWEN  =    -41719.09914458
  -Hartree energ DENC   =    -25887.51577557
  -exchange      EXHF   =         0.00000000
  -V(xc)+E(xc)   XCENC  =      3606.51626042
  PAW double counting   =     55594.23204139   -59034.67079123
  entropy T*S    EENTRO =        -0.00000000
  eigenvalues    EBANDS =    -10288.75488466
  atomic energy  EATOM  =     73862.19814772
  Solvation  Ediel_sol  =         0.00000000
  ---------------------------------------------------
  free energy    TOTEN  =     -1214.28176800 eV

  energy without entropy =    -1214.28176799  energy(sigma->0) =    -1214.28176800


--------------------------------------------------------------------------------------------------------




--------------------------------------- Iteration      1(  11)  ---------------------------------------


    EDDIAG:  cpu time    4.4198: real time    4.8424
  RMM-DIIS:  cpu time   20.0666: real time   20.0765
    ORTHCH:  cpu time    1.1671: real time    1.2515
       DOS:  cpu time    0.0017: real time    0.0017
    --------------------------------------------
      LOOP:  cpu time   25.6552: real time   26.1722

 eigenvalue-minimisations  : 22591
 total energy-change (2. order) : 0.7050661E-01  (-0.4330776E-01)
 number of electron     672.0000000 magnetization      48.0000000
 augmentation part      672.0000000 magnetization      48.0000000

 Free energy of the ion-electron system (eV)
  ---------------------------------------------------
  alpha Z        PSCENC =      2652.81237852
  Ewald energy   TEWEN  =    -41719.09914458
  -Hartree energ DENC   =    -25887.51577557
  -exchange      EXHF   =         0.00000000
  -V(xc)+E(xc)   XCENC  =      3606.51626042
  PAW double counting   =     55594.23204139   -59034.67079123
  entropy T*S    EENTRO =        -0.00000000
  eigenvalues    EBANDS =    -10288.68437805
  atomic energy  EATOM  =     73862.19814772
  Solvation  Ediel_sol  =         0.00000000
  ---------------------------------------------------
  free energy    TOTEN  =     -1214.21126139 eV

  energy without entropy =    -1214.21126138  energy(sigma->0) =    -1214.21126139


--------------------------------------------------------------------------------------------------------




--------------------------------------- Iteration      1(  12)  ---------------------------------------


    EDDIAG:  cpu time    4.4190: real time    4.8290
  RMM-DIIS:  cpu time   21.7370: real time   21.7914
    ORTHCH:  cpu time    1.1688: real time    1.2531
       DOS:  cpu time    0.0014: real time    0.0014
    CHARGE:  cpu time    1.7845: real time    1.7852
    MIXING:  cpu time    0.0011: real time    0.0012
    --------------------------------------------
      LOOP:  cpu time   29.1119: real time   29.6613

 eigenvalue-minimisations  : 24410
 total energy-change (2. order) :-0.8192287E-03  (-0.4333680E-02)
 number of electron     672.0000113 magnetization      48.0000019
 augmentation part      239.1242119 magnetization      29.0390605

 Broyden mixing:
  rms(total) = 0.12640E+02    rms(broyden)= 0.12631E+02
  rms(prec ) = 0.14479E+02
  weight for this iteration     100.00

 Free energy of the ion-electron system (eV)
  ---------------------------------------------------
  alpha Z        PSCENC =      2652.81237852
  Ewald energy   TEWEN  =    -41719.09914458
  -Hartree energ DENC   =    -25887.51577557
  -exchange      EXHF   =         0.00000000
  -V(xc)+E(xc)   XCENC  =      3606.51626042
  PAW double counting   =     55594.23204139   -59034.67079123
  entropy T*S    EENTRO =        -0.00000000
  eigenvalues    EBANDS =    -10288.68519728
  atomic energy  EATOM  =     73862.19814772
  Solvation  Ediel_sol  =         0.00000000
  ---------------------------------------------------
  free energy    TOTEN  =     -1214.21208061 eV

  energy without entropy =    -1214.21208061  energy(sigma->0) =    -1214.21208061


--------------------------------------------------------------------------------------------------------




--------------------------------------- Iteration      1(  13)  ---------------------------------------


    POTLOK:  cpu time    0.1701: real time    0.1714
    SETDIJ:  cpu time    4.9438: real time    4.9448
    EDDIAG:  cpu time    4.4778: real time    4.8971
  RMM-DIIS:  cpu time   17.2567: real time   17.2726
    ORTHCH:  cpu time    1.1696: real time    1.2522
       DOS:  cpu time    0.0017: real time    0.0017
    CHARGE:  cpu time    1.7840: real time    1.7847
    MIXING:  cpu time    0.0009: real time    0.0010
    --------------------------------------------
      LOOP:  cpu time   29.8046: real time   30.3254

 eigenvalue-minimisations  : 18811
 total energy-change (2. order) : 0.2280762E+03  (-0.1221058E+03)
 number of electron     672.0000114 magnetization      48.0000023
 augmentation part      269.0606856 magnetization      26.3710520

 Broyden mixing:
  rms(total) = 0.13994E+02    rms(broyden)= 0.13991E+02
  rms(prec ) = 0.15755E+02
  weight for this iteration     100.00

 eigenvalues of (default mixing * dielectric matrix)
  average eigenvalue GAMMA=   0.3197
  0.3197

 Free energy of the ion-electron system (eV)
  ---------------------------------------------------
  alpha Z        PSCENC =      2652.81237852
  Ewald energy   TEWEN  =    -41719.09914458
  -Hartree energ DENC   =    -25224.54184871
  -exchange      EXHF   =         0.00000000
  -V(xc)+E(xc)   XCENC  =      3696.87181080
  PAW double counting   =     59951.94443128   -63377.39187453
  entropy T*S    EENTRO =        -0.08403565
  eigenvalues    EBANDS =    -10828.84575268
  atomic energy  EATOM  =     73862.19814772
  Solvation  Ediel_sol  =         0.00000000
  ---------------------------------------------------
  free energy    TOTEN  =      -986.13588782 eV

  energy without entropy =     -986.05185217  energy(sigma->0) =     -986.09387000


--------------------------------------------------------------------------------------------------------




--------------------------------------- Iteration      1(  14)  ---------------------------------------


    POTLOK:  cpu time    0.1748: real time    0.1754
    SETDIJ:  cpu time    4.9374: real time    4.9383
    EDDIAG:  cpu time    4.4490: real time    4.8837
  RMM-DIIS:  cpu time   17.9726: real time   17.9805
    ORTHCH:  cpu time    1.1781: real time    1.2548
       DOS:  cpu time    0.0011: real time    0.0011
    CHARGE:  cpu time    1.7849: real time    1.7856
    MIXING:  cpu time    0.0009: real time    0.0009
    --------------------------------------------
      LOOP:  cpu time   30.4989: real time   31.0203

 eigenvalue-minimisations  : 19383
 total energy-change (2. order) : 0.6964030E+02  (-0.1777136E+02)
 number of electron     672.0000111 magnetization      48.0000038
 augmentation part      246.5963969 magnetization      32.1336634

 Broyden mixing:
  rms(total) = 0.53398E+01    rms(broyden)= 0.53355E+01
  rms(prec ) = 0.57905E+01
  weight for this iteration     100.00

 eigenvalues of (default mixing * dielectric matrix)
  average eigenvalue GAMMA=   0.7312
  1.1050  0.3574

 Free energy of the ion-electron system (eV)
  ---------------------------------------------------
  alpha Z        PSCENC =      2652.81237852
  Ewald energy   TEWEN  =    -41719.09914458
  -Hartree energ DENC   =    -25837.45945889
  -exchange      EXHF   =         0.00000000
  -V(xc)+E(xc)   XCENC  =      3674.27064885
  PAW double counting   =     63358.52880806   -66841.27669322
  entropy T*S    EENTRO =        -0.00000000
  eigenvalues    EBANDS =    -10066.47027337
  atomic energy  EATOM  =     73862.19814772
  Solvation  Ediel_sol  =         0.00000000
  ---------------------------------------------------
  free energy    TOTEN  =      -916.49558691 eV

  energy without entropy =     -916.49558691  energy(sigma->0) =     -916.49558691


--------------------------------------------------------------------------------------------------------




--------------------------------------- Iteration      1(  15)  ---------------------------------------


    POTLOK:  cpu time    0.1706: real time    0.1707
    SETDIJ:  cpu time    4.9408: real time    4.9427
    EDDIAG:  cpu time    4.4106: real time    4.8277
  RMM-DIIS:  cpu time   18.1546: real time   18.1646
    ORTHCH:  cpu time    1.1728: real time    1.2529
       DOS:  cpu time    0.0012: real time    0.0012
    CHARGE:  cpu time    1.7890: real time    1.7896
    MIXING:  cpu time    0.0009: real time    0.0009
    --------------------------------------------
      LOOP:  cpu time   30.6404: real time   31.1503

 eigenvalue-minimisations  : 20256
 total energy-change (2. order) : 0.1482238E+02  (-0.2259227E+01)
 number of electron     672.0000111 magnetization      48.0000048
 augmentation part      249.6289039 magnetization      33.7740741

 Broyden mixing:
  rms(total) = 0.23207E+01    rms(broyden)= 0.23203E+01
  rms(prec ) = 0.24146E+01
  weight for this iteration     100.00

 eigenvalues of (default mixing * dielectric matrix)
  average eigenvalue GAMMA=   0.8993
  1.6058  0.3859  0.7062

 Free energy of the ion-electron system (eV)
  ---------------------------------------------------
  alpha Z        PSCENC =      2652.81237852
  Ewald energy   TEWEN  =    -41719.09914458
  -Hartree energ DENC   =    -25764.82965591
  -exchange      EXHF   =         0.00000000
  -V(xc)+E(xc)   XCENC  =      3707.41444480
  PAW double counting   =     67454.70289167   -70977.74612517
  entropy T*S    EENTRO =        -0.00000000
  eigenvalues    EBANDS =    -10117.12614725
  atomic energy  EATOM  =     73862.19814772
  Solvation  Ediel_sol  =         0.00000000
  ---------------------------------------------------
  free energy    TOTEN  =      -901.67321019 eV

  energy without entropy =     -901.67321019  energy(sigma->0) =     -901.67321019


--------------------------------------------------------------------------------------------------------




--------------------------------------- Iteration      1(  16)  ---------------------------------------


    POTLOK:  cpu time    0.1739: real time    0.1747
    SETDIJ:  cpu time    4.9998: real time    5.0019
    EDDIAG:  cpu time    4.4589: real time    4.8649
  RMM-DIIS:  cpu time   17.7422: real time   17.7510
    ORTHCH:  cpu time    1.1693: real time    1.2516
       DOS:  cpu time    0.0015: real time    0.0015
    CHARGE:  cpu time    1.7854: real time    1.7863
    MIXING:  cpu time    0.0010: real time    0.0010
    --------------------------------------------
      LOOP:  cpu time   30.3321: real time   30.8328

 eigenvalue-minimisations  : 19289
 total energy-change (2. order) :-0.1201577E+01  (-0.6650910E+00)
 number of electron     672.0000111 magnetization      48.0000052
 augmentation part      251.0261964 magnetization      33.8818003

 Broyden mixing:
  rms(total) = 0.15522E+01    rms(broyden)= 0.15518E+01
  rms(prec ) = 0.16225E+01
  weight for this iteration     100.00

 eigenvalues of (default mixing * dielectric matrix)
  average eigenvalue GAMMA=   0.9631
  2.0810  0.8856  0.3911  0.4947

 Free energy of the ion-electron system (eV)
  ---------------------------------------------------
  alpha Z        PSCENC =      2652.81237852
  Ewald energy   TEWEN  =    -41719.09914458
  -Hartree energ DENC   =    -25717.61968629
  -exchange      EXHF   =         0.00000000
  -V(xc)+E(xc)   XCENC  =      3708.30375659
  PAW double counting   =     70233.79152617   -73784.48258837
  entropy T*S    EENTRO =        -0.00000000
  eigenvalues    EBANDS =    -10138.77917680
  atomic energy  EATOM  =     73862.19814772
  Solvation  Ediel_sol  =         0.00000000
  ---------------------------------------------------
  free energy    TOTEN  =      -902.87478705 eV

  energy without entropy =     -902.87478705  energy(sigma->0) =     -902.87478705


--------------------------------------------------------------------------------------------------------




--------------------------------------- Iteration      1(  17)  ---------------------------------------


    POTLOK:  cpu time    0.1704: real time    0.1714
    SETDIJ:  cpu time    4.9480: real time    5.0288
    EDDIAG:  cpu time    4.4460: real time    4.8640
  RMM-DIIS:  cpu time   18.5453: real time   18.5547
    ORTHCH:  cpu time    1.2100: real time    1.2893
       DOS:  cpu time    0.0015: real time    0.0015
    CHARGE:  cpu time    1.7837: real time    1.7845
    MIXING:  cpu time    0.0018: real time    0.0018
    --------------------------------------------
      LOOP:  cpu time   31.1068: real time   31.6960

 eigenvalue-minimisations  : 20401
 total energy-change (2. order) :-0.4915168E-02  (-0.8410449E-01)
 number of electron     672.0000110 magnetization      48.0000054
 augmentation part      251.1713713 magnetization      33.8825756

 Broyden mixing:
  rms(total) = 0.80709E+00    rms(broyden)= 0.80690E+00
  rms(prec ) = 0.91196E+00
  weight for this iteration     100.00

 eigenvalues of (default mixing * dielectric matrix)
  average eigenvalue GAMMA=   0.9862
  2.2220  1.1075  0.3787  0.6735  0.5491

 Free energy of the ion-electron system (eV)
  ---------------------------------------------------
  alpha Z        PSCENC =      2652.81237852
  Ewald energy   TEWEN  =    -41719.09914458
  -Hartree energ DENC   =    -25703.31456806
  -exchange      EXHF   =         0.00000000
  -V(xc)+E(xc)   XCENC  =      3706.09464363
  PAW double counting   =     71289.30676799   -74850.16276546
  entropy T*S    EENTRO =        -0.00000000
  eigenvalues    EBANDS =    -10140.71516198
  atomic energy  EATOM  =     73862.19814772
  Solvation  Ediel_sol  =         0.00000000
  ---------------------------------------------------
  free energy    TOTEN  =      -902.87970222 eV

  energy without entropy =     -902.87970222  energy(sigma->0) =     -902.87970222


--------------------------------------------------------------------------------------------------------




--------------------------------------- Iteration      1(  18)  ---------------------------------------


    POTLOK:  cpu time    0.1702: real time    0.1708
    SETDIJ:  cpu time    4.9891: real time    5.0018
    EDDIAG:  cpu time    4.4433: real time    4.8474
  RMM-DIIS:  cpu time   17.9425: real time   17.9767
    ORTHCH:  cpu time    1.1686: real time    1.2542
       DOS:  cpu time    0.0015: real time    0.0015
    CHARGE:  cpu time    1.7838: real time    1.7868
    MIXING:  cpu time    0.0014: real time    0.0014
    --------------------------------------------
      LOOP:  cpu time   30.5003: real time   31.0406

 eigenvalue-minimisations  : 19241
 total energy-change (2. order) : 0.4273882E+00  (-0.7110707E-01)
 number of electron     672.0000111 magnetization      48.0000055
 augmentation part      250.6493478 magnetization      33.8510784

 Broyden mixing:
  rms(total) = 0.29146E+00    rms(broyden)= 0.29122E+00
  rms(prec ) = 0.30620E+00
  weight for this iteration     100.00

 eigenvalues of (default mixing * dielectric matrix)
  average eigenvalue GAMMA=   1.0175
  2.4458  1.3822  0.8377  0.3807  0.5834  0.4750

 Free energy of the ion-electron system (eV)
  ---------------------------------------------------
[...]
   4      -0.955    -0.806     1.761     0.145    -0.056     0.037
   5      -0.675    -0.891     1.567    -0.198    -0.006     0.054
   6      -0.824    -0.891     1.715     0.138    -0.006    -0.034
   7      -0.584    -0.672     1.256    -0.144    -0.053    -0.077
   8      -0.596    -0.794     1.390    -0.192    -0.089    -0.129
   9      -0.995    -0.889     1.884     0.123     0.012     0.020
  10      -0.693    -0.512     1.205    -0.061    -0.091    -0.032
  11      -0.862    -0.517     1.379     0.011    -0.053    -0.029
  12      -0.836    -0.476     1.313    -0.027    -0.050     0.037
  13      -0.969    -0.528     1.497    -0.046    -0.108    -0.063
  14      -0.762    -1.236     1.998     0.071     0.095     0.007
  15      -0.750    -1.044     1.793    -0.011    -0.005     0.049
  16      -0.618    -0.923     1.541     0.165    -0.032    -0.048
  17       1.258     1.592    -2.850     0.008    -0.206    -0.042
  18       1.500     1.533    -3.034    -0.060     0.151    -0.063
  19       1.582     1.379    -2.961     0.081     0.151     0.108
  20       1.470     1.358    -2.828     0.007    -0.150    -0.058
  21       1.626     1.406    -3.032    -0.048     0.083     0.152
  22       1.448     1.551    -2.999    -0.035     0.019    -0.068
  23       1.413     1.799    -3.212    -0.004    -0.043    -0.209
  24       1.461     1.464    -2.924     0.071     0.004     0.092
  25      -0.683    -0.742     1.426     0.030     0.583     0.617
  26      -0.099    -1.394     1.494    -0.531    -0.136    -0.175
  27      -0.868     0.146     0.722     0.339     0.168     0.443
  28       0.472     0.670    -1.142    -0.894     0.582    -1.028
  29      -1.310    -0.095     1.405    -1.082    -1.352     0.347
  30      -0.725    -0.401     1.126     0.290    -0.626    -0.461
  31       0.028    -0.386     0.358     0.542     0.259    -0.329
  32      -0.397    -1.154     1.551    -0.030     0.091     0.280
  33       1.625    -2.912     1.288     0.359     1.577    -1.152
  34      -1.282    -0.549     1.831     1.096    -0.773     0.453
  35       0.383    -0.924     0.542     1.157    -0.381    -0.579
  36       0.295    -1.622     1.327     0.293    -0.857     0.355
  37      -0.366    -1.785     2.151     1.710     0.016     0.384
  38      -2.422     1.415     1.007    -0.437    -0.260     1.093
  39      -0.033     0.258    -0.225     0.040    -0.515     0.333
  40      -1.304     1.711    -0.407    -0.165     1.510     0.346
  41      -4.785     4.098     0.687    -3.873     2.563    -4.086
  42      -4.306     1.115     3.192     3.534     3.002     3.411
  43       4.476    -6.020     1.545    -0.688    -5.406    -0.827
  44      -3.139     2.163     0.976    -4.889    -0.653     3.888
  45       5.678    -6.321     0.643    -0.446     3.906     1.340
  46      -4.615     2.007     2.608     3.608    -2.785    -4.238
  47      -3.052     3.318    -0.266    -4.554     2.237    -2.446
  48       7.271    -6.401    -0.870    -0.156    -4.716    -0.491
  49      -0.702     0.465     0.236     4.655     1.254     4.133
  50      -2.741     2.898    -0.157    -3.593    -1.275     4.880
  51      -3.116     4.723    -1.608     5.022    -1.338    -4.078
  52       5.209    -5.521     0.311     1.389     4.652    -2.012
  53      -1.122     1.012     0.110    -5.095     0.205    -5.825
  54      -1.763     0.880     0.883     5.012     0.908     4.124
  55       5.903    -4.154    -1.749     0.444    -3.064    -0.108
  56      -4.132     1.418     2.714    -5.008    -3.296     4.233
  57       3.396    -5.653     2.257     0.924     4.424    -0.559
  58      -4.499     3.531     0.968     3.654    -2.090    -3.642
  59      -4.182     2.367     1.815    -4.234     3.451    -3.657
  60       4.663    -6.384     1.721    -0.608    -4.424    -0.998
  61      -5.086     2.486     2.600     3.377     4.169     3.952
  62      -1.683     1.734    -0.051    -5.382    -2.861     4.197
  63      -2.576     2.838    -0.262     4.485    -2.637    -3.124
  64       5.891    -5.569    -0.322     0.503     4.086     0.633
  65      -4.931     2.495     2.435    -3.631     2.558    -4.530
  66      -2.698     3.582    -0.884     6.037     3.136     3.223
  67       4.231    -6.688     2.457    -1.172    -6.057     1.940
  68      -1.971     0.859     1.111    -4.312    -3.374     2.461
  69       3.615    -5.366     1.751     0.219     4.890    -0.638
  70      -4.010     3.201     0.810     5.049    -2.810    -3.170
  71      -2.248     2.463    -0.215    -4.295     0.438    -4.386
  72       5.402    -6.146     0.745    -2.196    -4.624     2.048
  73      -3.173     0.062     3.112     5.372     2.650     5.367
  74      -1.011     0.650     0.361    -5.343    -2.033     2.554
  75      -2.665     2.664     0.001     6.041    -3.739    -4.123
  76       5.175    -7.211     2.036     0.534     6.021     1.200
  77      -4.240     3.715     0.525    -4.616     0.305    -3.497
  78      -3.161     1.470     1.691     4.867     5.658     2.871
  79       3.427    -5.576     2.150    -2.355    -5.776     0.031
  80      -3.737     4.442    -0.705    -5.229     0.085     3.821
  81       5.405    -5.810     0.406    -0.133     5.584     1.625
  82      -4.548     2.269     2.278     3.698    -2.194    -3.825
  83      -4.757     2.626     2.131    -2.067     1.533    -4.541
  84       3.140    -4.340     1.200     0.017    -4.700     2.355
  85       0.157     0.084    -0.241     6.957     2.277     4.592
  86      -3.352     4.247    -0.895    -5.698    -3.087     4.994
  87      -3.091     3.818    -0.727     5.614    -0.872    -5.403
  88       7.589    -6.943    -0.646    -0.257     4.357    -1.198
 ---------------------------------------------------------------------


 Total hyperfine coupling parameters after diagonalization (MHz)
 (convention: |A_zz| > |A_xx| > |A_yy|)
 ----------------------------------------------------------------------
  ion      A_xx      A_yy      A_zz     asymmetry (A_yy - A_xx)/ A_zz 
 ----------------------------------------------------------------------
   1       2.142     1.819     4.127      -0.078
   2       1.605     1.022     3.819      -0.153
   3       0.761     0.374     3.408      -0.114
   4       0.505     0.177     2.985      -0.110
   5       1.954     1.502     4.080      -0.111
   6       0.775     0.491     3.206      -0.089
   7       1.674     1.368     3.412      -0.090
   8       1.788     1.345     3.667      -0.121
   9       0.878     0.611     3.571      -0.075
  10       1.588     1.365     3.291      -0.068
  11       1.851     1.506     3.750      -0.092
  12       2.263     1.899     4.053      -0.090
  13       1.623     1.169     3.651      -0.124
  14      -0.739    -0.247     2.510       0.196
  15       0.470     0.175     3.014      -0.098
  16       1.430     0.982     3.520      -0.127
  17      13.316     9.187    13.640      -0.303
  18      14.847    10.352    14.976      -0.300
  19      14.173     9.854    14.439      -0.299
  20      12.768     8.575    12.885      -0.325
  21      15.992    11.551    16.226      -0.274
  22      15.851    11.413    15.976      -0.278
  23      15.904    11.270    16.299      -0.284
  24      14.543    10.225    14.685      -0.294
  25      94.641    94.392    97.104      -0.003
  26      97.607    95.921    99.031      -0.017
  27      97.779    96.850    98.837      -0.009
  28      92.413    91.080    94.614      -0.014
  29      97.704    95.437    99.895      -0.023
  30      93.823    93.365    95.794      -0.005
  31      99.385    98.092    99.494      -0.013
  32      96.769    95.984    98.752      -0.008
  33     104.251   100.682   107.097      -0.033
  34      99.434    96.931   101.226      -0.025
  35      92.689    90.878    94.007      -0.019
  36      99.019    97.341   100.909      -0.017
  37      98.555    94.869   100.021      -0.037
  38      95.449    92.870    97.722      -0.026
  39      96.528    95.603    96.884      -0.010
  40     101.221    98.074   102.301      -0.031
  41       4.707     0.327    15.191      -0.288
  42       5.453     0.440    14.150      -0.354
  43       5.370     1.322    16.264      -0.249
  44       7.228     1.741    15.393      -0.356
  45       5.801     0.221    14.728      -0.379
  46       6.938     2.461    16.921      -0.265
  47       6.982     2.898    15.582      -0.262
  48       6.081     2.558    18.465      -0.191
  49       3.824    -0.338    12.189      -0.341
  50       4.328     2.234    14.928      -0.140
  51       6.062     3.571    18.165      -0.137
  52       6.229     0.488    15.387      -0.373
  53       6.852     0.237    15.808      -0.418
  54       5.185    -0.027    13.325      -0.391
  55       3.958     2.608    13.779      -0.098
  56       5.455     0.099    16.183      -0.331
  57       5.282     0.760    13.965      -0.324
  58       7.159     2.751    16.306      -0.270
  59       6.650     1.600    16.376      -0.308
  60       6.166     0.726    15.228      -0.357
  61       6.149     0.309    16.108      -0.363
  62       2.598    -0.023    14.245      -0.184
  63       3.871     0.795    13.537      -0.227
  64       4.572     1.240    14.841      -0.225
  65       6.529     2.006    16.921      -0.267
  66       6.917     2.891    18.659      -0.216
  67       4.811     0.395    17.227      -0.256
  68       5.302     1.248    13.502      -0.300
  69       5.144     1.819    14.980      -0.222
  70       6.632     1.189    16.099      -0.338
  71       6.960     2.868    15.768      -0.260
  72       5.450     0.686    16.313      -0.292
  73       5.585     0.463    17.307      -0.296
  74       5.513     1.196    13.651      -0.316
  75       3.447    -0.379    16.121      -0.237
  76       7.308     2.473    19.750      -0.245
  77       5.702    -0.022    13.994      -0.409
  78       7.531     1.067    17.827      -0.363
  79       5.585     1.450    16.750      -0.247
  80       8.902     3.483    18.647      -0.291
  81       5.298     1.402    16.945      -0.230
  82       5.115     0.259    14.010      -0.347
  83       2.385    -0.795    11.987      -0.265
  84       6.890     2.785    15.583      -0.263
  85       5.720     0.579    17.445      -0.295
  86       3.345     0.806    17.602      -0.144
  87       3.413    -1.060    15.544      -0.288
  88       5.547     0.670    17.354      -0.281
 ---------------------------------------------------------------------



--------------------------------------------------------------------------------------------------------


 stress matrix after NEB project (eV)
    -45.06910     -3.64987      0.31036
     -3.65657    -41.02560     -0.55996
      0.27028     -0.53959    -53.38253
  FORCES: max atom, RMS     2.693721    1.121547
  FORCE total and by dimension   10.521045    2.180695
  Stress total and by dimension   81.187952   53.382525
     LOOP+:  cpu time  737.2616: real time  752.2695
    4ORBIT:  cpu time    0.0000: real time    0.0000
 


 total charge     
 
# of ion       s       p       d       tot
------------------------------------------
    1        0.050   5.993   0.000   6.043
    2        0.051   5.993   0.000   6.044
    3        0.056   6.001   0.000   6.057
    4        0.050   5.994   0.000   6.043
    5        0.049   5.990   0.000   6.039
    6        0.046   5.989   0.000   6.036
    7        0.051   5.994   0.000   6.045
    8        0.050   5.993   0.000   6.043
    9        0.050   5.993   0.000   6.043
   10        0.045   5.986   0.000   6.031
   11        0.049   5.991   0.000   6.040
   12        0.047   5.989   0.000   6.035
   13        0.051   5.993   0.000   6.044
   14        0.053   5.997   0.000   6.050
   15        0.049   5.992   0.000   6.040
   16        0.047   5.989   0.000   6.036
   17        0.144   6.120   0.077   6.341
   18        0.155   6.139   0.093   6.387
   19        0.149   6.128   0.084   6.361
   20        0.139   6.113   0.072   6.324
   21        0.154   6.138   0.092   6.385
   22        0.149   6.129   0.085   6.363
   23        0.161   6.151   0.103   6.415
   24        0.147   6.124   0.081   6.352
   25        0.401   6.509   4.887  11.796
   26        0.380   6.462   4.839  11.682
   27        0.385   6.478   4.855  11.718
   28        0.398   6.502   4.889  11.789
   29        0.359   6.420   4.794  11.572
   30        0.393   6.491   4.865  11.749
   31        0.367   6.433   4.816  11.615
   32        0.376   6.456   4.825  11.657
   33        0.364   6.428   4.817  11.609
   34        0.375   6.453   4.831  11.659
   35        0.384   6.474   4.846  11.704
   36        0.375   6.453   4.827  11.655
   37        0.364   6.427   4.808  11.599
   38        0.378   6.462   4.844  11.685
   39        0.387   6.478   4.857  11.722
   40        0.356   6.413   4.789  11.559
   41        1.599   3.504   0.000   5.103
   42        1.598   3.532   0.000   5.130
   43        1.596   3.498   0.000   5.094
   44        1.600   3.548   0.000   5.148
   45        1.600   3.512   0.000   5.112
   46        1.601   3.534   0.000   5.135
   47        1.599   3.526   0.000   5.125
   48        1.602   3.502   0.000   5.104
   49        1.596   3.485   0.000   5.081
   50        1.598   3.493   0.000   5.092
   51        1.600   3.503   0.000   5.103
   52        1.597   3.501   0.000   5.097
   53        1.599   3.486   0.000   5.085
   54        1.600   3.543   0.000   5.143
   55        1.598   3.512   0.000   5.110
   56        1.599   3.513   0.000   5.112
   57        1.597   3.529   0.000   5.126
   58        1.597   3.500   0.000   5.098
   59        1.598   3.501   0.000   5.100
   60        1.597   3.505   0.000   5.102
   61        1.600   3.521   0.000   5.121
   62        1.598   3.473   0.000   5.070
   63        1.598   3.502   0.000   5.101
   64        1.599   3.506   0.000   5.105
   65        1.601   3.531   0.000   5.133
   66        1.599   3.511   0.000   5.110
   67        1.602   3.510   0.000   5.113
   68        1.598   3.541   0.000   5.139
   69        1.597   3.510   0.000   5.107
   70        1.599   3.519   0.000   5.119
   71        1.598   3.515   0.000   5.113
   72        1.599   3.511   0.000   5.110
   73        1.600   3.508   0.000   5.108
   74        1.596   3.499   0.000   5.096
   75        1.602   3.504   0.000   5.105
   76        1.605   3.517   0.000   5.122
   77        1.597   3.508   0.000   5.105
   78        1.600   3.497   0.000   5.096
   79        1.601   3.481   0.000   5.082
   80        1.597   3.497   0.000   5.094
   81        1.598   3.483   0.000   5.081
   82        1.598   3.530   0.000   5.128
   83        1.598   3.501   0.000   5.099
   84        1.601   3.506   0.000   5.107
   85        1.603   3.518   0.000   5.122
   86        1.600   3.486   0.000   5.086
   87        1.599   3.469   0.000   5.068
   88        1.601   3.483   0.000   5.085
--------------------------------------------------
tot         84.792 416.625  78.076 579.492
 


 magnetization (x)
 
# of ion       s       p       d       tot
------------------------------------------
    1        0.002   0.000   0.000   0.002
    2        0.002   0.001   0.000   0.002
    3        0.001   0.001   0.000   0.002
    4        0.001   0.000   0.000   0.001
    5        0.002   0.000   0.000   0.002
    6        0.001   0.001   0.000   0.002
    7        0.002  -0.000   0.000   0.002
    8        0.002  -0.000   0.000   0.001
    9        0.001   0.001   0.000   0.002
   10        0.002   0.000   0.000   0.002
   11        0.002  -0.000   0.000   0.002
   12        0.002   0.000   0.000   0.002
   13        0.002  -0.000   0.000   0.001
   14        0.000   0.000   0.000   0.001
   15        0.001   0.000   0.000   0.001
   16        0.001  -0.000   0.000   0.001
   17        0.007   0.002   0.001   0.010
   18        0.007   0.003   0.001   0.011
   19        0.007   0.002   0.001   0.011
   20        0.007   0.001   0.001   0.009
   21        0.008   0.003   0.001   0.012
   22        0.008   0.002   0.001   0.012
   23        0.008   0.003   0.001   0.012
   24        0.007   0.003   0.001   0.011
   25        0.015   0.032   2.703   2.749
   26        0.016   0.030   2.742   2.788
   27        0.016   0.031   2.734   2.780
   28        0.014   0.030   2.693   2.737
   29        0.015   0.028   2.800   2.843
   30        0.015   0.030   2.719   2.764
   31        0.016   0.030   2.779   2.824
   32        0.016   0.031   2.759   2.805
   33        0.017   0.030   2.786   2.833
   34        0.016   0.032   2.757   2.805
   35        0.014   0.030   2.737   2.781
   36        0.016   0.031   2.760   2.807
   37        0.015   0.030   2.777   2.822
   38        0.015   0.030   2.739   2.784
   39        0.015   0.031   2.725   2.771
   40        0.016   0.030   2.798   2.845
   41        0.002   0.029   0.000   0.031
   42        0.002   0.034   0.000   0.035
   43        0.002   0.037   0.000   0.039
   44        0.002   0.047   0.000   0.049
   45        0.002   0.041   0.000   0.042
   46        0.002   0.051   0.000   0.053
   47        0.002   0.047   0.000   0.049
   48        0.002   0.038   0.000   0.041
   49        0.002   0.005   0.000   0.007
   50        0.002   0.034   0.000   0.036
   51        0.002   0.041   0.000   0.043
   52        0.002   0.038   0.000   0.040
   53        0.002   0.029   0.000   0.031
   54        0.002   0.036   0.000   0.038
   55        0.002   0.025   0.000   0.027
   56        0.002   0.039   0.000   0.041
   57        0.002   0.031   0.000   0.033
   58        0.002   0.040   0.000   0.042
   59        0.002   0.040   0.000   0.042
   60        0.002   0.030   0.000   0.032
   61        0.002   0.043   0.000   0.045
   62        0.002   0.011   0.000   0.013
   63        0.002   0.024   0.000   0.026
   64        0.002   0.030   0.000   0.032
   65        0.002   0.038   0.000   0.040
   66        0.002   0.048   0.000   0.051
   67        0.002   0.036   0.000   0.038
   68        0.002   0.027   0.000   0.029
   69        0.002   0.033   0.000   0.035
   70        0.002   0.040   0.000   0.042
   71        0.002   0.038   0.000   0.040
   72        0.002   0.035   0.000   0.037
   73        0.002   0.036   0.000   0.038
   74        0.002   0.024   0.000   0.026
   75        0.002   0.034   0.000   0.035
   76        0.003   0.050   0.000   0.052
   77        0.002   0.026   0.000   0.028
   78        0.002   0.043   0.000   0.046
   79        0.002   0.024   0.000   0.026
   80        0.003   0.053   0.000   0.056
   81        0.002   0.028   0.000   0.030
   82        0.002   0.034   0.000   0.036
   83        0.001   0.005   0.000   0.007
   84        0.002   0.038   0.000   0.040
   85        0.002   0.034   0.000   0.036
   86        0.002   0.027   0.000   0.029
   87        0.002   0.012   0.000   0.014
   88        0.002   0.028   0.000   0.030
--------------------------------------------------
tot          0.424   2.123  44.017  46.565
 

 total amount of memory used by VASP MPI-rank0    94414. kBytes
=======================================================================

   base      :      30000. kBytes
   nonlr-proj:      13655. kBytes
   fftplans  :       1275. kBytes
   grid      :      22786. kBytes
   one-center:       2737. kBytes
   wavefun   :      23961. kBytes
 
  
  
 General timing and accounting informations for this job:
 ========================================================
  
                  Total CPU time used (sec):      758.110
                            User time (sec):      750.321
                          System time (sec):        7.789
                         Elapsed time (sec):      775.617
  
                   Maximum memory used (kb):      195288.
                   Average memory used (kb):           0.
  
                          Minor page faults:       276395
                          Major page faults:            0
                 Voluntary context switches:       254488
