 vasp.5.4.4.18Apr17-6-g9f103f2a35 (build Dec 02 2020 12:53:39) complex          
  
 executed on             LinuxIFC date 2021.08.02  22:07:35
 running on   96 total cores
 distrk:  each k-point on   96 cores,    1 groups
 distr:  one band on NCORES_PER_BAND=   1 cores,   96 groups


--------------------------------------------------------------------------------------------------------


 INCAR:
 POTCAR:    PAW_PBE Na_pv 19Sep2006               
 POTCAR:    PAW_PBE Mg_pv 13Apr2007               
 POTCAR:    PAW_PBE Mn_pv 02Aug2007               
 POTCAR:    PAW_PBE O 08Apr2002                   

 ----------------------------------------------------------------------------- 
|                                                                             |
|           W    W    AA    RRRRR   N    N  II  N    N   GGGG   !!!           |
|           W    W   A  A   R    R  NN   N  II  NN   N  G    G  !!!           |
|           W    W  A    A  R    R  N N  N  II  N N  N  G       !!!           |
|           W WW W  AAAAAA  RRRRR   N  N N  II  N  N N  G  GGG   !            |
|           WW  WW  A    A  R   R   N   NN  II  N   NN  G    G                |
|           W    W  A    A  R    R  N    N  II  N    N   GGGG   !!!           |
|                                                                             |
|      For optimal performance we recommend to set                            |
|        NCORE= 4 - approx SQRT( number of cores)                             |
|      NCORE specifies how many cores store one orbital (NPAR=cpu/NCORE).     |
|      This setting can  greatly improve the performance of VASP for DFT.     |
|      The default,   NCORE=1            might be grossly inefficient         |
|      on modern multi-core architectures or massively parallel machines.     |
|      Do your own testing !!!!                                               |
|      Unfortunately you need to use the default for GW and RPA calculations. |
|      (for HF NCORE is supported but not extensively tested yet)             |
|                                                                             |
 ----------------------------------------------------------------------------- 

 POTCAR:    PAW_PBE Na_pv 19Sep2006               
   VRHFIN =Na: p6s1                                                             
   LEXCH  = PE                                                                  
   EATOM  =   766.0439 eV,   56.3026 Ry                                         
                                                                                
   TITEL  = PAW_PBE Na_pv 19Sep2006                                             
   LULTRA =        F    use ultrasoft PP ?                                      
   IUNSCR =        1    unscreen: 0-lin 1-nonlin 2-no                           
   RPACOR =    1.800    partial core radius                                     
   POMASS =   22.990; ZVAL   =    7.000    mass and valenz                      
   RCORE  =    2.200    outmost cutoff radius                                   
   RWIGS  =    2.200; RWIGS  =    1.164    wigner-seitz radius (au A)           
   ENMAX  =  259.561; ENMIN  =  194.671 eV                                      
   ICORE  =        2    local potential                                         
   LCOR   =        T    correct aug charges                                     
   LPAW   =        T    paw PP                                                  
   EAUG   =  368.056                                                            
   DEXC   =    0.000                                                            
   RMAX   =    2.245    core radius for proj-oper                               
   RAUG   =    1.300    factor for augmentation sphere                          
   RDEP   =    2.259    radius for radial grids                                 
   RDEPT  =    1.738    core radius for aug-charge                              
                                                                                
   Atomic configuration                                                         
    5 entries                                                                   
     n  l   j            E        occ.                                          
     1  0  0.50     -1033.6933   2.0000                                         
     2  0  0.50       -56.7526   2.0000                                         
     2  1  1.50       -28.6721   6.0000                                         
     3  0  0.50        -2.7440   1.0000                                         
     3  2  1.50        -1.3606   0.0000                                         
   Description                                                                  
     l       E           TYP  RCUT    TYP  RCUT                                 
     1    -28.6720912     23  2.000                                             
     1      6.8029130     23  2.000                                             
     0     -2.7439560     23  2.200                                             
     0     34.0145650     23  2.200                                             
     2     -1.3605826     23  2.200                                             
  local pseudopotential read in
  partial core-charges read in
  partial kinetic energy density read in
  atomic valenz-charges read in
  non local Contribution for L=           1  read in
    real space projection operators read in
  non local Contribution for L=           1  read in
    real space projection operators read in
  non local Contribution for L=           0  read in
    real space projection operators read in
  non local Contribution for L=           0  read in
    real space projection operators read in
    PAW grid and wavefunctions read in
 
   number of l-projection  operators is LMAX  =           4
   number of lm-projection operators is LMMAX =           8
 
 POTCAR:    PAW_PBE Mg_pv 13Apr2007               
   VRHFIN =Mg: p6s2                                                             
   LEXCH  = PE                                                                  
   EATOM  =  1056.7344 eV,   77.6678 Ry                                         
                                                                                
   TITEL  = PAW_PBE Mg_pv 13Apr2007                                             
   LULTRA =        F    use ultrasoft PP ?                                      
   IUNSCR =        1    unscreen: 0-lin 1-nonlin 2-no                           
   RPACOR =    1.500    partial core radius                                     
   POMASS =   24.305; ZVAL   =    8.000    mass and valenz                      
   RCORE  =    2.000    outmost cutoff radius                                   
   RWIGS  =    2.000; RWIGS  =    1.058    wigner-seitz radius (au A)           
   ENMAX  =  403.929; ENMIN  =  302.947 eV                                      
   RCLOC  =    1.506    cutoff for local pot                                    
   LCOR   =        T    correct aug charges                                     
   LPAW   =        T    paw PP                                                  
   EAUG   =  758.780                                                            
   DEXC   =    0.000                                                            
   RMAX   =    2.045    core radius for proj-oper                               
   RAUG   =    1.300    factor for augmentation sphere                          
   RDEP   =    2.025    radius for radial grids                                 
   RDEPT  =    1.557    core radius for aug-charge                              
                                                                                
   Atomic configuration                                                         
    5 entries                                                                   
     n  l   j            E        occ.                                          
     1  0  0.50     -1259.6230   2.0000                                         
     2  0  0.50       -79.8442   2.0000                                         
     2  1  1.50       -46.6121   6.0000                                         
     3  0  0.50        -4.7055   2.0000                                         
     3  2  1.50        -1.3606   0.0000                                         
   Description                                                                  
     l       E           TYP  RCUT    TYP  RCUT                                 
     1    -46.6121073     23  1.600                                             
     1      2.7211652     23  1.600                                             
     0     -4.7054661     23  2.000                                             
     0     61.2262170     23  2.000                                             
     2     -1.3605826     23  2.000                                             
  local pseudopotential read in
  partial core-charges read in
  partial kinetic energy density read in
  atomic valenz-charges read in
  non local Contribution for L=           1  read in
    real space projection operators read in
  non local Contribution for L=           1  read in
    real space projection operators read in
  non local Contribution for L=           0  read in
    real space projection operators read in
  non local Contribution for L=           0  read in
    real space projection operators read in
  non local Contribution for L=           2  read in
    real space projection operators read in
    PAW grid and wavefunctions read in
 
   number of l-projection  operators is LMAX  =           5
   number of lm-projection operators is LMMAX =          13
 
 POTCAR:    PAW_PBE Mn_pv 02Aug2007               
   VRHFIN =Mn: 3p4s3d                                                           
   LEXCH  = PE                                                                  
   EATOM  =  2025.2664 eV,  148.8529 Ry                                         
                                                                                
   TITEL  = PAW_PBE Mn_pv 02Aug2007                                             
   LULTRA =        F    use ultrasoft PP ?                                      
   IUNSCR =        1    unscreen: 0-lin 1-nonlin 2-no                           
   RPACOR =    2.080    partial core radius                                     
   POMASS =   54.938; ZVAL   =   13.000    mass and valenz                      
   RCORE  =    2.300    outmost cutoff radius                                   
   RWIGS  =    2.500; RWIGS  =    1.323    wigner-seitz radius (au A)           
   ENMAX  =  269.864; ENMIN  =  202.398 eV                                      
   ICORE  =        3    local potential                                         
   LCOR   =        T    correct aug charges                                     
   LPAW   =        T    paw PP                                                  
   EAUG   =  569.085                                                            
   DEXC   =    0.000                                                            
   RMAX   =    2.343    core radius for proj-oper                               
   RAUG   =    1.300    factor for augmentation sphere                          
   RDEP   =    2.338    radius for radial grids                                 
   RDEPT  =    1.798    core radius for aug-charge                              
                                                                                
   Atomic configuration                                                         
    8 entries                                                                   
     n  l   j            E        occ.                                          
     1  0  0.50     -6424.8287   2.0000                                         
     2  0  0.50      -739.1154   2.0000                                         
     2  1  1.50      -625.3949   6.0000                                         
     3  0  0.50       -81.6100   2.0000                                         
     3  1  1.50       -50.4667   6.0000                                         
     3  2  2.50        -3.3745   6.0000                                         
     4  0  0.50        -4.1331   1.0000                                         
     4  3  2.50        -1.3606   0.0000                                         
   Description                                                                  
     l       E           TYP  RCUT    TYP  RCUT                                 
     1    -50.4666628     23  2.000                                             
     1     -1.3605826     23  2.000                                             
     2     -3.3744729     23  2.300                                             
     2     -4.7350555     23  2.300                                             
     0     -4.1331431     23  2.300                                             
     0      7.6656591     23  2.300                                             
     3      9.5240782     23  2.300                                             
  local pseudopotential read in
  partial core-charges read in
  partial kinetic energy density read in
  atomic valenz-charges read in
  non local Contribution for L=           1  read in
    real space projection operators read in
  non local Contribution for L=           1  read in
    real space projection operators read in
  non local Contribution for L=           2  read in
    real space projection operators read in
  non local Contribution for L=           2  read in
    real space projection operators read in
  non local Contribution for L=           0  read in
    real space projection operators read in
  non local Contribution for L=           0  read in
    real space projection operators read in
    PAW grid and wavefunctions read in
 
   number of l-projection  operators is LMAX  =           6
   number of lm-projection operators is LMMAX =          18
 
 POTCAR:    PAW_PBE O 08Apr2002                   
   VRHFIN =O: s2p4                                                              
   LEXCH  = PE                                                                  
   EATOM  =   432.3788 eV,   31.7789 Ry                                         
                                                                                
   TITEL  = PAW_PBE O 08Apr2002                                                 
   LULTRA =        F    use ultrasoft PP ?                                      
   IUNSCR =        1    unscreen: 0-lin 1-nonlin 2-no                           
   RPACOR =    1.200    partial core radius                                     
   POMASS =   16.000; ZVAL   =    6.000    mass and valenz                      
   RCORE  =    1.520    outmost cutoff radius                                   
   RWIGS  =    1.550; RWIGS  =    0.820    wigner-seitz radius (au A)           
   ENMAX  =  400.000; ENMIN  =  300.000 eV                                      
   ICORE  =        2    local potential                                         
   LCOR   =        T    correct aug charges                                     
   LPAW   =        T    paw PP                                                  
   EAUG   =  605.392                                                            
   DEXC   =    0.000                                                            
   RMAX   =    1.553    core radius for proj-oper                               
   RAUG   =    1.300    factor for augmentation sphere                          
   RDEP   =    1.550    radius for radial grids                                 
   RDEPT  =    1.329    core radius for aug-charge                              
                                                                                
   Atomic configuration                                                         
    4 entries                                                                   
     n  l   j            E        occ.                                          
     1  0  0.50      -514.6923   2.0000                                         
     2  0  0.50       -23.9615   2.0000                                         
     2  1  0.50        -9.0305   4.0000                                         
     3  2  1.50        -9.5241   0.0000                                         
   Description                                                                  
     l       E           TYP  RCUT    TYP  RCUT                                 
     0    -23.9615318     23  1.200                                             
     0     -9.5240782     23  1.200                                             
     1     -9.0304911     23  1.520                                             
     1      8.1634956     23  1.520                                             
     2     -9.5240782      7  1.500                                             
  local pseudopotential read in
  partial core-charges read in
  partial kinetic energy density read in
  kinetic energy density of atom read in
  atomic valenz-charges read in
  non local Contribution for L=           0  read in
    real space projection operators read in
  non local Contribution for L=           0  read in
    real space projection operators read in
  non local Contribution for L=           1  read in
    real space projection operators read in
  non local Contribution for L=           1  read in
    real space projection operators read in
    PAW grid and wavefunctions read in
 
   number of l-projection  operators is LMAX  =           4
   number of lm-projection operators is LMMAX =           8
 
 Optimization of the real space projectors (new method)

 maximal supplied QI-value         = 17.01
 optimisation between [QCUT,QGAM] = [ 10.20, 20.41] = [ 29.16,116.64] Ry 
 Optimized for a Real-space Cutoff    1.30 Angstroem

   l    n(q)    QCUT    max X(q) W(low)/X(q) W(high)/X(q)  e(spline) 
   1      7    10.205     4.940    0.23E-03    0.84E-03    0.11E-06
   1      7    10.205     6.253    0.40E-03    0.13E-02    0.18E-06
   0      8    10.205    37.438    0.23E-03    0.37E-03    0.42E-07
   0      8    10.205     9.606    0.16E-03    0.26E-03    0.31E-07
 Optimization of the real space projectors (new method)

 maximal supplied QI-value         = 18.90
 optimisation between [QCUT,QGAM] = [ 10.20, 20.41] = [ 29.16,116.64] Ry 
 Optimized for a Real-space Cutoff    1.26 Angstroem

   l    n(q)    QCUT    max X(q) W(low)/X(q) W(high)/X(q)  e(spline) 
   1      7    10.205     2.974    0.63E-04    0.14E-03    0.13E-06
   1      7    10.205     4.279    0.11E-03    0.45E-03    0.24E-06
   0      8    10.205    16.381    0.44E-03    0.15E-03    0.55E-07
   0      8    10.205     5.611    0.31E-03    0.11E-03    0.40E-07
   2      7    10.205     4.652    0.50E-03    0.47E-03    0.57E-07
 Optimization of the real space projectors (new method)

 maximal supplied QI-value         = 16.25
 optimisation between [QCUT,QGAM] = [ 10.24, 20.48] = [ 29.35,117.42] Ry 
 Optimized for a Real-space Cutoff    1.34 Angstroem

   l    n(q)    QCUT    max X(q) W(low)/X(q) W(high)/X(q)  e(spline) 
   1      8    10.239     3.658    0.23E-03    0.30E-03    0.98E-07
   1      8    10.239     5.612    0.32E-03    0.65E-03    0.21E-06
   2      7    10.239    55.373    0.42E-03    0.45E-03    0.65E-07
   2      7    10.239    50.863    0.43E-03    0.48E-03    0.67E-07
   0      8    10.239    79.536    0.11E-03    0.21E-03    0.56E-07
   0      8    10.239    38.668    0.96E-04    0.19E-03    0.52E-07
 Optimization of the real space projectors (new method)

 maximal supplied QI-value         = 24.76
 optimisation between [QCUT,QGAM] = [ 10.15, 20.30] = [ 28.85,115.39] Ry 
 Optimized for a Real-space Cutoff    1.38 Angstroem

   l    n(q)    QCUT    max X(q) W(low)/X(q) W(high)/X(q)  e(spline) 
   0      8    10.150    20.381    0.22E-03    0.32E-03    0.29E-06
   0      8    10.150    15.268    0.23E-03    0.35E-03    0.30E-06
   1      8    10.150     5.964    0.46E-03    0.53E-03    0.21E-06
   1      8    10.150     5.382    0.38E-03    0.45E-03    0.19E-06
  PAW_PBE Na_pv 19Sep2006               :
 energy of atom  1       EATOM= -766.0439
 kinetic energy error for atom=    0.0103 (will be added to EATOM!!)
  PAW_PBE Mg_pv 13Apr2007               :
 energy of atom  2       EATOM=-1056.7344
 kinetic energy error for atom=    0.0820 (will be added to EATOM!!)
  PAW_PBE Mn_pv 02Aug2007               :
 energy of atom  3       EATOM=-2025.2664
 kinetic energy error for atom=    0.0284 (will be added to EATOM!!)
  PAW_PBE O 08Apr2002                   :
 energy of atom  4       EATOM= -432.3788
 kinetic energy error for atom=    0.1156 (will be added to EATOM!!)
 
 
 POSCAR: Na Mg Mn  O                             
  positions in cartesian coordinates
  No initial velocities read in

 METAGGA = SCAN     LMAXTAU =  6    LMIXTAU =  F

 exchange correlation table for  LEXCH =        8
   RHO(1)=    0.500       N(1)  =     2000
   RHO(2)=  100.500       N(2)  =     4000

 VTST: version 3.2, (02/03/18)

 CHAIN: initializing optimizer
 
 OPT: Using VASP Dynamics algorithm
 CHAIN: Read ICHAIN            0
 
 POSCAR: Na Mg Mn  O                             
  positions in cartesian coordinates
  No initial velocities read in
 


--------------------------------------------------------------------------------------------------------


 ion  position               nearest neighbor table
   1  0.344  0.250  0.241-  41 2.23  52 2.30  43 2.31  78 2.35
   2  0.043  0.267  0.742-  80 2.25  58 2.32
   3  0.484  0.425  0.754-  48 2.30  85 2.33  82 2.36  33 2.88  35 2.90
   4  0.532  0.740  0.758-  82 2.33  85 2.35  84 2.36
   5  0.032  0.451  0.252-  86 2.22  77 2.29  37 2.90  39 2.93
   6  0.955  0.102  0.254-  54 2.30  64 2.31  63 2.31  55 2.38
   7  0.179  0.621  0.737-  81 2.20  70 2.33
   8  0.834  0.453  0.745-  70 2.23  68 2.38
   9  0.177  0.898  0.251-  67 2.26  51 2.34  76 2.36
  10  0.852  0.761  0.247-  76 2.22  65 2.28  67 2.36
  11  0.706  0.394  0.242-  75 2.19  66 2.21  43 2.36
  12  0.659  0.098  0.745-  49 2.30  56 2.32
  13  0.923  0.917  0.764-  72 2.18  61 2.22  58 2.33  25 2.85
  14  0.338  0.083  0.751-  46 2.29  47 2.30  26 2.84  28 2.88
  15  0.453  0.595  0.252-  87 2.19  78 2.27  79 2.29  88 2.30
  16  0.519  0.934  0.256-  62 2.27  42 2.33  88 2.38  31 2.76  29 2.89
  17  0.678  0.252  0.996-  49 1.98  43 2.02  71 2.08  60 2.09  66 2.11  53 2.12  26 2.81  33 2.82
                            29 2.84
  18  0.665  0.253  0.501-  62 2.01  46 2.05  68 2.08  52 2.09  75 2.13  57 2.15
  19  0.199  0.258  0.999-  61 1.97  78 2.03  48 2.04  41 2.07  83 2.15  55 2.16  26 2.80  38 2.82
                            25 2.85
  20  0.180  0.267  0.488-  87 1.94  50 1.99  45 2.00  64 2.05  80 2.13  58 2.25  40 2.80  35 2.82

  21  0.191  0.760  0.001-  47 2.01  67 2.04  77 2.04  73 2.07  42 2.08  84 2.13  34 2.84
  22  0.161  0.760  0.494-  76 1.99  51 2.01  44 2.03  81 2.04  86 2.08  70 2.10  36 2.84  28 2.85

  23  0.694  0.762  0.002-  85 2.00  65 2.03  79 2.07  54 2.07  72 2.11  59 2.18  34 2.86
  24  0.669  0.754  0.502-  69 1.95  63 2.04  74 2.07  82 2.07  56 2.15  88 2.17
  25  0.028  0.929  0.002-  61 1.86  72 1.90  54 1.92  47 1.94  41 1.96  67 1.98  26 2.83  34 2.84
                            19 2.85  13 2.85  30 2.95
  26  0.354  0.091  0.004-  41 1.86  47 1.88  48 1.89  42 1.94  43 1.94  49 1.95  19 2.80  17 2.81
                            25 2.83  14 2.84  29 2.94  33 2.96
  27  1.000  0.928  0.502-  58 1.90  69 1.90  63 1.92  44 1.93  50 1.96  76 1.99  32 2.86  28 2.88
                            36 2.97
  28  0.331  0.088  0.495-  51 1.88  46 1.90  50 1.93  44 1.93  45 1.95  52 2.04  22 2.85  31 2.87
                            27 2.88  14 2.88  35 2.92
  29  0.527  0.925  0.999-  53 1.89  79 1.93  49 1.93  59 1.95  42 2.01  84 2.04  17 2.84  30 2.88
                            16 2.89  26 2.94  38 2.98
  30  0.858  0.099  0.992-  55 1.82  54 1.86  53 1.92  60 1.93  59 1.94  61 2.03  37 2.85  29 2.88
                            25 2.95
  31  0.495  0.922  0.501-  56 1.87  51 1.89  62 1.91  88 1.92  81 1.92  46 1.97  16 2.76  28 2.87
                            40 2.89  32 2.91
  32  0.831  0.088  0.509-  57 1.87  64 1.90  63 1.94  62 1.95  58 1.96  56 2.03  27 2.86  31 2.91
                            39 2.93
  33  0.533  0.432  0.007-  71 1.82  85 1.88  78 1.89  48 1.91  65 1.96  43 1.97  17 2.82  34 2.86
                             3 2.88  26 2.96  38 2.97
  34  0.863  0.602  0.004-  72 1.83  73 1.89  67 1.90  71 1.94  66 1.95  65 1.99  25 2.84  21 2.84
                            23 2.86  33 2.86  37 2.86
  35  0.505  0.425  0.496-  68 1.88  74 1.93  52 1.93  45 1.94  87 1.98  82 1.99  20 2.82  36 2.85
                             3 2.90  28 2.92  40 2.92
  36  0.833  0.587  0.492-  74 1.88  75 1.88  69 1.90  68 1.95  76 1.98  70 2.01  22 2.84  35 2.85
                            39 2.93  27 2.97
  37  0.018  0.428  0.994-  77 1.89  55 1.91  73 1.92  66 1.93  83 1.94  60 1.95  38 2.82  30 2.85
                            34 2.86   5 2.90
  38  0.343  0.582  0.997-  83 1.84  84 1.90  77 1.90  79 1.98  85 2.00  78 2.01  37 2.82  19 2.82
                            33 2.97  29 2.98
  39  0.008  0.425  0.512-  70 1.83  86 1.85  64 1.93  57 1.93  80 1.93  75 2.07  40 2.82  36 2.93
                            32 2.93   5 2.93
  40  0.333  0.589  0.500-  88 1.87  80 1.88  82 1.90  86 1.91  87 1.91  81 2.00  20 2.80  39 2.82
                            31 2.89  35 2.92
  41  0.198  0.084  0.099-  26 1.86  25 1.96  19 2.07   1 2.23
  42  0.367  0.937  0.099-  26 1.94  29 2.01  21 2.08  16 2.33
  43  0.513  0.255  0.099-  26 1.94  33 1.97  17 2.02   1 2.31  11 2.36
  44  0.167  0.934  0.592-  27 1.93  28 1.93  22 2.03
  45  0.342  0.259  0.587-  35 1.94  28 1.95  20 2.00
  46  0.482  0.083  0.593-  28 1.90  31 1.97  18 2.05  14 2.29
  47  0.197  0.936  0.911-  26 1.88  25 1.94  21 2.01  14 2.30
  48  0.382  0.264  0.915-  26 1.89  33 1.91  19 2.04   3 2.30
  49  0.509  0.079  0.907-  29 1.93  26 1.95  17 1.98  12 2.30
  50  0.166  0.085  0.404-  28 1.93  27 1.96  20 1.99
  51  0.343  0.933  0.410-  28 1.88  31 1.89  22 2.01   9 2.34
  52  0.499  0.264  0.397-  35 1.93  28 2.04  18 2.09   1 2.30
  53  0.691  0.075  0.091-  29 1.89  30 1.92  17 2.12
  54  0.873  0.953  0.084-  30 1.86  25 1.92  23 2.07   6 2.30
  55  0.003  0.257  0.081-  30 1.82  37 1.91  19 2.16   6 2.38
  56  0.646  0.926  0.601-  31 1.87  32 2.03  24 2.15  12 2.32
  57  0.850  0.254  0.600-  32 1.87  39 1.93  18 2.15
  58  0.993  0.080  0.599-  27 1.90  32 1.96  20 2.25   2 2.32  13 2.33
  59  0.692  0.943  0.896-  30 1.94  29 1.95  23 2.18
  60  0.860  0.261  0.898-  30 1.93  37 1.95  17 2.09
  61  0.032  0.086  0.910-  25 1.86  19 1.97  30 2.03  13 2.22
  62  0.664  0.078  0.412-  31 1.91  32 1.95  18 2.01  16 2.27
  63  0.841  0.934  0.411-  27 1.92  32 1.94  24 2.04   6 2.31
  64  0.985  0.254  0.418-  32 1.90  39 1.93  20 2.05   6 2.31
  65  0.696  0.595  0.104-  33 1.96  34 1.99  23 2.03  10 2.28
  66  0.862  0.432  0.090-  37 1.93  34 1.95  17 2.11  11 2.21
  67  0.019  0.760  0.099-  34 1.90  25 1.98  21 2.04   9 2.26  10 2.36
  68  0.665  0.435  0.590-  35 1.88  36 1.95  18 2.08   8 2.38
  69  0.841  0.752  0.581-  27 1.90  36 1.90  24 1.95
  70  0.993  0.575  0.594-  39 1.83  36 2.01  22 2.10   8 2.23   7 2.33
  71  0.689  0.444  0.916-  33 1.82  34 1.94  17 2.08
  72  0.878  0.760  0.913-  34 1.83  25 1.90  23 2.11  13 2.18
  73  0.010  0.588  0.906-  34 1.89  37 1.92  21 2.07
  74  0.672  0.582  0.402-  36 1.88  35 1.93  24 2.07
  75  0.846  0.435  0.402-  36 1.88  39 2.07  18 2.13  11 2.19
  76  0.993  0.763  0.400-  36 1.98  27 1.99  22 1.99  10 2.22   9 2.36
  77  0.180  0.576  0.089-  37 1.89  38 1.90  21 2.04   5 2.29
  78  0.371  0.430  0.095-  33 1.89  38 2.01  19 2.03  15 2.27   1 2.35
  79  0.508  0.753  0.090-  29 1.93  38 1.98  23 2.07  15 2.29
  80  0.181  0.439  0.599-  40 1.88  39 1.93  20 2.13   2 2.25
  81  0.332  0.761  0.592-  31 1.92  40 2.00  22 2.04   7 2.20
  82  0.486  0.580  0.595-  40 1.90  35 1.99  24 2.07   4 2.33   3 2.36
  83  0.188  0.438  0.903-  38 1.84  37 1.94  19 2.15
  84  0.364  0.747  0.901-  38 1.90  29 2.04  21 2.13   4 2.36
  85  0.522  0.583  0.917-  33 1.88  23 2.00  38 2.00   3 2.33   4 2.35
  86  0.160  0.572  0.415-  39 1.85  40 1.91  22 2.08   5 2.22
  87  0.344  0.439  0.403-  40 1.91  20 1.94  35 1.98  15 2.19
  88  0.479  0.754  0.409-  40 1.87  31 1.92  24 2.17  15 2.30  16 2.38
 
  LATTYP: Found a hexagonal cell.
 ALAT       =    10.0190000534
 C/A-ratio  =     1.1196726572
  
  Lattice vectors:
  
 A1 = (  10.0190000534,   0.0000000000,   0.0000000000)
 A2 = (  -5.0095000267,   8.6767085668,   0.0000000000)
 A3 = (   0.0000000000,   0.0000000000,  11.2180004120)


Analysis of symmetry for initial positions (statically):
=====================================================================
 Subroutine PRICEL returns:
 Original cell was already a primitive cell.
 

 Routine SETGRP: Setting up the symmetry group for a 
 hexagonal supercell.


 Subroutine GETGRP returns: Found  1 space group operations
 (whereof  1 operations were pure point group operations)
 out of a pool of 24 trial point group operations.


The static configuration has the point symmetry C_1 .


Analysis of symmetry for dynamics (positions and initial velocities):
=====================================================================
 Subroutine PRICEL returns:
 Original cell was already a primitive cell.
 

 Routine SETGRP: Setting up the symmetry group for a 
 hexagonal supercell.


 Subroutine GETGRP returns: Found  1 space group operations
 (whereof  1 operations were pure point group operations)
 out of a pool of 24 trial point group operations.


The dynamic configuration has the point symmetry C_1 .


Analysis of structural, dynamic, and magnetic symmetry:
=====================================================================
 Subroutine PRICEL returns:
 Original cell was already a primitive cell.
 

 Routine SETGRP: Setting up the symmetry group for a 
 hexagonal supercell.


 Subroutine GETGRP returns: Found  1 space group operations
 (whereof  1 operations were pure point group operations)
 out of a pool of 24 trial point group operations.


The magnetic configuration has the point symmetry C_1 .


 Subroutine INISYM returns: Found  1 space group operations
 (whereof  1 operations are pure point group operations),
 and found     1 'primitive' translations

 
 

Automatic generation of k-mesh.
 generate k-points for:    2    2    2
Space group operators:
 irot       det(A)        alpha          n_x          n_y          n_z        tau_x        tau_y        tau_z
    1     1.000000     0.000000     1.000000     0.000000     0.000000     0.000000     0.000000     0.000000
 
 Subroutine IBZKPT returns following result:
 ===========================================
 
 Found      8 irreducible k-points:
 
 Following reciprocal coordinates:
            Coordinates               Weight
  0.000000  0.000000  0.000000      1.000000
  0.500000 -0.000000 -0.000000      1.000000
  0.000000  0.500000  0.000000      1.000000
  0.500000  0.500000 -0.000000      1.000000
  0.000000  0.000000  0.500000      1.000000
  0.500000 -0.000000  0.500000      1.000000
  0.000000  0.500000  0.500000      1.000000
  0.500000  0.500000  0.500000      1.000000
 
 Following cartesian coordinates:
            Coordinates               Weight
  0.000000  0.000000  0.000000      1.000000
  0.049905  0.028813 -0.000000      1.000000
  0.000000  0.057626  0.000000      1.000000
  0.049905  0.086438 -0.000000      1.000000
  0.000000  0.000000  0.044571      1.000000
  0.049905  0.028813  0.044571      1.000000
  0.000000  0.057626  0.044571      1.000000
  0.049905  0.086438  0.044571      1.000000
 


--------------------------------------------------------------------------------------------------------




 Dimension of arrays:
   k-points           NKPTS =      8   k-points in BZ     NKDIM =      8   number of bands    NBANDS=    480
   number of dos      NEDOS =    301   number of ions     NIONS =     88
   non local maximal  LDIM  =      6   non local SUM 2l+1 LMDIM =     18
   total plane-waves  NPLWV = 140000
   max r-space proj   IRMAX =   1632   max aug-charges    IRDMAX=   4555
   dimension x,y,z NGX =    50 NGY =   50 NGZ =   56
   dimension x,y,z NGXF=   100 NGYF=  100 NGZF=  112
   support grid    NGXF=   100 NGYF=  100 NGZF=  112
   ions per type =              16   8  16  48
   NGX,Y,Z   is equivalent  to a cutoff of   8.30,  8.30,  8.30 a.u.
   NGXF,Y,Z  is equivalent  to a cutoff of  16.59, 16.59, 16.60 a.u.

 SYSTEM =  unknown system                          
 POSCAR =  Na Mg Mn  O                             

 Startparameter for this run:
   NWRITE =      2    write-flag & timer
   PREC   = normal    normal or accurate (medium, high low for compatibility)
   ISTART =      0    job   : 0-new  1-cont  2-samecut
   ICHARG =      1    charge: 1-file 2-atom 10-const
   ISPIN  =      2    spin polarized calculation?
   LNONCOLLINEAR =      F non collinear calculations
   LSORBIT =      F    spin-orbit coupling
   INIWAV =      1    electr: 0-lowe 1-rand  2-diag
   LASPH  =      T    aspherical Exc in radial PAW
   METAGGA=      F    non-selfconsistent MetaGGA calc.

 Electronic Relaxation 1
   ENCUT  =  400.0 eV  29.40 Ry    5.42 a.u.  16.34 16.34 18.29*2*pi/ulx,y,z
   ENINI  =  400.0     initial cutoff
   ENAUG  =  758.8 eV  augmentation charge cutoff
   NELM   =    200;   NELMIN=  6; NELMDL=-12     # of ELM steps 
   EDIFF  = 0.1E-04   stopping-criterion for ELM
   LREAL  =      T    real-space projection
   NLSPLINE    = F    spline interpolate recip. space projectors
   LCOMPAT=      F    compatible to vasp.4.4
   GGA_COMPAT  = T    GGA compatible to vasp.4.4-vasp.4.6
   LMAXPAW     = -100 max onsite density
   LMAXMIX     =    4 max onsite mixed and CHGCAR
   VOSKOWN=      0    Vosko Wilk Nusair interpolation
   ROPT   =   -0.00050  -0.00050  -0.00050  -0.00050
 Ionic relaxation
   EDIFFG = 0.1E-03   stopping-criterion for IOM
   NSW    =      1    number of steps for IOM
   NBLOCK =      1;   KBLOCK =      1    inner block; outer block 
   IBRION =     -1    ionic relax: 0-MD 1-quasi-New 2-CG
   NFREE  =      0    steps in history (QN), initial steepest desc. (CG)
   ISIF   =      2    stress and relaxation
   IWAVPR =     10    prediction:  0-non 1-charg 2-wave 3-comb
   ISYM   =      2    0-nonsym 1-usesym 2-fastsym
   LCORR  =      T    Harris-Foulkes like correction to forces

   POTIM  = 0.5000    time-step for ionic-motion
   TEIN   =    0.0    initial temperature
   TEBEG  =    0.0;   TEEND  =   0.0 temperature during run
   SMASS  =  -3.00    Nose mass-parameter (am)
   estimated Nose-frequenzy (Omega)   =  0.10E-29 period in steps =****** mass=  -0.229E-26a.u.
   SCALEE = 1.0000    scale energy and forces
   NPACO  =    256;   APACO  = 16.0  distance and # of slots for P.C.
   PSTRESS=    0.0 pullay stress

  Mass of Ions in am
   POMASS =  22.99 24.30 54.94 16.00
  Ionic Valenz
   ZVAL   =   7.00  8.00 13.00  6.00
  Atomic Wigner-Seitz radii
   RWIGS  =  -1.00 -1.00 -1.00 -1.00
  virtual crystal weights 
   VCA    =   1.00  1.00  1.00  1.00
   NELECT =     672.0000    total number of electrons
   NUPDOWN=      48.0000    fix difference up-down

 DOS related values:
   EMIN   =  10.00;   EMAX   =-10.00  energy-range for DOS
   EFERMI =   0.00
   ISMEAR =     0;   SIGMA  =   0.05  broadening in eV -4-tet -1-fermi 0-gaus

 Electronic relaxation 2 (details)
   IALGO  =     48    algorithm
   LDIAG  =      T    sub-space diagonalisation (order eigenvalues)
   LSUBROT=      F    optimize rotation matrix (better conditioning)
   TURBO    =      0    0=normal 1=particle mesh
   IRESTART =      0    0=no restart 2=restart with 2 vectors
   NREBOOT  =      0    no. of reboots
   NMIN     =      0    reboot dimension
   EREF     =   0.00    reference energy to select bands
   IMIX   =      4    mixing-type and parameters
     AMIX     =   0.40;   BMIX     =  1.00
     AMIX_MAG =   1.60;   BMIX_MAG =  1.00
     AMIN     =   0.10
     WC   =   100.;   INIMIX=   1;  MIXPRE=   1;  MAXMIX= -45

 Intra band minimization:
   WEIMIN = 0.0000     energy-eigenvalue tresh-hold
   EBREAK =  0.52E-08  absolut break condition
   DEPER  =   0.30     relativ break condition  

   TIME   =   0.40     timestep for ELM

  volume/ion in A,a.u.               =      11.08        74.78
  Fermi-wavevector in a.u.,A,eV,Ry     =   1.445993  2.732531 28.448379  2.090897
  Thomas-Fermi vector in A             =   2.564112
 
 Write flags
   LWAVE        =      F    write WAVECAR
   LDOWNSAMPLE  =      F    k-point downsampling of WAVECAR
   LCHARG       =      F    write CHGCAR
   LVTOT        =      F    write LOCPOT, total local potential
   LVHAR        =      F    write LOCPOT, Hartree potential only
   LELF         =      F    write electronic localiz. function (ELF)
   LORBIT       =     11    0 simple, 1 ext, 2 COOP (PROOUT), +10 PAW based schemes


 Dipole corrections
   LMONO  =      F    monopole corrections only (constant potential shift)
   LDIPOL =      F    correct potential (dipole corrections)
   IDIPOL =      0    1-x, 2-y, 3-z, 4-all directions 
   EPSILON=  1.0000000 bulk dielectric constant

 Exchange correlation treatment:
   GGA     =    --    GGA type
   LEXCH   =     8    internal setting for exchange type
   VOSKOWN=      0    Vosko Wilk Nusair interpolation
   LHFCALC =     F    Hartree Fock is set to
   LHFONE  =     F    Hartree Fock one center treatment
   AEXX    =    0.0000 exact exchange contribution

 Linear response parameters
   LEPSILON=     F    determine dielectric tensor
   LRPA    =     F    only Hartree local field effects (RPA)
   LNABLA  =     F    use nabla operator in PAW spheres
   LVEL    =     F    velocity operator in full k-point grid
   LINTERFAST=   F  fast interpolation
   KINTER  =     0    interpolate to denser k-point grid
   CSHIFT  =0.1000    complex shift for real part using Kramers Kronig
   OMEGAMAX=  -1.0    maximum frequency
   DEG_THRESHOLD= 0.2000000E-02 threshold for treating states as degnerate
   RTIME   =   -0.100 relaxation time in fs
  (WPLASMAI=    0.000 imaginary part of plasma frequency in eV, 0.658/RTIME)
   DFIELD  = 0.0000000 0.0000000 0.0000000 field for delta impulse in time
 
 Orbital magnetization related:
   ORBITALMAG=     F  switch on orbital magnetization
   LCHIMAG   =     F  perturbation theory with respect to B field
   DQ        =  0.001000  dq finite difference perturbation B field
   LLRAUG    =     F  two centre corrections for induced B field



--------------------------------------------------------------------------------------------------------


 Static calculation
 charge density and potential will be updated during run
 spin polarized calculation
 RMM-DIIS sequential band-by-band
 perform sub-space diagonalisation
    before iterative eigenvector-optimisation
 modified Broyden-mixing scheme, WC =      100.0
 initial mixing is a Kerker type mixing with AMIX =  0.4000 and BMIX =      1.0000
 Hartree-type preconditioning will be used
 using additional bands          144
 real space projection scheme for non local part
 use partial core corrections
 calculate Harris-corrections to forces 
   (improved forces if not selfconsistent)
 use gradient corrections 
 use of overlap-Matrix (Vanderbilt PP)
 Gauss-broadening in eV      SIGMA  =   0.05


--------------------------------------------------------------------------------------------------------


  energy-cutoff  :      400.00
  volume of cell :      975.20
      direct lattice vectors                 reciprocal lattice vectors
    10.019000053  0.000000000  0.000000000     0.099810360  0.057625538 -0.000000000
    -5.009500027  8.676708567  0.000000000     0.000000000  0.115251076  0.000000000
     0.000000000  0.000000000 11.218000412     0.000000000  0.000000000  0.089142446

  length of vectors
    10.019000053 10.019000053 11.218000412     0.115251076  0.115251076  0.089142446


 
 k-points in units of 2pi/SCALE and weight: read from INCAR                         
   0.00000000  0.00000000  0.00000000       0.125
   0.04990518  0.02881277 -0.00000000       0.125
   0.00000000  0.05762554  0.00000000       0.125
   0.04990518  0.08643831 -0.00000000       0.125
   0.00000000  0.00000000  0.04457122       0.125
   0.04990518  0.02881277  0.04457122       0.125
   0.00000000  0.05762554  0.04457122       0.125
   0.04990518  0.08643831  0.04457122       0.125
 
 k-points in reciprocal lattice and weights: read from INCAR                         
   0.00000000  0.00000000  0.00000000       0.125
   0.50000000 -0.00000000 -0.00000000       0.125
   0.00000000  0.50000000  0.00000000       0.125
   0.50000000  0.50000000 -0.00000000       0.125
   0.00000000  0.00000000  0.50000000       0.125
   0.50000000 -0.00000000  0.50000000       0.125
   0.00000000  0.50000000  0.50000000       0.125
   0.50000000  0.50000000  0.50000000       0.125
 
 position of ions in fractional coordinates (direct lattice) 
   0.34380620  0.24956468  0.24055178
   0.04284533  0.26708861  0.74203688
   0.48403901  0.42482222  0.75357726
   0.53232661  0.74048915  0.75779637
   0.03161357  0.45134972  0.25155196
   0.95496757  0.10230366  0.25372882
   0.17916852  0.62081836  0.73698518
   0.83431917  0.45270260  0.74513369
   0.17701331  0.89768964  0.25095471
   0.85226144  0.76141480  0.24748350
   0.70623311  0.39435263  0.24190942
   0.65855418  0.09777509  0.74533693
   0.92284250  0.91653320  0.76359063
   0.33812126  0.08332900  0.75109018
   0.45262762  0.59462541  0.25184257
   0.51871818  0.93415262  0.25589587
   0.67763722  0.25154354  0.99641568
   0.66516617  0.25273178  0.50136030
   0.19882884  0.25800682  0.99901749
   0.17993017  0.26679356  0.48809144
   0.19055409  0.75995638  0.00137276
   0.16098125  0.76017190  0.49374575
   0.69380596  0.76193869  0.00206972
   0.66892920  0.75409355  0.50182562
   0.02841053  0.92946305  0.00185257
   0.35412359  0.09115565  0.00408480
   0.99965423  0.92816763  0.50245051
   0.33085194  0.08841913  0.49484666
   0.52657623  0.92510195  0.99900157
   0.85823949  0.09893233  0.99181669
   0.49536872  0.92226792  0.50093330
   0.83067836  0.08819174  0.50882419
   0.53324684  0.43159799  0.00726785
   0.86281465  0.60172472  0.00395022
   0.50503345  0.42464720  0.49594846
   0.83333400  0.58666601  0.49209305
   0.01832325  0.42791111  0.99364242
   0.34267251  0.58193611  0.99739527
   0.00804986  0.42523037  0.51159207
   0.33316939  0.58942512  0.50043856
   0.19839589  0.08419172  0.09880905
   0.36688517  0.93661295  0.09929488
   0.51330251  0.25500107  0.09906846
   0.16668147  0.93377016  0.59185058
   0.34181296  0.25873521  0.58664198
   0.48207136  0.08267951  0.59300854
   0.19658829  0.93623077  0.91051878
   0.38216471  0.26371060  0.91517201
   0.50924459  0.07897626  0.90718485
   0.16593494  0.08540416  0.40369137
   0.34270524  0.93290025  0.40983507
   0.49867705  0.26365412  0.39667854
   0.69115284  0.07485385  0.09068639
   0.87298026  0.95316484  0.08417213
   0.00335823  0.25744209  0.08098475
   0.64571259  0.92550643  0.60102601
   0.84996369  0.25352355  0.60021392
   0.99306218  0.07984629  0.59946423
   0.69168186  0.94273693  0.89577461
   0.85972423  0.26113128  0.89843997
   0.03197067  0.08610523  0.91023352
   0.66368672  0.07790742  0.41238722
   0.84083334  0.93423082  0.41086645
   0.98527232  0.25369067  0.41776875
   0.69600179  0.59520151  0.10406757
   0.86155525  0.43221920  0.09005794
   0.01902155  0.75978580  0.09916651
   0.66465738  0.43455879  0.58980476
   0.84145301  0.75198676  0.58095024
   0.99276014  0.57466492  0.59367710
   0.68872066  0.44390105  0.91596538
   0.87795133  0.75981923  0.91265819
   0.00967269  0.58792109  0.90637365
   0.67203188  0.58162839  0.40248617
   0.84638642  0.43462333  0.40230877
   0.99290968  0.76260946  0.40047333
   0.18034938  0.57643287  0.08865983
   0.37134811  0.43005824  0.09489303
   0.50826852  0.75343893  0.08994116
   0.18093251  0.43945120  0.59940094
   0.33228326  0.76072741  0.59171508
   0.48595374  0.57965875  0.59476553
   0.18792270  0.43795639  0.90259401
   0.36376169  0.74697219  0.90098053
   0.52184473  0.58317045  0.91679440
   0.16008181  0.57174561  0.41512211
   0.34437212  0.43874125  0.40296754
   0.47913366  0.75367404  0.40893652
 
 position of ions in cartesian coordinates  (Angst):
   2.19440011  2.16540000  2.69851000
  -0.90871300  2.31745000  8.32417000
   2.72143997  3.68605857  8.45363000
   1.62389992  6.42500857  8.50096000
  -1.94430005  3.91623000  2.82191000
   9.05533000  0.88765900  2.84633000
  -1.31490016  5.38666000  8.26750000
   6.09123008  3.92796857  8.35891000
  -2.72347997  7.78899143  2.81521000
   4.72449992  6.60657430  2.77627000
   5.10024000  3.42168287  2.71374000
   6.10825005  0.84836600  8.36119000
   4.65458603  7.95249143  8.56596000
   2.97020029  0.72302143  8.42573000
   1.55610008  5.15939143  2.82517000
   0.51739995  8.10537000  2.87064000
   5.52914000  2.18257000 11.17779151
   5.39824000  2.19288000  5.62426000
   0.69958100  2.23865000 11.20697861
   0.46621800  2.31489000  5.47541000
  -1.89784000  6.59392000  0.01539959
  -2.19521000  6.59579000  5.53884000
   3.13431000  6.61112000  0.02321810
   2.92437000  6.54305000  5.62948000
  -4.37150005  8.06468000  0.02078210
   3.09132000  0.79093100  0.04582330
   5.36588000  8.05344000  5.63649000
   2.87187000  0.76718700  5.55119000
   0.64146900  8.02684000 11.20680000
   8.10310000  0.85840700 11.12620000
   0.34299800  8.00225000  5.61947000
   7.88077000  0.76521400  5.70799000
   3.18051000  3.74485000  0.08153080
   5.63020000  5.22099000  0.04431360
   2.93266000  3.68454000  5.56355000
   5.41027000  5.09033000  5.52030000
  -1.96004005  3.71286000 11.14668111
   0.51802700  5.04929000 11.18878051
  -2.04954005  3.68960000  5.73904000
   0.38529900  5.11427000  5.61392000
   1.56597000  0.73050700  1.10844000
  -1.01614003  8.12671757  1.11389000
   3.86535000  2.21257000  1.11135000
  -3.00774003  8.10205157  6.63938000
   2.12849000  2.24497000  6.58095000
   4.41569000  0.71738600  6.65237000
  -2.72043003  8.12340157 10.21420000
   2.50785000  2.28814000 10.26640000
   4.70649000  0.68525400 10.17680000
   1.23467000  0.74102700  4.52861000
  -1.23980003  8.09450357  4.59753000
   3.67547000  2.28765000  4.44994000
   6.54968000  0.64948500  1.01732000
   3.97150997  8.27033357  0.94424300
  -1.25601005  2.23375000  0.90848700
   1.83306997  8.03034957  6.74231000
   7.24576000  2.19975000  6.73320000
   9.54950000  0.69280300  6.72479000
   2.20731997  8.17985357 10.04880000
   7.30544000  2.26576000 10.07870000
  -0.11103005  0.74711000 10.21100000
   6.25920000  0.67598000  4.62616000
   3.74427997  8.10604857  4.60910000
   8.60058000  2.20120000  4.68653000
   3.99158000  5.16439000  1.16743000
   6.46672000  3.75024000  1.01027000
  -3.61557005  6.59244000  1.11245000
   4.48228000  3.77054000  6.61643000
   4.66344000  6.52477000  6.51710000
   7.06768000  4.98620000  6.65987000
   4.67657000  3.85160000 10.27530000
   4.98988000  6.59273000 10.23820000
  -2.84828005  5.10122000 10.16770000
   3.81942000  5.04662000  4.51509000
   6.30270000  3.77110000  4.51310000
   6.12767000  6.61694000  4.49251000
  -1.08072000  5.00154000  0.99458600
   1.56616000  3.73149000  1.06451000
   1.31799000  6.53737000  1.00896000
  -0.38866800  3.81299000  6.72408000
  -0.48171800  6.60061000  6.63786000
   1.96497000  5.02953000  6.67208000
  -0.31114500  3.80002000 10.12530000
  -0.09742880  6.48126000 10.10720000
   2.30697000  5.06000000 10.28460000
  -1.26030000  4.96087000  4.65684000
   1.25239000  3.80683000  4.52049000
   1.02491000  6.53941000  4.58745000
 


--------------------------------------------------------------------------------------------------------


 k-point  1 :   0.0000 0.0000 0.0000  plane waves:   17725
 k-point  2 :   0.5000-0.0000-0.0000  plane waves:   17736
 k-point  3 :   0.0000 0.5000 0.0000  plane waves:   17736
 k-point  4 :   0.5000 0.5000-0.0000  plane waves:   17736
 k-point  5 :   0.0000 0.0000 0.5000  plane waves:   17676
 k-point  6 :   0.5000-0.0000 0.5000  plane waves:   17700
 k-point  7 :   0.0000 0.5000 0.5000  plane waves:   17700
 k-point  8 :   0.5000 0.5000 0.5000  plane waves:   17700

 maximum and minimum number of plane-waves per node :     17736    17676

 maximum number of plane-waves:     17736
 maximum index in each direction: 
   IXMAX=   16   IYMAX=   16   IZMAX=   18
   IXMIN=  -16   IYMIN=  -16   IZMIN=  -18


 serial   3D FFT for wavefunctions
 parallel 3D FFT for charge:
    minimum data exchange during FFTs selected (reduces bandwidth)


 total amount of memory used by VASP MPI-rank0    94439. kBytes
=======================================================================

   base      :      30000. kBytes
   nonlr-proj:      13680. kBytes
   fftplans  :       1275. kBytes
   grid      :      22786. kBytes
   one-center:       2737. kBytes
   wavefun   :      23961. kBytes
 
     INWAV:  cpu time    0.0000: real time    0.0001
 Broyden mixing: mesh for mixing (old mesh)
   NGX = 33   NGY = 33   NGZ = 37
  (NGX  =100   NGY  =100   NGZ  =112)
  gives a total of  40293 points

 initial charge density was supplied:
 charge density of overlapping atoms calculated
 number of electron     672.0000000 magnetization      48.0000000
 keeping initial charge density in first step


--------------------------------------------------------------------------------------------------------


 Maximum index for non-local projection operator         1552
 Maximum index for augmentation-charges          539 (set IRDMAX)


--------------------------------------------------------------------------------------------------------


 First call to EWALD:  gamma=   0.179
 Maximum number of real-space cells 3x 3x 2
 Maximum number of reciprocal cells 3x 3x 3

    FEWALD:  cpu time    0.0027: real time    0.0027


--------------------------------------- Iteration      1(   1)  ---------------------------------------


    POTLOK:  cpu time    0.1941: real time    0.1958
    SETDIJ:  cpu time    4.6077: real time    4.6102
    EDDIAG:  cpu time    4.4651: real time    4.8515
  RMM-DIIS:  cpu time    9.1227: real time    9.1508
    ORTHCH:  cpu time    1.1685: real time    1.2510
       DOS:  cpu time    0.0022: real time    0.0024
    --------------------------------------------
      LOOP:  cpu time   19.5604: real time   20.0617

 eigenvalue-minimisations  :  7680
 total energy-change (2. order) : 0.1598765E+04  (-0.3496285E+05)
 number of electron     672.0000000 magnetization      48.0000000
 augmentation part      672.0000000 magnetization      48.0000000

 Free energy of the ion-electron system (eV)
  ---------------------------------------------------
  alpha Z        PSCENC =      2652.81237852
  Ewald energy   TEWEN  =    -41795.42537801
  -Hartree energ DENC   =    -25815.35712330
  -exchange      EXHF   =         0.00000000
  -V(xc)+E(xc)   XCENC  =      3606.10249374
  PAW double counting   =     55594.23204139   -59034.67079123
  entropy T*S    EENTRO =        -0.03955270
  eigenvalues    EBANDS =     -7471.08675474
  atomic energy  EATOM  =     73862.19814772
  Solvation  Ediel_sol  =         0.00000000
  ---------------------------------------------------
  free energy    TOTEN  =      1598.76546138 eV

  energy without entropy =     1598.80501409  energy(sigma->0) =     1598.78523774


--------------------------------------------------------------------------------------------------------




--------------------------------------- Iteration      1(   2)  ---------------------------------------


    EDDIAG:  cpu time    4.4361: real time    4.8013
  RMM-DIIS:  cpu time    9.1405: real time    9.1507
    ORTHCH:  cpu time    1.1763: real time    1.2529
       DOS:  cpu time    0.0018: real time    0.0018
    --------------------------------------------
      LOOP:  cpu time   14.7549: real time   15.2068

 eigenvalue-minimisations  :  7680
 total energy-change (2. order) :-0.2331412E+04  (-0.8034137E+04)
 number of electron     672.0000000 magnetization      48.0000000
 augmentation part      672.0000000 magnetization      48.0000000

 Free energy of the ion-electron system (eV)
  ---------------------------------------------------
  alpha Z        PSCENC =      2652.81237852
  Ewald energy   TEWEN  =    -41795.42537801
  -Hartree energ DENC   =    -25815.35712330
  -exchange      EXHF   =         0.00000000
  -V(xc)+E(xc)   XCENC  =      3606.10249374
  PAW double counting   =     55594.23204139   -59034.67079123
  entropy T*S    EENTRO =        -0.03819463
  eigenvalues    EBANDS =     -9802.50036055
  atomic energy  EATOM  =     73862.19814772
  Solvation  Ediel_sol  =         0.00000000
  ---------------------------------------------------
  free energy    TOTEN  =      -732.64678635 eV

  energy without entropy =     -732.60859172  energy(sigma->0) =     -732.62768904


--------------------------------------------------------------------------------------------------------




--------------------------------------- Iteration      1(   3)  ---------------------------------------


    EDDIAG:  cpu time    4.4961: real time    4.8853
  RMM-DIIS:  cpu time    9.1660: real time    9.1724
    ORTHCH:  cpu time    1.1734: real time    1.2533
       DOS:  cpu time    0.0022: real time    0.0022
    --------------------------------------------
      LOOP:  cpu time   14.8376: real time   15.3132

 eigenvalue-minimisations  :  7680
 total energy-change (2. order) : 0.8681788E+02  (-0.1421335E+04)
 number of electron     672.0000000 magnetization      48.0000000
 augmentation part      672.0000000 magnetization      48.0000000

 Free energy of the ion-electron system (eV)
  ---------------------------------------------------
  alpha Z        PSCENC =      2652.81237852
  Ewald energy   TEWEN  =    -41795.42537801
  -Hartree energ DENC   =    -25815.35712330
  -exchange      EXHF   =         0.00000000
  -V(xc)+E(xc)   XCENC  =      3606.10249374
  PAW double counting   =     55594.23204139   -59034.67079123
  entropy T*S    EENTRO =        -0.03236990
  eigenvalues    EBANDS =     -9715.68830140
  atomic energy  EATOM  =     73862.19814772
  Solvation  Ediel_sol  =         0.00000000
  ---------------------------------------------------
  free energy    TOTEN  =      -645.82890247 eV

  energy without entropy =     -645.79653257  energy(sigma->0) =     -645.81271752


--------------------------------------------------------------------------------------------------------




--------------------------------------- Iteration      1(   4)  ---------------------------------------


    EDDIAG:  cpu time    4.4757: real time    4.8554
  RMM-DIIS:  cpu time    9.1718: real time    9.1801
    ORTHCH:  cpu time    1.1793: real time    1.2556
       DOS:  cpu time    0.0011: real time    0.0011
    --------------------------------------------
      LOOP:  cpu time   14.8280: real time   15.2922

 eigenvalue-minimisations  :  7680
 total energy-change (2. order) :-0.4666708E+03  (-0.4290615E+03)
 number of electron     672.0000000 magnetization      48.0000000
 augmentation part      672.0000000 magnetization      48.0000000

 Free energy of the ion-electron system (eV)
  ---------------------------------------------------
  alpha Z        PSCENC =      2652.81237852
  Ewald energy   TEWEN  =    -41795.42537801
  -Hartree energ DENC   =    -25815.35712330
  -exchange      EXHF   =         0.00000000
  -V(xc)+E(xc)   XCENC  =      3606.10249374
  PAW double counting   =     55594.23204139   -59034.67079123
  entropy T*S    EENTRO =        -0.00000000
  eigenvalues    EBANDS =    -10182.39149298
  atomic energy  EATOM  =     73862.19814772
  Solvation  Ediel_sol  =         0.00000000
  ---------------------------------------------------
  free energy    TOTEN  =     -1112.49972415 eV

  energy without entropy =    -1112.49972415  energy(sigma->0) =    -1112.49972415


--------------------------------------------------------------------------------------------------------




--------------------------------------- Iteration      1(   5)  ---------------------------------------


    EDDIAG:  cpu time    4.4516: real time    4.8681
  RMM-DIIS:  cpu time    9.1453: real time    9.1507
    ORTHCH:  cpu time    1.1750: real time    1.2533
       DOS:  cpu time    0.0014: real time    0.0014
    --------------------------------------------
      LOOP:  cpu time   14.7733: real time   15.2735

 eigenvalue-minimisations  :  7680
 total energy-change (2. order) :-0.1039508E+03  (-0.1601512E+03)
 number of electron     672.0000000 magnetization      48.0000000
 augmentation part      672.0000000 magnetization      48.0000000

 Free energy of the ion-electron system (eV)
  ---------------------------------------------------
  alpha Z        PSCENC =      2652.81237852
  Ewald energy   TEWEN  =    -41795.42537801
  -Hartree energ DENC   =    -25815.35712330
  -exchange      EXHF   =         0.00000000
  -V(xc)+E(xc)   XCENC  =      3606.10249374
  PAW double counting   =     55594.23204139   -59034.67079123
  entropy T*S    EENTRO =        -0.00000000
  eigenvalues    EBANDS =    -10286.34230906
  atomic energy  EATOM  =     73862.19814772
  Solvation  Ediel_sol  =         0.00000000
  ---------------------------------------------------
  free energy    TOTEN  =     -1216.45054023 eV

  energy without entropy =    -1216.45054023  energy(sigma->0) =    -1216.45054023


--------------------------------------------------------------------------------------------------------




--------------------------------------- Iteration      1(   6)  ---------------------------------------


    EDDIAG:  cpu time    4.5096: real time    4.8435
  RMM-DIIS:  cpu time    9.1528: real time    9.1613
    ORTHCH:  cpu time    1.1903: real time    1.2685
       DOS:  cpu time    0.0012: real time    0.0012
    --------------------------------------------
      LOOP:  cpu time   14.8539: real time   15.2746

 eigenvalue-minimisations  :  7680
 total energy-change (2. order) :-0.8828531E+01  (-0.7956517E+02)
 number of electron     672.0000000 magnetization      48.0000000
 augmentation part      672.0000000 magnetization      48.0000000

 Free energy of the ion-electron system (eV)
  ---------------------------------------------------
  alpha Z        PSCENC =      2652.81237852
  Ewald energy   TEWEN  =    -41795.42537801
  -Hartree energ DENC   =    -25815.35712330
  -exchange      EXHF   =         0.00000000
  -V(xc)+E(xc)   XCENC  =      3606.10249374
  PAW double counting   =     55594.23204139   -59034.67079123
  entropy T*S    EENTRO =        -0.00000000
  eigenvalues    EBANDS =    -10295.17084051
  atomic energy  EATOM  =     73862.19814772
  Solvation  Ediel_sol  =         0.00000000
  ---------------------------------------------------
  free energy    TOTEN  =     -1225.27907168 eV

  energy without entropy =    -1225.27907168  energy(sigma->0) =    -1225.27907168


--------------------------------------------------------------------------------------------------------




--------------------------------------- Iteration      1(   7)  ---------------------------------------


    EDDIAG:  cpu time    4.5084: real time    4.8374
  RMM-DIIS:  cpu time    9.1672: real time    9.1721
    ORTHCH:  cpu time    1.1805: real time    1.2577
       DOS:  cpu time    0.0013: real time    0.0013
    --------------------------------------------
      LOOP:  cpu time   14.8574: real time   15.2684

 eigenvalue-minimisations  :  7680
 total energy-change (2. order) :-0.1754622E+01  (-0.4861736E+02)
 number of electron     672.0000000 magnetization      48.0000000
 augmentation part      672.0000000 magnetization      48.0000000

 Free energy of the ion-electron system (eV)
  ---------------------------------------------------
  alpha Z        PSCENC =      2652.81237852
  Ewald energy   TEWEN  =    -41795.42537801
  -Hartree energ DENC   =    -25815.35712330
  -exchange      EXHF   =         0.00000000
  -V(xc)+E(xc)   XCENC  =      3606.10249374
  PAW double counting   =     55594.23204139   -59034.67079123
  entropy T*S    EENTRO =        -0.00000000
  eigenvalues    EBANDS =    -10296.92546260
  atomic energy  EATOM  =     73862.19814772
  Solvation  Ediel_sol  =         0.00000000
  ---------------------------------------------------
  free energy    TOTEN  =     -1227.03369377 eV

  energy without entropy =    -1227.03369377  energy(sigma->0) =    -1227.03369377


--------------------------------------------------------------------------------------------------------




--------------------------------------- Iteration      1(   8)  ---------------------------------------


    EDDIAG:  cpu time    4.5488: real time    4.8494
  RMM-DIIS:  cpu time    9.1801: real time    9.1832
    ORTHCH:  cpu time    1.2072: real time    1.2933
       DOS:  cpu time    0.0016: real time    0.0016
    --------------------------------------------
      LOOP:  cpu time   14.9377: real time   15.3276

 eigenvalue-minimisations  :  7680
 total energy-change (2. order) : 0.5045584E+01  (-0.3023148E+02)
 number of electron     672.0000000 magnetization      48.0000000
 augmentation part      672.0000000 magnetization      48.0000000

 Free energy of the ion-electron system (eV)
  ---------------------------------------------------
  alpha Z        PSCENC =      2652.81237852
  Ewald energy   TEWEN  =    -41795.42537801
  -Hartree energ DENC   =    -25815.35712330
  -exchange      EXHF   =         0.00000000
  -V(xc)+E(xc)   XCENC  =      3606.10249374
  PAW double counting   =     55594.23204139   -59034.67079123
  entropy T*S    EENTRO =        -0.00000000
  eigenvalues    EBANDS =    -10291.87987859
  atomic energy  EATOM  =     73862.19814772
  Solvation  Ediel_sol  =         0.00000000
  ---------------------------------------------------
  free energy    TOTEN  =     -1221.98810975 eV

  energy without entropy =    -1221.98810975  energy(sigma->0) =    -1221.98810975


--------------------------------------------------------------------------------------------------------




--------------------------------------- Iteration      1(   9)  ---------------------------------------


    EDDIAG:  cpu time    4.4865: real time    4.8015
  RMM-DIIS:  cpu time   19.2004: real time   19.2156
    ORTHCH:  cpu time    1.1762: real time    1.2546
       DOS:  cpu time    0.0012: real time    0.0012
    --------------------------------------------
      LOOP:  cpu time   24.8642: real time   25.2729

 eigenvalue-minimisations  : 21792
 total energy-change (2. order) : 0.9376118E+01  (-0.1335288E+02)
 number of electron     672.0000000 magnetization      48.0000000
 augmentation part      672.0000000 magnetization      48.0000000

 Free energy of the ion-electron system (eV)
  ---------------------------------------------------
  alpha Z        PSCENC =      2652.81237852
  Ewald energy   TEWEN  =    -41795.42537801
  -Hartree energ DENC   =    -25815.35712330
  -exchange      EXHF   =         0.00000000
  -V(xc)+E(xc)   XCENC  =      3606.10249374
  PAW double counting   =     55594.23204139   -59034.67079123
  entropy T*S    EENTRO =        -0.00000000
  eigenvalues    EBANDS =    -10282.50376085
  atomic energy  EATOM  =     73862.19814772
  Solvation  Ediel_sol  =         0.00000000
  ---------------------------------------------------
  free energy    TOTEN  =     -1212.61199202 eV

  energy without entropy =    -1212.61199202  energy(sigma->0) =    -1212.61199202


--------------------------------------------------------------------------------------------------------




--------------------------------------- Iteration      1(  10)  ---------------------------------------


    EDDIAG:  cpu time    4.5325: real time    4.9006
  RMM-DIIS:  cpu time   18.0018: real time   18.0207
    ORTHCH:  cpu time    1.1931: real time    1.2720
       DOS:  cpu time    0.0015: real time    0.0015
    --------------------------------------------
      LOOP:  cpu time   23.7289: real time   24.1948

 eigenvalue-minimisations  : 19670
 total energy-change (2. order) :-0.1905308E+01  (-0.5324335E+00)
 number of electron     672.0000000 magnetization      48.0000000
 augmentation part      672.0000000 magnetization      48.0000000

 Free energy of the ion-electron system (eV)
  ---------------------------------------------------
  alpha Z        PSCENC =      2652.81237852
  Ewald energy   TEWEN  =    -41795.42537801
  -Hartree energ DENC   =    -25815.35712330
  -exchange      EXHF   =         0.00000000
  -V(xc)+E(xc)   XCENC  =      3606.10249374
  PAW double counting   =     55594.23204139   -59034.67079123
  entropy T*S    EENTRO =        -0.00000000
  eigenvalues    EBANDS =    -10284.40906852
  atomic energy  EATOM  =     73862.19814772
  Solvation  Ediel_sol  =         0.00000000
  ---------------------------------------------------
  free energy    TOTEN  =     -1214.51729969 eV

  energy without entropy =    -1214.51729969  energy(sigma->0) =    -1214.51729969


--------------------------------------------------------------------------------------------------------




--------------------------------------- Iteration      1(  11)  ---------------------------------------


    EDDIAG:  cpu time    4.4242: real time    4.8149
  RMM-DIIS:  cpu time   19.8330: real time   19.8792
    ORTHCH:  cpu time    1.1740: real time    1.2533
       DOS:  cpu time    0.0013: real time    0.0013
    --------------------------------------------
      LOOP:  cpu time   25.4325: real time   25.9487

 eigenvalue-minimisations  : 22576
 total energy-change (2. order) : 0.6995450E-01  (-0.4379920E-01)
 number of electron     672.0000000 magnetization      48.0000000
 augmentation part      672.0000000 magnetization      48.0000000

 Free energy of the ion-electron system (eV)
  ---------------------------------------------------
  alpha Z        PSCENC =      2652.81237852
  Ewald energy   TEWEN  =    -41795.42537801
  -Hartree energ DENC   =    -25815.35712330
  -exchange      EXHF   =         0.00000000
  -V(xc)+E(xc)   XCENC  =      3606.10249374
  PAW double counting   =     55594.23204139   -59034.67079123
  entropy T*S    EENTRO =        -0.00000000
  eigenvalues    EBANDS =    -10284.33911402
  atomic energy  EATOM  =     73862.19814772
  Solvation  Ediel_sol  =         0.00000000
  ---------------------------------------------------
  free energy    TOTEN  =     -1214.44734519 eV

  energy without entropy =    -1214.44734518  energy(sigma->0) =    -1214.44734519


--------------------------------------------------------------------------------------------------------




--------------------------------------- Iteration      1(  12)  ---------------------------------------


    EDDIAG:  cpu time    4.4606: real time    4.8231
  RMM-DIIS:  cpu time   21.6174: real time   21.6918
    ORTHCH:  cpu time    1.1834: real time    1.2625
       DOS:  cpu time    0.0013: real time    0.0013
    CHARGE:  cpu time    1.7881: real time    1.7888
    MIXING:  cpu time    0.0010: real time    0.0012
    --------------------------------------------
      LOOP:  cpu time   29.0519: real time   29.5688

 eigenvalue-minimisations  : 24380
 total energy-change (2. order) :-0.6367647E-03  (-0.4273926E-02)
 number of electron     672.0000316 magnetization      48.0000004
 augmentation part      239.0708761 magnetization      29.0339881

 Broyden mixing:
  rms(total) = 0.12566E+02    rms(broyden)= 0.12557E+02
  rms(prec ) = 0.14417E+02
  weight for this iteration     100.00

 Free energy of the ion-electron system (eV)
  ---------------------------------------------------
  alpha Z        PSCENC =      2652.81237852
  Ewald energy   TEWEN  =    -41795.42537801
  -Hartree energ DENC   =    -25815.35712330
  -exchange      EXHF   =         0.00000000
  -V(xc)+E(xc)   XCENC  =      3606.10249374
  PAW double counting   =     55594.23204139   -59034.67079123
  entropy T*S    EENTRO =        -0.00000000
  eigenvalues    EBANDS =    -10284.33975078
  atomic energy  EATOM  =     73862.19814772
  Solvation  Ediel_sol  =         0.00000000
  ---------------------------------------------------
  free energy    TOTEN  =     -1214.44798195 eV

  energy without entropy =    -1214.44798195  energy(sigma->0) =    -1214.44798195


--------------------------------------------------------------------------------------------------------




--------------------------------------- Iteration      1(  13)  ---------------------------------------


    POTLOK:  cpu time    0.1750: real time    0.1754
    SETDIJ:  cpu time    4.9586: real time    4.9588
    EDDIAG:  cpu time    4.4186: real time    4.8003
  RMM-DIIS:  cpu time   17.2974: real time   17.3533
    ORTHCH:  cpu time    1.1712: real time    1.2519
       DOS:  cpu time    0.0015: real time    0.0015
    CHARGE:  cpu time    1.7897: real time    1.7902
    MIXING:  cpu time    0.0013: real time    0.0014
    --------------------------------------------
      LOOP:  cpu time   29.8134: real time   30.3328

 eigenvalue-minimisations  : 18752
 total energy-change (2. order) : 0.2284261E+03  (-0.1217828E+03)
 number of electron     672.0000186 magnetization      48.0000009
 augmentation part      268.9498171 magnetization      26.4711821

 Broyden mixing:
  rms(total) = 0.13916E+02    rms(broyden)= 0.13913E+02
  rms(prec ) = 0.15654E+02
  weight for this iteration     100.00

 eigenvalues of (default mixing * dielectric matrix)
  average eigenvalue GAMMA=   0.3188
  0.3188

 Free energy of the ion-electron system (eV)
  ---------------------------------------------------
  alpha Z        PSCENC =      2652.81237852
  Ewald energy   TEWEN  =    -41795.42537801
  -Hartree energ DENC   =    -25144.41774140
  -exchange      EXHF   =         0.00000000
  -V(xc)+E(xc)   XCENC  =      3696.30446799
  PAW double counting   =     59899.57056961   -63324.75138330
  entropy T*S    EENTRO =        -0.08724387
  eigenvalues    EBANDS =    -10832.22569835
  atomic energy  EATOM  =     73862.19814772
  Solvation  Ediel_sol  =         0.00000000
  ---------------------------------------------------
  free energy    TOTEN  =      -986.02188108 eV

  energy without entropy =     -985.93463721  energy(sigma->0) =     -985.97825914


--------------------------------------------------------------------------------------------------------




--------------------------------------- Iteration      1(  14)  ---------------------------------------


    POTLOK:  cpu time    0.1762: real time    0.1763
    SETDIJ:  cpu time    4.9391: real time    4.9392
    EDDIAG:  cpu time    4.4206: real time    4.8064
  RMM-DIIS:  cpu time   17.9992: real time   18.0317
    ORTHCH:  cpu time    1.1838: real time    1.2643
       DOS:  cpu time    0.0018: real time    0.0018
    CHARGE:  cpu time    1.7941: real time    1.7942
    MIXING:  cpu time    0.0010: real time    0.0010
    --------------------------------------------
      LOOP:  cpu time   30.5158: real time   31.0149

 eigenvalue-minimisations  : 19412
 total energy-change (2. order) : 0.7005514E+02  (-0.1771583E+02)
 number of electron     672.0000263 magnetization      48.0000014
 augmentation part      246.5655507 magnetization      32.1731185

 Broyden mixing:
  rms(total) = 0.52887E+01    rms(broyden)= 0.52844E+01
  rms(prec ) = 0.57153E+01
  weight for this iteration     100.00

 eigenvalues of (default mixing * dielectric matrix)
  average eigenvalue GAMMA=   0.7304
  1.1031  0.3577

 Free energy of the ion-electron system (eV)
  ---------------------------------------------------
  alpha Z        PSCENC =      2652.81237852
  Ewald energy   TEWEN  =    -41795.42537801
  -Hartree energ DENC   =    -25757.06997470
  -exchange      EXHF   =         0.00000000
  -V(xc)+E(xc)   XCENC  =      3673.62461496
  PAW double counting   =     63291.46696228   -66773.94635148
  entropy T*S    EENTRO =        -0.00000000
  eigenvalues    EBANDS =    -10069.62713670
  atomic energy  EATOM  =     73862.19814772
  Solvation  Ediel_sol  =         0.00000000
  ---------------------------------------------------
  free energy    TOTEN  =      -915.96673741 eV

  energy without entropy =     -915.96673741  energy(sigma->0) =     -915.96673741


--------------------------------------------------------------------------------------------------------




--------------------------------------- Iteration      1(  15)  ---------------------------------------


    POTLOK:  cpu time    0.1747: real time    0.1753
    SETDIJ:  cpu time    4.9529: real time    4.9530
    EDDIAG:  cpu time    4.4715: real time    4.7951
  RMM-DIIS:  cpu time   18.2086: real time   18.2962
    ORTHCH:  cpu time    1.1810: real time    1.2601
       DOS:  cpu time    0.0011: real time    0.0011
    CHARGE:  cpu time    1.7889: real time    1.7916
    MIXING:  cpu time    0.0014: real time    0.0014
    --------------------------------------------
      LOOP:  cpu time   30.7800: real time   31.2738

 eigenvalue-minimisations  : 20236
 total energy-change (2. order) : 0.1428263E+02  (-0.1953595E+01)
 number of electron     672.0000248 magnetization      48.0000015
 augmentation part      249.6716227 magnetization      33.8188908

 Broyden mixing:
  rms(total) = 0.21532E+01    rms(broyden)= 0.21529E+01
  rms(prec ) = 0.22327E+01
  weight for this iteration     100.00

 eigenvalues of (default mixing * dielectric matrix)
  average eigenvalue GAMMA=   0.9537
  0.3831  0.7554  1.7225

 Free energy of the ion-electron system (eV)
  ---------------------------------------------------
  alpha Z        PSCENC =      2652.81237852
  Ewald energy   TEWEN  =    -41795.42537801
  -Hartree energ DENC   =    -25678.32057609
  -exchange      EXHF   =         0.00000000
  -V(xc)+E(xc)   XCENC  =      3706.83545633
  PAW double counting   =     67377.65609129   -70900.39254358
  entropy T*S    EENTRO =        -0.00000000
  eigenvalues    EBANDS =    -10127.04767887
  atomic energy  EATOM  =     73862.19814772
  Solvation  Ediel_sol  =         0.00000000
  ---------------------------------------------------
  free energy    TOTEN  =      -901.68410269 eV

  energy without entropy =     -901.68410269  energy(sigma->0) =     -901.68410269


--------------------------------------------------------------------------------------------------------




--------------------------------------- Iteration      1(  16)  ---------------------------------------


    POTLOK:  cpu time    0.1719: real time    0.1729
    SETDIJ:  cpu time    5.0073: real time    5.0112
    EDDIAG:  cpu time    4.5132: real time    4.8243
  RMM-DIIS:  cpu time   17.5026: real time   17.5366
    ORTHCH:  cpu time    1.1746: real time    1.2544
       DOS:  cpu time    0.0013: real time    0.0013
    CHARGE:  cpu time    1.7882: real time    1.7906
    MIXING:  cpu time    0.0009: real time    0.0009
    --------------------------------------------
      LOOP:  cpu time   30.1599: real time   30.5923

 eigenvalue-minimisations  : 19026
 total energy-change (2. order) :-0.1629529E+01  (-0.6477852E+00)
 number of electron     672.0000240 magnetization      48.0000015
 augmentation part      251.2049177 magnetization      33.9111342

 Broyden mixing:
  rms(total) = 0.14308E+01    rms(broyden)= 0.14302E+01
  rms(prec ) = 0.15206E+01
  weight for this iteration     100.00

 eigenvalues of (default mixing * dielectric matrix)
  average eigenvalue GAMMA=   0.9759
  2.0850  0.9026  0.3902  0.5256

 Free energy of the ion-electron system (eV)
  ---------------------------------------------------
  alpha Z        PSCENC =      2652.81237852
  Ewald energy   TEWEN  =    -41795.42537801
  -Hartree energ DENC   =    -25626.87593462
  -exchange      EXHF   =         0.00000000
  -V(xc)+E(xc)   XCENC  =      3708.00485805
  PAW double counting   =     70352.54919995   -73905.35102053
  entropy T*S    EENTRO =        -0.00000000
  eigenvalues    EBANDS =    -10151.22588233
  atomic energy  EATOM  =     73862.19814772
  Solvation  Ediel_sol  =         0.00000000
  ---------------------------------------------------
  free energy    TOTEN  =      -903.31363125 eV

  energy without entropy =     -903.31363125  energy(sigma->0) =     -903.31363125


--------------------------------------------------------------------------------------------------------




--------------------------------------- Iteration      1(  17)  ---------------------------------------


    POTLOK:  cpu time    0.1730: real time    0.1739
    SETDIJ:  cpu time    5.0220: real time    5.0261
    EDDIAG:  cpu time    4.5310: real time    4.8817
  RMM-DIIS:  cpu time   18.6763: real time   18.7138
    ORTHCH:  cpu time    1.1763: real time    1.2572
       DOS:  cpu time    0.0014: real time    0.0014
    CHARGE:  cpu time    1.7901: real time    1.7910
    MIXING:  cpu time    0.0021: real time    0.0021
    --------------------------------------------
      LOOP:  cpu time   31.3722: real time   31.8473

 eigenvalue-minimisations  : 20442
 total energy-change (2. order) : 0.1607955E+00  (-0.6034467E-01)
 number of electron     672.0000241 magnetization      48.0000014
 augmentation part      251.1146302 magnetization      33.9063980

 Broyden mixing:
  rms(total) = 0.76838E+00    rms(broyden)= 0.76828E+00
  rms(prec ) = 0.86666E+00
  weight for this iteration     100.00

 eigenvalues of (default mixing * dielectric matrix)
  average eigenvalue GAMMA=   1.0021
  2.2393  1.1314  0.3806  0.6919  0.5671

 Free energy of the ion-electron system (eV)
  ---------------------------------------------------
  alpha Z        PSCENC =      2652.81237852
  Ewald energy   TEWEN  =    -41795.42537801
  -Hartree energ DENC   =    -25619.12812961
  -exchange      EXHF   =         0.00000000
  -V(xc)+E(xc)   XCENC  =      3705.04612928
  PAW double counting   =     71195.02407725   -74756.02083228
  entropy T*S    EENTRO =        -0.00000000
  eigenvalues    EBANDS =    -10147.65922863
  atomic energy  EATOM  =     73862.19814772
  Solvation  Ediel_sol  =         0.00000000
  ---------------------------------------------------
  free energy    TOTEN  =      -903.15283576 eV

  energy without entropy =     -903.15283576  energy(sigma->0) =     -903.15283576


--------------------------------------------------------------------------------------------------------




--------------------------------------- Iteration      1(  18)  ---------------------------------------


    POTLOK:  cpu time    0.1725: real time    0.1731
    SETDIJ:  cpu time    5.0005: real time    5.0021
    EDDIAG:  cpu time    4.4895: real time    4.8235
  RMM-DIIS:  cpu time   17.7849: real time   17.9305
    ORTHCH:  cpu time    1.1901: real time    1.2715
       DOS:  cpu time    0.0015: real time    0.0015
    CHARGE:  cpu time    1.7986: real time    1.8012
    MIXING:  cpu time    0.0011: real time    0.0011
    --------------------------------------------
      LOOP:  cpu time   30.4387: real time   31.0045

 eigenvalue-minimisations  : 19177
 total energy-change (2. order) : 0.4014779E+00  (-0.6825369E-01)
 number of electron     672.0000245 magnetization      48.0000013
 augmentation part      250.5965048 magnetization      33.8659736

 Broyden mixing:
  rms(total) = 0.26807E+00    rms(broyden)= 0.26777E+00
  rms(prec ) = 0.28191E+00
  weight for this iteration     100.00

 eigenvalues of (default mixing * dielectric matrix)
  average eigenvalue GAMMA=   1.0235
  2.4689  1.3716  0.8499  0.3820  0.5876  0.4811

[...]
   4      -0.804    -0.478     1.282     0.011    -0.103     0.006
   5      -0.766    -1.082     1.848     0.007     0.036     0.057
   6      -0.828    -0.909     1.737    -0.273    -0.035    -0.103
   7      -0.654    -0.757     1.411     0.118    -0.035     0.110
   8      -0.628    -1.013     1.641    -0.196    -0.047     0.019
   9      -0.637    -0.737     1.374     0.142     0.083    -0.001
  10      -1.083    -0.578     1.661     0.002    -0.105    -0.003
  11      -0.535    -0.698     1.233     0.092    -0.003    -0.045
  12      -0.642    -0.839     1.481     0.204    -0.033     0.049
  13      -0.840    -0.911     1.751    -0.318     0.142     0.052
  14      -0.853    -0.979     1.833     0.033     0.006    -0.014
  15      -0.758    -0.973     1.731    -0.294    -0.026    -0.017
  16      -0.896    -1.022     1.917    -0.017    -0.074    -0.040
  17       1.414     1.535    -2.949     0.035    -0.161     0.060
  18       1.336     1.532    -2.869    -0.174     0.121    -0.038
  19       1.431     1.505    -2.935     0.043     0.201     0.029
  20       1.479     1.447    -2.926    -0.012    -0.099     0.041
  21       1.330     1.619    -2.949    -0.146    -0.030     0.018
  22       1.282     1.719    -3.001    -0.007     0.013    -0.110
  23       1.475     1.421    -2.896     0.054    -0.017    -0.077
  24       1.674     1.290    -2.964     0.040    -0.060     0.095
  25       0.059    -1.544     1.486     0.915    -0.741    -0.311
  26       1.417    -0.976    -0.441    -0.121     1.094     0.029
  27      -0.168    -1.206     1.374    -0.722    -0.253    -0.757
  28      -1.072     0.224     0.848     0.950    -0.459     0.090
  29       1.251    -0.555    -0.696    -0.498     0.046     0.715
  30       0.044    -0.327     0.283    -0.937    -1.311     0.313
  31      -0.290    -0.066     0.355    -0.697    -0.787    -0.407
  32       0.608    -0.723     0.115    -0.706    -0.153    -1.279
  33       0.133    -0.998     0.865     0.020     1.213     0.171
  34       1.276    -1.179    -0.096     0.330     0.819     0.443
  35      -0.765     1.062    -0.298    -0.582    -0.351    -0.386
  36      -0.492    -0.408     0.900     1.143     0.504     0.057
  37      -0.251    -0.277     0.528    -0.059    -0.162    -0.724
  38      -0.684     0.212     0.472    -1.532    -0.535     0.288
  39       0.553    -0.944     0.391     0.573     1.136    -0.163
  40      -0.188     0.377    -0.189     0.238     0.303     2.023
  41      -3.754     3.998    -0.244    -3.840     2.142    -2.875
  42      -4.373     4.001     0.371     4.918     1.919     3.949
  43       4.599    -5.215     0.616    -0.759    -4.260     0.708
  44      -4.154     2.561     1.592    -5.129    -1.671     5.894
  45       4.299    -5.566     1.267    -1.441     4.579     0.168
  46      -3.132     2.951     0.181     3.930    -3.541    -3.850
  47      -2.808     1.721     1.087    -5.364     3.004    -4.722
  48       5.568    -5.714     0.146    -1.468    -3.273     0.223
  49      -3.285     2.979     0.306     4.560     1.206     3.778
  50      -4.140     3.850     0.290    -2.350    -1.373     3.780
  51      -3.613     1.604     2.009     4.947    -1.184    -4.604
  52       5.491    -5.768     0.277     0.469     4.735    -2.146
  53      -1.938     3.222    -1.284    -7.693     2.823    -4.423
  54      -3.271     2.284     0.987     4.935     2.307     4.087
  55       6.016    -7.309     1.293    -0.684    -5.471    -0.787
  56      -2.681     3.013    -0.333    -5.147    -3.100     3.504
  57       4.955    -6.379     1.424    -0.047     4.552    -2.317
  58      -3.382     2.054     1.328     5.578    -2.418    -5.365
  59      -2.304     3.199    -0.895    -4.664     2.689    -2.423
  60       4.826    -5.566     0.739     0.164    -4.815    -0.059
  61      -2.109    -0.056     2.165     4.503     1.123     5.312
  62      -2.922     2.160     0.762    -5.327    -3.472     4.436
  63      -3.541     3.065     0.476     4.393    -2.272    -3.799
  64       6.857    -5.805    -1.053    -2.519     4.384     1.073
  65      -2.329     1.676     0.653    -4.171     2.230    -3.520
  66      -2.641     1.281     1.360     4.088     3.999     3.281
  67       4.706    -4.551    -0.155     0.389    -4.986    -0.726
  68      -2.958     3.661    -0.703    -4.942    -2.398     3.514
  69       4.459    -7.503     3.044    -1.253     5.135    -0.245
  70      -3.023     2.485     0.538     6.079    -0.656    -3.554
  71      -2.990     1.621     1.368    -5.152     3.780    -3.565
  72       6.756    -7.548     0.792    -0.048    -5.280     0.177
  73      -2.892     2.365     0.528     5.646     2.460     4.143
  74      -4.517     2.688     1.829    -4.000    -3.027     4.237
  75      -1.873     2.262    -0.389     5.706    -1.319    -4.723
  76       4.389    -5.378     0.989    -0.204     4.910    -0.232
  77      -3.291     3.532    -0.241    -4.979     3.075    -5.083
  78      -5.003     3.941     1.063     3.048     1.280     3.211
  79       5.495    -6.517     1.022    -1.115    -4.981     1.505
  80      -5.650     4.603     1.047    -3.872    -2.881     4.365
  81       3.237    -5.351     2.115     0.635     5.274     0.568
  82      -2.714     2.947    -0.233     4.707    -2.252    -2.489
  83      -3.361     2.318     1.043    -4.903     0.954    -5.353
  84       7.636    -6.779    -0.856    -0.348    -4.424     2.239
  85      -4.575     2.547     2.028     3.062     0.691     5.245
  86      -3.108     3.013     0.095    -5.213    -0.188     5.411
  87      -2.676     2.278     0.398     4.087    -1.501    -3.881
  88       5.788    -6.405     0.617    -0.220     4.362    -0.467
 ---------------------------------------------------------------------


 Total hyperfine coupling parameters after diagonalization (MHz)
 (convention: |A_zz| > |A_xx| > |A_yy|)
 ----------------------------------------------------------------------
  ion      A_xx      A_yy      A_zz     asymmetry (A_yy - A_xx)/ A_zz 
 ----------------------------------------------------------------------
   1       2.437     1.905     4.644      -0.115
   2       1.443     1.111     3.342      -0.099
   3       0.607     0.309     3.076      -0.097
   4       2.046     1.713     3.811      -0.087
   5       0.958     0.640     3.574      -0.089
   6       2.546     1.992     4.881      -0.114
   7       2.187     1.924     4.181      -0.063
   8       2.230     1.682     4.419      -0.124
   9       1.743     1.444     3.659      -0.082
  10       2.209     1.699     4.452      -0.114
  11       1.235     0.989     2.962      -0.083
  12       2.332     1.878     4.329      -0.105
  13       1.092     0.448     3.409      -0.189
  14       0.305     0.163     2.983      -0.048
  15       1.803     1.177     4.087      -0.153
  16      -0.640    -0.510     2.305       0.056
  17      14.076     9.708    14.208      -0.307
  18      13.514     9.406    13.914      -0.295
  19      14.507    10.145    14.617      -0.298
  20      13.870     9.498    13.912      -0.314
  21      14.195     9.976    14.605      -0.289
  22      14.799    10.514    15.239      -0.281
  23      14.149     9.864    14.270      -0.300
  24      14.899    10.644    15.289      -0.278
  25     101.504    99.515   103.403      -0.019
  26      92.208    92.049    95.018      -0.002
  27      96.543    94.575    97.932      -0.020
  28      97.736    95.420    98.069      -0.024
  29      97.180    95.775    98.561      -0.014
  30      97.278    96.259    99.523      -0.010
  31      95.814    94.041    96.259      -0.018
  32      99.714    97.275   100.330      -0.024
  33      91.726    91.433    94.241      -0.003
  34      96.255    95.318    98.396      -0.010
  35      97.600    96.542    98.994      -0.011
  36      97.112    95.065    97.926      -0.021
  37     100.510    99.994   101.698      -0.005
  38      97.460    95.365    98.855      -0.021
  39      96.833    95.775    98.777      -0.011
  40      95.726    94.019    98.167      -0.017
  41       7.525     3.692    16.425      -0.233
  42       3.601    -1.079    14.179      -0.330
  43       3.901     0.676    13.377      -0.241
  44       5.445     0.763    17.753      -0.264
  45       4.933     0.827    14.420      -0.285
  46       3.643     0.380    14.188      -0.230
  47       6.445     2.866    18.392      -0.195
  48       3.587    -0.968    12.204      -0.373
  49       4.336     0.271    13.565      -0.300
  50       5.728     3.020    14.749      -0.184
  51       6.650     1.007    15.945      -0.354
  52       5.539     0.237    15.373      -0.345
  53       4.941     0.952    19.435      -0.205
  54       4.425     0.327    14.701      -0.279
  55       5.611     0.196    17.325      -0.313
  56       5.611     2.228    16.613      -0.204
  57       7.103     1.003    16.352      -0.373
  58       5.722     1.406    18.035      -0.239
  59       6.417     3.045    15.712      -0.215
  60       6.116     2.995    16.580      -0.188
  61       5.613     0.320    14.881      -0.356
  62       5.578     2.104    17.696      -0.196
  63       5.615     1.985    15.633      -0.232
  64       4.630    -0.369    15.700      -0.318
  65       5.052     2.171    14.149      -0.204
  66       4.830     1.000    14.538      -0.263
  67       5.283     3.730    16.302      -0.095
  68       5.128     2.104    16.054      -0.188
  69       5.751    -0.525    16.127      -0.389
  70       8.008     1.517    16.673      -0.389
  71       6.237     1.607    16.755      -0.276
  72       8.022     2.757    20.148      -0.261
  73       6.097     1.881    17.154      -0.246
  74       6.257     1.741    16.669      -0.271
  75       5.092     0.808    15.958      -0.268
  76      -1.536     1.345    11.743       0.245
  77       5.755     3.535    19.191      -0.116
  78       6.439     1.438    14.306      -0.350
  79       3.803    -0.896    14.831      -0.317
  80       6.722     1.369    17.715      -0.302
  81       3.196     0.419    13.859      -0.200
  82       5.676     1.757    14.342      -0.273
  83       8.299     3.392    18.861      -0.260
  84       4.929    -0.702    16.530      -0.341
  85       2.458    -1.368    12.728      -0.301
  86       6.587     0.898    16.907      -0.337
  87       4.567     1.535    13.724      -0.221
  88       4.957     0.370    15.092      -0.304
 ---------------------------------------------------------------------



--------------------------------------------------------------------------------------------------------


 stress matrix after NEB project (eV)
    -46.73053      1.02068      3.30248
      1.02907    -42.50575      1.63901
      3.26469      1.61609    -59.98904
  FORCES: max atom, RMS     2.563385    1.009621
  FORCE total and by dimension    9.471082    1.906726
  Stress total and by dimension   87.281895   59.989036
     LOOP+:  cpu time  687.9233: real time  700.6484
    4ORBIT:  cpu time    0.0000: real time    0.0000
 


 total charge     
 
# of ion       s       p       d       tot
------------------------------------------
    1        0.056   5.999   0.000   6.054
    2        0.049   5.992   0.000   6.041
    3        0.050   5.993   0.000   6.043
    4        0.051   5.992   0.000   6.043
    5        0.049   5.992   0.000   6.041
    6        0.049   5.991   0.000   6.040
    7        0.051   5.994   0.000   6.045
    8        0.049   5.991   0.000   6.040
    9        0.052   5.994   0.000   6.046
   10        0.053   5.995   0.000   6.049
   11        0.053   5.996   0.000   6.049
   12        0.053   5.995   0.000   6.047
   13        0.052   5.996   0.000   6.048
   14        0.050   5.993   0.000   6.043
   15        0.055   5.999   0.000   6.054
   16        0.049   5.993   0.000   6.042
   17        0.148   6.127   0.083   6.358
   18        0.145   6.121   0.078   6.344
   19        0.147   6.126   0.082   6.355
   20        0.153   6.134   0.088   6.375
   21        0.147   6.127   0.084   6.358
   22        0.151   6.133   0.088   6.372
   23        0.146   6.123   0.080   6.348
   24        0.147   6.124   0.081   6.352
   25        0.375   6.454   4.838  11.667
   26        0.387   6.479   4.856  11.723
   27        0.372   6.446   4.819  11.638
   28        0.370   6.443   4.821  11.635
   29        0.361   6.420   4.798  11.579
   30        0.382   6.469   4.850  11.701
   31        0.384   6.476   4.845  11.705
   32        0.366   6.434   4.807  11.607
   33        0.391   6.489   4.862  11.742
   34        0.381   6.469   4.842  11.692
   35        0.367   6.437   4.814  11.618
   36        0.370   6.443   4.817  11.630
   37        0.377   6.459   4.833  11.669
   38        0.372   6.441   4.822  11.635
   39        0.383   6.468   4.860  11.711
   40        0.383   6.474   4.845  11.703
   41        1.599   3.523   0.000   5.122
   42        1.597   3.482   0.000   5.079
   43        1.598   3.510   0.000   5.108
   44        1.604   3.474   0.000   5.078
   45        1.599   3.498   0.000   5.097
   46        1.598   3.510   0.000   5.108
   47        1.604   3.498   0.000   5.101
   48        1.598   3.530   0.000   5.129
   49        1.597   3.518   0.000   5.115
   50        1.595   3.509   0.000   5.104
   51        1.599   3.537   0.000   5.136
   52        1.599   3.468   0.000   5.067
   53        1.605   3.469   0.000   5.074
   54        1.599   3.524   0.000   5.123
   55        1.601   3.516   0.000   5.118
   56        1.597   3.493   0.000   5.090
   57        1.595   3.520   0.000   5.115
   58        1.599   3.486   0.000   5.086
   59        1.595   3.485   0.000   5.080
   60        1.595   3.500   0.000   5.095
   61        1.599   3.525   0.000   5.123
   62        1.602   3.496   0.000   5.098
   63        1.598   3.508   0.000   5.106
   64        1.598   3.513   0.000   5.112
   65        1.596   3.494   0.000   5.089
   66        1.598   3.507   0.000   5.105
   67        1.598   3.512   0.000   5.110
   68        1.599   3.501   0.000   5.100
   69        1.601   3.516   0.000   5.118
   70        1.599   3.521   0.000   5.120
   71        1.601   3.524   0.000   5.125
   72        1.605   3.518   0.000   5.123
   73        1.600   3.507   0.000   5.107
   74        1.600   3.496   0.000   5.096
   75        1.599   3.486   0.000   5.085
   76        1.596   3.509   0.000   5.105
   77        1.603   3.502   0.000   5.106
   78        1.596   3.522   0.000   5.118
   79        1.597   3.493   0.000   5.090
   80        1.601   3.507   0.000   5.108
   81        1.601   3.492   0.000   5.093
   82        1.597   3.504   0.000   5.101
   83        1.600   3.502   0.000   5.102
   84        1.599   3.473   0.000   5.072
   85        1.597   3.524   0.000   5.121
   86        1.604   3.515   0.000   5.120
   87        1.598   3.526   0.000   5.124
   88        1.598   3.516   0.000   5.114
--------------------------------------------------
tot         84.782 416.483  77.993 579.258
 


 magnetization (x)
 
# of ion       s       p       d       tot
------------------------------------------
    1        0.002   0.000   0.000   0.002
    2        0.001  -0.000   0.000   0.001
    3        0.001   0.000   0.000   0.001
    4        0.002   0.000   0.000   0.002
    5        0.001   0.001   0.000   0.002
    6        0.002   0.001   0.000   0.003
    7        0.002   0.000   0.000   0.002
    8        0.002   0.000   0.000   0.002
    9        0.002   0.000   0.000   0.002
   10        0.002   0.000   0.000   0.002
   11        0.001  -0.000   0.000   0.001
   12        0.002   0.000   0.000   0.002
   13        0.001  -0.000   0.000   0.001
   14        0.001   0.000   0.000   0.001
   15        0.002   0.000   0.000   0.002
   16        0.000   0.000   0.000   0.000
   17        0.007   0.002   0.001   0.011
   18        0.007   0.002   0.001   0.010
   19        0.007   0.002   0.001   0.011
   20        0.007   0.002   0.001   0.010
   21        0.007   0.002   0.001   0.010
   22        0.007   0.003   0.001   0.011
   23        0.007   0.002   0.001   0.010
   24        0.008   0.003   0.001   0.011
   25        0.016   0.031   2.759   2.806
   26        0.014   0.030   2.723   2.768
   27        0.015   0.029   2.764   2.809
   28        0.015   0.029   2.768   2.812
   29        0.015   0.029   2.780   2.824
   30        0.016   0.031   2.737   2.783
   31        0.015   0.030   2.733   2.779
   32        0.016   0.030   2.785   2.831
   33        0.014   0.030   2.722   2.765
   34        0.015   0.030   2.740   2.786
   35        0.015   0.029   2.772   2.817
   36        0.015   0.030   2.759   2.804
   37        0.017   0.031   2.759   2.807
   38        0.015   0.029   2.764   2.809
   39        0.016   0.030   2.731   2.777
   40        0.015   0.031   2.738   2.784
   41        0.002   0.044   0.000   0.047
   42        0.002   0.017   0.000   0.019
   43        0.002   0.022   0.000   0.024
   44        0.002   0.027   0.000   0.029
   45        0.002   0.023   0.000   0.025
   46        0.002   0.026   0.000   0.028
   47        0.002   0.042   0.000   0.045
   48        0.001   0.025   0.000   0.026
   49        0.002   0.025   0.000   0.026
   50        0.002   0.034   0.000   0.036
   51        0.002   0.049   0.000   0.051
   52        0.002   0.016   0.000   0.018
   53        0.002   0.027   0.000   0.030
   54        0.002   0.033   0.000   0.035
   55        0.002   0.050   0.000   0.052
   56        0.002   0.036   0.000   0.039
   57        0.002   0.048   0.000   0.050
   58        0.002   0.040   0.000   0.042
   59        0.002   0.034   0.000   0.037
   60        0.002   0.042   0.000   0.044
   61        0.002   0.029   0.000   0.031
   62        0.002   0.034   0.000   0.037
   63        0.002   0.035   0.000   0.037
   64        0.002   0.026   0.000   0.028
   65        0.002   0.025   0.000   0.027
   66        0.002   0.032   0.000   0.034
   67        0.002   0.037   0.000   0.039
   68        0.002   0.033   0.000   0.035
   69        0.002   0.037   0.000   0.038
   70        0.002   0.049   0.000   0.051
   71        0.002   0.052   0.000   0.054
   72        0.003   0.058   0.000   0.061
   73        0.002   0.038   0.000   0.040
   74        0.002   0.037   0.000   0.039
   75        0.002   0.031   0.000   0.033
   76        0.001   0.005   0.000   0.006
   77        0.003   0.041   0.000   0.043
   78        0.002   0.035   0.000   0.037
   79        0.002   0.024   0.000   0.026
   80        0.002   0.039   0.000   0.041
   81        0.002   0.017   0.000   0.019
   82        0.002   0.031   0.000   0.033
   83        0.003   0.058   0.000   0.061
   84        0.002   0.018   0.000   0.021
   85        0.001   0.018   0.000   0.019
   86        0.002   0.042   0.000   0.044
   87        0.002   0.024   0.000   0.026
   88        0.002   0.042   0.000   0.044
--------------------------------------------------
tot          0.423   2.110  44.045  46.578
 

 total amount of memory used by VASP MPI-rank0    94439. kBytes
=======================================================================

   base      :      30000. kBytes
   nonlr-proj:      13680. kBytes
   fftplans  :       1275. kBytes
   grid      :      22786. kBytes
   one-center:       2737. kBytes
   wavefun   :      23961. kBytes
 
  
  
 General timing and accounting informations for this job:
 ========================================================
  
                  Total CPU time used (sec):      708.908
                            User time (sec):      701.392
                          System time (sec):        7.517
                         Elapsed time (sec):      724.028
  
                   Maximum memory used (kb):      193924.
                   Average memory used (kb):           0.
  
                          Minor page faults:       273568
                          Major page faults:            0
                 Voluntary context switches:       226129
