 vasp.5.4.4.18Apr17-6-g9f103f2a35 (build Dec 02 2020 12:53:39) complex          
  
 executed on             LinuxIFC date 2021.08.04  04:02:31
 running on   96 total cores
 distrk:  each k-point on   96 cores,    1 groups
 distr:  one band on NCORES_PER_BAND=   1 cores,   96 groups


--------------------------------------------------------------------------------------------------------


 INCAR:
 POTCAR:    PAW_PBE Na_pv 19Sep2006               
 POTCAR:    PAW_PBE Mg_pv 13Apr2007               
 POTCAR:    PAW_PBE Mn_pv 02Aug2007               
 POTCAR:    PAW_PBE O 08Apr2002                   

 ----------------------------------------------------------------------------- 
|                                                                             |
|           W    W    AA    RRRRR   N    N  II  N    N   GGGG   !!!           |
|           W    W   A  A   R    R  NN   N  II  NN   N  G    G  !!!           |
|           W    W  A    A  R    R  N N  N  II  N N  N  G       !!!           |
|           W WW W  AAAAAA  RRRRR   N  N N  II  N  N N  G  GGG   !            |
|           WW  WW  A    A  R   R   N   NN  II  N   NN  G    G                |
|           W    W  A    A  R    R  N    N  II  N    N   GGGG   !!!           |
|                                                                             |
|      For optimal performance we recommend to set                            |
|        NCORE= 4 - approx SQRT( number of cores)                             |
|      NCORE specifies how many cores store one orbital (NPAR=cpu/NCORE).     |
|      This setting can  greatly improve the performance of VASP for DFT.     |
|      The default,   NCORE=1            might be grossly inefficient         |
|      on modern multi-core architectures or massively parallel machines.     |
|      Do your own testing !!!!                                               |
|      Unfortunately you need to use the default for GW and RPA calculations. |
|      (for HF NCORE is supported but not extensively tested yet)             |
|                                                                             |
 ----------------------------------------------------------------------------- 

 POTCAR:    PAW_PBE Na_pv 19Sep2006               
   VRHFIN =Na: p6s1                                                             
   LEXCH  = PE                                                                  
   EATOM  =   766.0439 eV,   56.3026 Ry                                         
                                                                                
   TITEL  = PAW_PBE Na_pv 19Sep2006                                             
   LULTRA =        F    use ultrasoft PP ?                                      
   IUNSCR =        1    unscreen: 0-lin 1-nonlin 2-no                           
   RPACOR =    1.800    partial core radius                                     
   POMASS =   22.990; ZVAL   =    7.000    mass and valenz                      
   RCORE  =    2.200    outmost cutoff radius                                   
   RWIGS  =    2.200; RWIGS  =    1.164    wigner-seitz radius (au A)           
   ENMAX  =  259.561; ENMIN  =  194.671 eV                                      
   ICORE  =        2    local potential                                         
   LCOR   =        T    correct aug charges                                     
   LPAW   =        T    paw PP                                                  
   EAUG   =  368.056                                                            
   DEXC   =    0.000                                                            
   RMAX   =    2.245    core radius for proj-oper                               
   RAUG   =    1.300    factor for augmentation sphere                          
   RDEP   =    2.259    radius for radial grids                                 
   RDEPT  =    1.738    core radius for aug-charge                              
                                                                                
   Atomic configuration                                                         
    5 entries                                                                   
     n  l   j            E        occ.                                          
     1  0  0.50     -1033.6933   2.0000                                         
     2  0  0.50       -56.7526   2.0000                                         
     2  1  1.50       -28.6721   6.0000                                         
     3  0  0.50        -2.7440   1.0000                                         
     3  2  1.50        -1.3606   0.0000                                         
   Description                                                                  
     l       E           TYP  RCUT    TYP  RCUT                                 
     1    -28.6720912     23  2.000                                             
     1      6.8029130     23  2.000                                             
     0     -2.7439560     23  2.200                                             
     0     34.0145650     23  2.200                                             
     2     -1.3605826     23  2.200                                             
  local pseudopotential read in
  partial core-charges read in
  partial kinetic energy density read in
  atomic valenz-charges read in
  non local Contribution for L=           1  read in
    real space projection operators read in
  non local Contribution for L=           1  read in
    real space projection operators read in
  non local Contribution for L=           0  read in
    real space projection operators read in
  non local Contribution for L=           0  read in
    real space projection operators read in
    PAW grid and wavefunctions read in
 
   number of l-projection  operators is LMAX  =           4
   number of lm-projection operators is LMMAX =           8
 
 POTCAR:    PAW_PBE Mg_pv 13Apr2007               
   VRHFIN =Mg: p6s2                                                             
   LEXCH  = PE                                                                  
   EATOM  =  1056.7344 eV,   77.6678 Ry                                         
                                                                                
   TITEL  = PAW_PBE Mg_pv 13Apr2007                                             
   LULTRA =        F    use ultrasoft PP ?                                      
   IUNSCR =        1    unscreen: 0-lin 1-nonlin 2-no                           
   RPACOR =    1.500    partial core radius                                     
   POMASS =   24.305; ZVAL   =    8.000    mass and valenz                      
   RCORE  =    2.000    outmost cutoff radius                                   
   RWIGS  =    2.000; RWIGS  =    1.058    wigner-seitz radius (au A)           
   ENMAX  =  403.929; ENMIN  =  302.947 eV                                      
   RCLOC  =    1.506    cutoff for local pot                                    
   LCOR   =        T    correct aug charges                                     
   LPAW   =        T    paw PP                                                  
   EAUG   =  758.780                                                            
   DEXC   =    0.000                                                            
   RMAX   =    2.045    core radius for proj-oper                               
   RAUG   =    1.300    factor for augmentation sphere                          
   RDEP   =    2.025    radius for radial grids                                 
   RDEPT  =    1.557    core radius for aug-charge                              
                                                                                
   Atomic configuration                                                         
    5 entries                                                                   
     n  l   j            E        occ.                                          
     1  0  0.50     -1259.6230   2.0000                                         
     2  0  0.50       -79.8442   2.0000                                         
     2  1  1.50       -46.6121   6.0000                                         
     3  0  0.50        -4.7055   2.0000                                         
     3  2  1.50        -1.3606   0.0000                                         
   Description                                                                  
     l       E           TYP  RCUT    TYP  RCUT                                 
     1    -46.6121073     23  1.600                                             
     1      2.7211652     23  1.600                                             
     0     -4.7054661     23  2.000                                             
     0     61.2262170     23  2.000                                             
     2     -1.3605826     23  2.000                                             
  local pseudopotential read in
  partial core-charges read in
  partial kinetic energy density read in
  atomic valenz-charges read in
  non local Contribution for L=           1  read in
    real space projection operators read in
  non local Contribution for L=           1  read in
    real space projection operators read in
  non local Contribution for L=           0  read in
    real space projection operators read in
  non local Contribution for L=           0  read in
    real space projection operators read in
  non local Contribution for L=           2  read in
    real space projection operators read in
    PAW grid and wavefunctions read in
 
   number of l-projection  operators is LMAX  =           5
   number of lm-projection operators is LMMAX =          13
 
 POTCAR:    PAW_PBE Mn_pv 02Aug2007               
   VRHFIN =Mn: 3p4s3d                                                           
   LEXCH  = PE                                                                  
   EATOM  =  2025.2664 eV,  148.8529 Ry                                         
                                                                                
   TITEL  = PAW_PBE Mn_pv 02Aug2007                                             
   LULTRA =        F    use ultrasoft PP ?                                      
   IUNSCR =        1    unscreen: 0-lin 1-nonlin 2-no                           
   RPACOR =    2.080    partial core radius                                     
   POMASS =   54.938; ZVAL   =   13.000    mass and valenz                      
   RCORE  =    2.300    outmost cutoff radius                                   
   RWIGS  =    2.500; RWIGS  =    1.323    wigner-seitz radius (au A)           
   ENMAX  =  269.864; ENMIN  =  202.398 eV                                      
   ICORE  =        3    local potential                                         
   LCOR   =        T    correct aug charges                                     
   LPAW   =        T    paw PP                                                  
   EAUG   =  569.085                                                            
   DEXC   =    0.000                                                            
   RMAX   =    2.343    core radius for proj-oper                               
   RAUG   =    1.300    factor for augmentation sphere                          
   RDEP   =    2.338    radius for radial grids                                 
   RDEPT  =    1.798    core radius for aug-charge                              
                                                                                
   Atomic configuration                                                         
    8 entries                                                                   
     n  l   j            E        occ.                                          
     1  0  0.50     -6424.8287   2.0000                                         
     2  0  0.50      -739.1154   2.0000                                         
     2  1  1.50      -625.3949   6.0000                                         
     3  0  0.50       -81.6100   2.0000                                         
     3  1  1.50       -50.4667   6.0000                                         
     3  2  2.50        -3.3745   6.0000                                         
     4  0  0.50        -4.1331   1.0000                                         
     4  3  2.50        -1.3606   0.0000                                         
   Description                                                                  
     l       E           TYP  RCUT    TYP  RCUT                                 
     1    -50.4666628     23  2.000                                             
     1     -1.3605826     23  2.000                                             
     2     -3.3744729     23  2.300                                             
     2     -4.7350555     23  2.300                                             
     0     -4.1331431     23  2.300                                             
     0      7.6656591     23  2.300                                             
     3      9.5240782     23  2.300                                             
  local pseudopotential read in
  partial core-charges read in
  partial kinetic energy density read in
  atomic valenz-charges read in
  non local Contribution for L=           1  read in
    real space projection operators read in
  non local Contribution for L=           1  read in
    real space projection operators read in
  non local Contribution for L=           2  read in
    real space projection operators read in
  non local Contribution for L=           2  read in
    real space projection operators read in
  non local Contribution for L=           0  read in
    real space projection operators read in
  non local Contribution for L=           0  read in
    real space projection operators read in
    PAW grid and wavefunctions read in
 
   number of l-projection  operators is LMAX  =           6
   number of lm-projection operators is LMMAX =          18
 
 POTCAR:    PAW_PBE O 08Apr2002                   
   VRHFIN =O: s2p4                                                              
   LEXCH  = PE                                                                  
   EATOM  =   432.3788 eV,   31.7789 Ry                                         
                                                                                
   TITEL  = PAW_PBE O 08Apr2002                                                 
   LULTRA =        F    use ultrasoft PP ?                                      
   IUNSCR =        1    unscreen: 0-lin 1-nonlin 2-no                           
   RPACOR =    1.200    partial core radius                                     
   POMASS =   16.000; ZVAL   =    6.000    mass and valenz                      
   RCORE  =    1.520    outmost cutoff radius                                   
   RWIGS  =    1.550; RWIGS  =    0.820    wigner-seitz radius (au A)           
   ENMAX  =  400.000; ENMIN  =  300.000 eV                                      
   ICORE  =        2    local potential                                         
   LCOR   =        T    correct aug charges                                     
   LPAW   =        T    paw PP                                                  
   EAUG   =  605.392                                                            
   DEXC   =    0.000                                                            
   RMAX   =    1.553    core radius for proj-oper                               
   RAUG   =    1.300    factor for augmentation sphere                          
   RDEP   =    1.550    radius for radial grids                                 
   RDEPT  =    1.329    core radius for aug-charge                              
                                                                                
   Atomic configuration                                                         
    4 entries                                                                   
     n  l   j            E        occ.                                          
     1  0  0.50      -514.6923   2.0000                                         
     2  0  0.50       -23.9615   2.0000                                         
     2  1  0.50        -9.0305   4.0000                                         
     3  2  1.50        -9.5241   0.0000                                         
   Description                                                                  
     l       E           TYP  RCUT    TYP  RCUT                                 
     0    -23.9615318     23  1.200                                             
     0     -9.5240782     23  1.200                                             
     1     -9.0304911     23  1.520                                             
     1      8.1634956     23  1.520                                             
     2     -9.5240782      7  1.500                                             
  local pseudopotential read in
  partial core-charges read in
  partial kinetic energy density read in
  kinetic energy density of atom read in
  atomic valenz-charges read in
  non local Contribution for L=           0  read in
    real space projection operators read in
  non local Contribution for L=           0  read in
    real space projection operators read in
  non local Contribution for L=           1  read in
    real space projection operators read in
  non local Contribution for L=           1  read in
    real space projection operators read in
    PAW grid and wavefunctions read in
 
   number of l-projection  operators is LMAX  =           4
   number of lm-projection operators is LMMAX =           8
 
 Optimization of the real space projectors (new method)

 maximal supplied QI-value         = 17.01
 optimisation between [QCUT,QGAM] = [ 10.20, 20.41] = [ 29.16,116.64] Ry 
 Optimized for a Real-space Cutoff    1.30 Angstroem

   l    n(q)    QCUT    max X(q) W(low)/X(q) W(high)/X(q)  e(spline) 
   1      7    10.205     4.940    0.23E-03    0.84E-03    0.11E-06
   1      7    10.205     6.253    0.40E-03    0.13E-02    0.18E-06
   0      8    10.205    37.438    0.23E-03    0.37E-03    0.42E-07
   0      8    10.205     9.606    0.16E-03    0.26E-03    0.31E-07
 Optimization of the real space projectors (new method)

 maximal supplied QI-value         = 18.90
 optimisation between [QCUT,QGAM] = [ 10.20, 20.41] = [ 29.16,116.64] Ry 
 Optimized for a Real-space Cutoff    1.26 Angstroem

   l    n(q)    QCUT    max X(q) W(low)/X(q) W(high)/X(q)  e(spline) 
   1      7    10.205     2.974    0.63E-04    0.14E-03    0.13E-06
   1      7    10.205     4.279    0.11E-03    0.45E-03    0.24E-06
   0      8    10.205    16.381    0.44E-03    0.15E-03    0.55E-07
   0      8    10.205     5.611    0.31E-03    0.11E-03    0.40E-07
   2      7    10.205     4.652    0.50E-03    0.47E-03    0.57E-07
 Optimization of the real space projectors (new method)

 maximal supplied QI-value         = 16.25
 optimisation between [QCUT,QGAM] = [ 10.24, 20.48] = [ 29.35,117.42] Ry 
 Optimized for a Real-space Cutoff    1.34 Angstroem

   l    n(q)    QCUT    max X(q) W(low)/X(q) W(high)/X(q)  e(spline) 
   1      8    10.239     3.658    0.23E-03    0.30E-03    0.98E-07
   1      8    10.239     5.612    0.32E-03    0.65E-03    0.21E-06
   2      7    10.239    55.373    0.42E-03    0.45E-03    0.65E-07
   2      7    10.239    50.863    0.43E-03    0.48E-03    0.67E-07
   0      8    10.239    79.536    0.11E-03    0.21E-03    0.56E-07
   0      8    10.239    38.668    0.96E-04    0.19E-03    0.52E-07
 Optimization of the real space projectors (new method)

 maximal supplied QI-value         = 24.76
 optimisation between [QCUT,QGAM] = [ 10.15, 20.30] = [ 28.85,115.39] Ry 
 Optimized for a Real-space Cutoff    1.38 Angstroem

   l    n(q)    QCUT    max X(q) W(low)/X(q) W(high)/X(q)  e(spline) 
   0      8    10.150    20.381    0.22E-03    0.32E-03    0.29E-06
   0      8    10.150    15.268    0.23E-03    0.35E-03    0.30E-06
   1      8    10.150     5.964    0.46E-03    0.53E-03    0.21E-06
   1      8    10.150     5.382    0.38E-03    0.45E-03    0.19E-06
  PAW_PBE Na_pv 19Sep2006               :
 energy of atom  1       EATOM= -766.0439
 kinetic energy error for atom=    0.0103 (will be added to EATOM!!)
  PAW_PBE Mg_pv 13Apr2007               :
 energy of atom  2       EATOM=-1056.7344
 kinetic energy error for atom=    0.0820 (will be added to EATOM!!)
  PAW_PBE Mn_pv 02Aug2007               :
 energy of atom  3       EATOM=-2025.2664
 kinetic energy error for atom=    0.0284 (will be added to EATOM!!)
  PAW_PBE O 08Apr2002                   :
 energy of atom  4       EATOM= -432.3788
 kinetic energy error for atom=    0.1156 (will be added to EATOM!!)
 
 
 POSCAR: Na Mg Mn  O                             
  positions in cartesian coordinates
  No initial velocities read in

 METAGGA = SCAN     LMAXTAU =  6    LMIXTAU =  F

 exchange correlation table for  LEXCH =        8
   RHO(1)=    0.500       N(1)  =     2000
   RHO(2)=  100.500       N(2)  =     4000

 VTST: version 3.2, (02/03/18)

 CHAIN: initializing optimizer
 
 OPT: Using VASP Dynamics algorithm
 CHAIN: Read ICHAIN            0
 
 POSCAR: Na Mg Mn  O                             
  positions in cartesian coordinates
  No initial velocities read in
 


--------------------------------------------------------------------------------------------------------


 ion  position               nearest neighbor table
   1  0.084  0.689  0.244-  67 2.28
   2  0.600  0.856  0.752-  56 2.31  59 2.35
   3  0.383  0.499  0.750-  80 2.29  85 2.37
   4  0.175  0.113  0.745-  58 2.23  44 2.24  47 2.28  61 2.34  27 2.95
   5  0.381  0.131  0.252-  42 2.20  51 2.25  28 2.83  26 2.91
   6  0.889  0.329  0.245-  53 2.28
   7  0.892  0.165  0.744-  56 2.32  57 2.32  32 2.80  30 2.94
   8  0.862  0.693  0.745-  72 2.24  69 2.25  68 2.27  71 2.32  36 2.82  34 2.92
   9  0.098  0.196  0.246-  55 2.27  64 2.33  41 2.35
  10  0.898  0.861  0.252-  54 2.24  63 2.30
  11  0.588  0.493  0.245-  43 2.22  74 2.33  33 2.85  35 2.90
  12  0.398  0.991  0.759-  84 2.30  47 2.31
  13  0.085  0.544  0.760-  73 2.13  70 2.30  37 2.82
  14  0.590  0.345  0.744-  68 2.30
  15  0.396  0.674  0.256-  86 2.30  77 2.34  40 2.80  38 2.89
  16  0.611  0.010  0.245-  53 2.13  79 2.26  62 2.30  29 2.71  31 2.92
  17  0.736  0.346  0.007-  43 1.98  66 2.00  60 2.03  49 2.07  71 2.12  53 2.12  33 2.78
  18  0.748  0.328  0.503-  62 1.99  46 2.04  75 2.07  57 2.07  52 2.07  68 2.23  32 2.79
  19  0.247  0.329  0.995-  48 2.00  61 2.01  41 2.01  83 2.03  55 2.12  26 2.73  25 2.82
  20  0.230  0.330  0.497-  64 2.00  58 2.00  50 2.03  87 2.04  45 2.08  80 2.10  32 2.67  27 2.84

  21  0.242  0.841  0.987-  47 1.93  73 1.93  67 2.06  84 2.06  77 2.13  42 2.16  29 2.85  25 2.85

  22  0.250  0.847  0.503-  44 1.98  51 2.02  81 2.04  86 2.11  70 2.11  76 2.16  28 2.82
  23  0.736  0.845  0.003-  79 2.00  54 2.01  59 2.03  65 2.05  72 2.16  85 2.18  30 2.81  29 2.86

  24  0.742  0.832  0.498-  69 1.91  88 2.00  74 2.05  56 2.10  82 2.11  63 2.14  31 2.81  36 2.83

  25  0.078  0.005  0.996-  61 1.88  72 1.89  41 1.91  47 1.92  54 2.01  67 2.01  19 2.82  34 2.85
                            21 2.85  26 2.85  30 2.89
  26  0.407  0.174  0.995-  42 1.90  49 1.91  48 1.93  43 1.95  41 1.97  47 2.05  19 2.73  25 2.85
                            29 2.86   5 2.91  33 2.91
  27  0.074  0.002  0.500-  69 1.86  50 1.88  63 1.89  58 1.93  44 1.97  76 1.97  36 2.84  20 2.84
                            32 2.87  28 2.92   4 2.95
  28  0.410  0.173  0.502-  52 1.84  51 1.89  46 1.90  44 1.91  45 1.95  50 1.96  22 2.82   5 2.83
                            35 2.84  27 2.92  31 3.03
  29  0.570  0.009  0.006-  42 1.88  53 1.91  59 1.94  79 1.96  84 1.96  49 1.97  16 2.71  21 2.85
                            23 2.86  26 2.86  38 2.92  30 2.93
  30  0.908  0.169  0.005-  60 1.91  61 1.92  59 1.93  54 1.94  55 1.99  53 2.03  23 2.81  25 2.89
                            29 2.93  37 2.94   7 2.94
  31  0.584  0.998  0.504-  56 1.75  81 1.87  62 1.90  88 1.91  46 2.01  51 2.02  24 2.81  40 2.88
                            16 2.92  32 2.94  28 3.03
  32  0.922  0.181  0.495-  57 1.81  58 1.87  63 1.89  64 1.92  62 1.97  56 2.10  20 2.67  18 2.79
                             7 2.80  39 2.86  27 2.87  31 2.94
  33  0.579  0.510  0.992-  71 1.86  65 1.88  85 1.90  78 1.91  43 1.94  48 1.97  17 2.78  11 2.85
                            34 2.90  26 2.91  38 2.91
  34  0.913  0.677  1.000-  67 1.83  66 1.88  65 1.91  73 1.93  72 1.94  71 1.95  25 2.85  33 2.90
                             8 2.92  37 2.93
  35  0.573  0.501  0.504-  52 1.87  68 1.89  87 1.92  74 1.93  45 1.95  82 1.97  40 2.82  28 2.84
                            11 2.90  36 2.93
  36  0.911  0.675  0.499-  76 1.84  69 1.86  70 1.88  75 1.99  68 2.01  74 2.01   8 2.82  24 2.83
                            27 2.84  39 2.88  35 2.93
  37  0.080  0.507  0.009-  83 1.85  77 1.89  55 1.94  60 1.96  66 1.96  73 1.99  13 2.82  38 2.84
                            34 2.93  30 2.94
  38  0.407  0.672  0.998-  83 1.87  78 1.88  85 1.89  77 1.89  84 1.94  79 1.96  37 2.84  15 2.89
                            33 2.91  29 2.92
  39  0.077  0.510  0.493-  86 1.81  75 1.91  57 1.94  64 1.98  70 2.00  80 2.00  32 2.86  36 2.88
                            40 2.92
  40  0.413  0.666  0.505-  82 1.82  81 1.91  80 1.91  87 1.92  88 1.94  86 2.03  15 2.80  35 2.82
                            31 2.88  39 2.92
  41  0.237  0.157  0.094-  25 1.91  26 1.97  19 2.01   9 2.35
  42  0.418  0.025  0.093-  29 1.88  26 1.90  21 2.16   5 2.20
  43  0.561  0.343  0.091-  33 1.94  26 1.95  17 1.98  11 2.22
  44  0.246  0.015  0.594-  28 1.91  27 1.97  22 1.98   4 2.24
  45  0.409  0.336  0.596-  35 1.95  28 1.95  20 2.08
  46  0.563  0.160  0.593-  28 1.90  31 2.01  18 2.04
  47  0.233  0.001  0.898-  25 1.92  21 1.93  26 2.05   4 2.28  12 2.31
  48  0.419  0.339  0.898-  26 1.93  33 1.97  19 2.00
  49  0.568  0.169  0.907-  26 1.91  29 1.97  17 2.07
  50  0.236  0.155  0.410-  27 1.88  28 1.96  20 2.03
  51  0.424  0.021  0.411-  28 1.89  31 2.02  22 2.02   5 2.25
  52  0.567  0.335  0.421-  28 1.84  35 1.87  18 2.07
  53  0.733  0.161  0.102-  29 1.91  30 2.03  17 2.12  16 2.13   6 2.28
  54  0.914  0.008  0.097-  30 1.94  25 2.01  23 2.01  10 2.24
  55  0.075  0.338  0.099-  37 1.94  30 1.99  19 2.12   9 2.27
  56  0.734  0.010  0.592-  31 1.75  32 2.10  24 2.10   2 2.31   7 2.32
  57  0.935  0.335  0.588-  32 1.81  39 1.94  18 2.07   7 2.32
  58  0.062  0.159  0.592-  32 1.87  27 1.93  20 2.00   4 2.23
  59  0.737  0.020  0.910-  30 1.93  29 1.94  23 2.03   2 2.35
  60  0.910  0.337  0.923-  30 1.91  37 1.96  17 2.03
  61  0.063  0.159  0.912-  25 1.88  30 1.92  19 2.01   4 2.34
  62  0.740  0.155  0.409-  31 1.90  32 1.97  18 1.99  16 2.30
  63  0.927  0.023  0.407-  27 1.89  32 1.89  24 2.14  10 2.30
  64  0.072  0.342  0.397-  32 1.92  39 1.98  20 2.00   9 2.33
  65  0.741  0.664  0.083-  33 1.88  34 1.91  23 2.05
  66  0.914  0.520  0.091-  34 1.88  37 1.96  17 2.00
  67  0.066  0.828  0.090-  34 1.83  25 2.01  21 2.06   1 2.28
  68  0.737  0.517  0.599-  35 1.89  36 2.01  18 2.23   8 2.27  14 2.30
  69  0.912  0.838  0.580-  36 1.86  27 1.86  24 1.91   8 2.25
  70  0.062  0.666  0.594-  36 1.88  39 2.00  22 2.11  13 2.30
  71  0.743  0.525  0.903-  33 1.86  34 1.95  17 2.12   8 2.32
  72  0.922  0.844  0.906-  25 1.89  34 1.94  23 2.16   8 2.24
  73  0.072  0.667  0.909-  34 1.93  21 1.93  37 1.99  13 2.13
  74  0.731  0.653  0.402-  35 1.93  36 2.01  24 2.05  11 2.33
  75  0.913  0.509  0.404-  39 1.91  36 1.99  18 2.07
  76  0.056  0.829  0.405-  36 1.84  27 1.97  22 2.16
  77  0.248  0.667  0.093-  37 1.89  38 1.89  21 2.13  15 2.34
  78  0.438  0.534  0.091-  38 1.88  33 1.91
  79  0.562  0.838  0.097-  38 1.96  29 1.96  23 2.00  16 2.26
  80  0.242  0.514  0.595-  40 1.91  39 2.00  20 2.10   3 2.29
  81  0.424  0.836  0.589-  31 1.87  40 1.91  22 2.04
  82  0.558  0.659  0.598-  40 1.82  35 1.97  24 2.11
  83  0.238  0.510  0.922-  37 1.85  38 1.87  19 2.03
  84  0.425  0.842  0.902-  38 1.94  29 1.96  21 2.06  12 2.30
  85  0.553  0.655  0.903-  38 1.89  33 1.90  23 2.18   3 2.37
  86  0.237  0.659  0.410-  39 1.81  40 2.03  22 2.11  15 2.30
  87  0.414  0.505  0.412-  40 1.92  35 1.92  20 2.04
  88  0.569  0.833  0.410-  31 1.91  40 1.94  24 2.00
 
  LATTYP: Found a hexagonal cell.
 ALAT       =    10.0190000534
 C/A-ratio  =     1.1196726572
  
  Lattice vectors:
  
 A1 = (  10.0190000534,   0.0000000000,   0.0000000000)
 A2 = (  -5.0095000267,   8.6767085668,   0.0000000000)
 A3 = (   0.0000000000,   0.0000000000,  11.2180004120)


Analysis of symmetry for initial positions (statically):
=====================================================================
 Subroutine PRICEL returns:
 Original cell was already a primitive cell.
 

 Routine SETGRP: Setting up the symmetry group for a 
 hexagonal supercell.


 Subroutine GETGRP returns: Found  1 space group operations
 (whereof  1 operations were pure point group operations)
 out of a pool of 24 trial point group operations.


The static configuration has the point symmetry C_1 .


Analysis of symmetry for dynamics (positions and initial velocities):
=====================================================================
 Subroutine PRICEL returns:
 Original cell was already a primitive cell.
 

 Routine SETGRP: Setting up the symmetry group for a 
 hexagonal supercell.


 Subroutine GETGRP returns: Found  1 space group operations
 (whereof  1 operations were pure point group operations)
 out of a pool of 24 trial point group operations.


The dynamic configuration has the point symmetry C_1 .


Analysis of structural, dynamic, and magnetic symmetry:
=====================================================================
 Subroutine PRICEL returns:
 Original cell was already a primitive cell.
 

 Routine SETGRP: Setting up the symmetry group for a 
 hexagonal supercell.


 Subroutine GETGRP returns: Found  1 space group operations
 (whereof  1 operations were pure point group operations)
 out of a pool of 24 trial point group operations.


The magnetic configuration has the point symmetry C_1 .


 Subroutine INISYM returns: Found  1 space group operations
 (whereof  1 operations are pure point group operations),
 and found     1 'primitive' translations

 
 

Automatic generation of k-mesh.
 generate k-points for:    2    2    2
Space group operators:
 irot       det(A)        alpha          n_x          n_y          n_z        tau_x        tau_y        tau_z
    1     1.000000     0.000000     1.000000     0.000000     0.000000     0.000000     0.000000     0.000000
 
 Subroutine IBZKPT returns following result:
 ===========================================
 
 Found      8 irreducible k-points:
 
 Following reciprocal coordinates:
            Coordinates               Weight
  0.000000  0.000000  0.000000      1.000000
  0.500000 -0.000000 -0.000000      1.000000
  0.000000  0.500000  0.000000      1.000000
  0.500000  0.500000 -0.000000      1.000000
  0.000000  0.000000  0.500000      1.000000
  0.500000 -0.000000  0.500000      1.000000
  0.000000  0.500000  0.500000      1.000000
  0.500000  0.500000  0.500000      1.000000
 
 Following cartesian coordinates:
            Coordinates               Weight
  0.000000  0.000000  0.000000      1.000000
  0.049905  0.028813 -0.000000      1.000000
  0.000000  0.057626  0.000000      1.000000
  0.049905  0.086438 -0.000000      1.000000
  0.000000  0.000000  0.044571      1.000000
  0.049905  0.028813  0.044571      1.000000
  0.000000  0.057626  0.044571      1.000000
  0.049905  0.086438  0.044571      1.000000
 


--------------------------------------------------------------------------------------------------------




 Dimension of arrays:
   k-points           NKPTS =      8   k-points in BZ     NKDIM =      8   number of bands    NBANDS=    480
   number of dos      NEDOS =    301   number of ions     NIONS =     88
   non local maximal  LDIM  =      6   non local SUM 2l+1 LMDIM =     18
   total plane-waves  NPLWV = 140000
   max r-space proj   IRMAX =   1632   max aug-charges    IRDMAX=   4555
   dimension x,y,z NGX =    50 NGY =   50 NGZ =   56
   dimension x,y,z NGXF=   100 NGYF=  100 NGZF=  112
   support grid    NGXF=   100 NGYF=  100 NGZF=  112
   ions per type =              16   8  16  48
   NGX,Y,Z   is equivalent  to a cutoff of   8.30,  8.30,  8.30 a.u.
   NGXF,Y,Z  is equivalent  to a cutoff of  16.59, 16.59, 16.60 a.u.

 SYSTEM =  unknown system                          
 POSCAR =  Na Mg Mn  O                             

 Startparameter for this run:
   NWRITE =      2    write-flag & timer
   PREC   = normal    normal or accurate (medium, high low for compatibility)
   ISTART =      0    job   : 0-new  1-cont  2-samecut
   ICHARG =      1    charge: 1-file 2-atom 10-const
   ISPIN  =      2    spin polarized calculation?
   LNONCOLLINEAR =      F non collinear calculations
   LSORBIT =      F    spin-orbit coupling
   INIWAV =      1    electr: 0-lowe 1-rand  2-diag
   LASPH  =      T    aspherical Exc in radial PAW
   METAGGA=      F    non-selfconsistent MetaGGA calc.

 Electronic Relaxation 1
   ENCUT  =  400.0 eV  29.40 Ry    5.42 a.u.  16.34 16.34 18.29*2*pi/ulx,y,z
   ENINI  =  400.0     initial cutoff
   ENAUG  =  758.8 eV  augmentation charge cutoff
   NELM   =    200;   NELMIN=  6; NELMDL=-12     # of ELM steps 
   EDIFF  = 0.1E-04   stopping-criterion for ELM
   LREAL  =      T    real-space projection
   NLSPLINE    = F    spline interpolate recip. space projectors
   LCOMPAT=      F    compatible to vasp.4.4
   GGA_COMPAT  = T    GGA compatible to vasp.4.4-vasp.4.6
   LMAXPAW     = -100 max onsite density
   LMAXMIX     =    4 max onsite mixed and CHGCAR
   VOSKOWN=      0    Vosko Wilk Nusair interpolation
   ROPT   =   -0.00050  -0.00050  -0.00050  -0.00050
 Ionic relaxation
   EDIFFG = 0.1E-03   stopping-criterion for IOM
   NSW    =      1    number of steps for IOM
   NBLOCK =      1;   KBLOCK =      1    inner block; outer block 
   IBRION =     -1    ionic relax: 0-MD 1-quasi-New 2-CG
   NFREE  =      0    steps in history (QN), initial steepest desc. (CG)
   ISIF   =      2    stress and relaxation
   IWAVPR =     10    prediction:  0-non 1-charg 2-wave 3-comb
   ISYM   =      2    0-nonsym 1-usesym 2-fastsym
   LCORR  =      T    Harris-Foulkes like correction to forces

   POTIM  = 0.5000    time-step for ionic-motion
   TEIN   =    0.0    initial temperature
   TEBEG  =    0.0;   TEEND  =   0.0 temperature during run
   SMASS  =  -3.00    Nose mass-parameter (am)
   estimated Nose-frequenzy (Omega)   =  0.10E-29 period in steps =****** mass=  -0.229E-26a.u.
   SCALEE = 1.0000    scale energy and forces
   NPACO  =    256;   APACO  = 16.0  distance and # of slots for P.C.
   PSTRESS=    0.0 pullay stress

  Mass of Ions in am
   POMASS =  22.99 24.30 54.94 16.00
  Ionic Valenz
   ZVAL   =   7.00  8.00 13.00  6.00
  Atomic Wigner-Seitz radii
   RWIGS  =  -1.00 -1.00 -1.00 -1.00
  virtual crystal weights 
   VCA    =   1.00  1.00  1.00  1.00
   NELECT =     672.0000    total number of electrons
   NUPDOWN=      48.0000    fix difference up-down

 DOS related values:
   EMIN   =  10.00;   EMAX   =-10.00  energy-range for DOS
   EFERMI =   0.00
   ISMEAR =     0;   SIGMA  =   0.05  broadening in eV -4-tet -1-fermi 0-gaus

 Electronic relaxation 2 (details)
   IALGO  =     48    algorithm
   LDIAG  =      T    sub-space diagonalisation (order eigenvalues)
   LSUBROT=      F    optimize rotation matrix (better conditioning)
   TURBO    =      0    0=normal 1=particle mesh
   IRESTART =      0    0=no restart 2=restart with 2 vectors
   NREBOOT  =      0    no. of reboots
   NMIN     =      0    reboot dimension
   EREF     =   0.00    reference energy to select bands
   IMIX   =      4    mixing-type and parameters
     AMIX     =   0.40;   BMIX     =  1.00
     AMIX_MAG =   1.60;   BMIX_MAG =  1.00
     AMIN     =   0.10
     WC   =   100.;   INIMIX=   1;  MIXPRE=   1;  MAXMIX= -45

 Intra band minimization:
   WEIMIN = 0.0000     energy-eigenvalue tresh-hold
   EBREAK =  0.52E-08  absolut break condition
   DEPER  =   0.30     relativ break condition  

   TIME   =   0.40     timestep for ELM

  volume/ion in A,a.u.               =      11.08        74.78
  Fermi-wavevector in a.u.,A,eV,Ry     =   1.445993  2.732531 28.448379  2.090897
  Thomas-Fermi vector in A             =   2.564112
 
 Write flags
   LWAVE        =      F    write WAVECAR
   LDOWNSAMPLE  =      F    k-point downsampling of WAVECAR
   LCHARG       =      F    write CHGCAR
   LVTOT        =      F    write LOCPOT, total local potential
   LVHAR        =      F    write LOCPOT, Hartree potential only
   LELF         =      F    write electronic localiz. function (ELF)
   LORBIT       =     11    0 simple, 1 ext, 2 COOP (PROOUT), +10 PAW based schemes


 Dipole corrections
   LMONO  =      F    monopole corrections only (constant potential shift)
   LDIPOL =      F    correct potential (dipole corrections)
   IDIPOL =      0    1-x, 2-y, 3-z, 4-all directions 
   EPSILON=  1.0000000 bulk dielectric constant

 Exchange correlation treatment:
   GGA     =    --    GGA type
   LEXCH   =     8    internal setting for exchange type
   VOSKOWN=      0    Vosko Wilk Nusair interpolation
   LHFCALC =     F    Hartree Fock is set to
   LHFONE  =     F    Hartree Fock one center treatment
   AEXX    =    0.0000 exact exchange contribution

 Linear response parameters
   LEPSILON=     F    determine dielectric tensor
   LRPA    =     F    only Hartree local field effects (RPA)
   LNABLA  =     F    use nabla operator in PAW spheres
   LVEL    =     F    velocity operator in full k-point grid
   LINTERFAST=   F  fast interpolation
   KINTER  =     0    interpolate to denser k-point grid
   CSHIFT  =0.1000    complex shift for real part using Kramers Kronig
   OMEGAMAX=  -1.0    maximum frequency
   DEG_THRESHOLD= 0.2000000E-02 threshold for treating states as degnerate
   RTIME   =   -0.100 relaxation time in fs
  (WPLASMAI=    0.000 imaginary part of plasma frequency in eV, 0.658/RTIME)
   DFIELD  = 0.0000000 0.0000000 0.0000000 field for delta impulse in time
 
 Orbital magnetization related:
   ORBITALMAG=     F  switch on orbital magnetization
   LCHIMAG   =     F  perturbation theory with respect to B field
   DQ        =  0.001000  dq finite difference perturbation B field
   LLRAUG    =     F  two centre corrections for induced B field



--------------------------------------------------------------------------------------------------------


 Static calculation
 charge density and potential will be updated during run
 spin polarized calculation
 RMM-DIIS sequential band-by-band
 perform sub-space diagonalisation
    before iterative eigenvector-optimisation
 modified Broyden-mixing scheme, WC =      100.0
 initial mixing is a Kerker type mixing with AMIX =  0.4000 and BMIX =      1.0000
 Hartree-type preconditioning will be used
 using additional bands          144
 real space projection scheme for non local part
 use partial core corrections
 calculate Harris-corrections to forces 
   (improved forces if not selfconsistent)
 use gradient corrections 
 use of overlap-Matrix (Vanderbilt PP)
 Gauss-broadening in eV      SIGMA  =   0.05


--------------------------------------------------------------------------------------------------------


  energy-cutoff  :      400.00
  volume of cell :      975.20
      direct lattice vectors                 reciprocal lattice vectors
    10.019000053  0.000000000  0.000000000     0.099810360  0.057625538 -0.000000000
    -5.009500027  8.676708567  0.000000000     0.000000000  0.115251076  0.000000000
     0.000000000  0.000000000 11.218000412     0.000000000  0.000000000  0.089142446

  length of vectors
    10.019000053 10.019000053 11.218000412     0.115251076  0.115251076  0.089142446


 
 k-points in units of 2pi/SCALE and weight: read from INCAR                         
   0.00000000  0.00000000  0.00000000       0.125
   0.04990518  0.02881277 -0.00000000       0.125
   0.00000000  0.05762554  0.00000000       0.125
   0.04990518  0.08643831 -0.00000000       0.125
   0.00000000  0.00000000  0.04457122       0.125
   0.04990518  0.02881277  0.04457122       0.125
   0.00000000  0.05762554  0.04457122       0.125
   0.04990518  0.08643831  0.04457122       0.125
 
 k-points in reciprocal lattice and weights: read from INCAR                         
   0.00000000  0.00000000  0.00000000       0.125
   0.50000000 -0.00000000 -0.00000000       0.125
   0.00000000  0.50000000  0.00000000       0.125
   0.50000000  0.50000000 -0.00000000       0.125
   0.00000000  0.00000000  0.50000000       0.125
   0.50000000 -0.00000000  0.50000000       0.125
   0.00000000  0.50000000  0.50000000       0.125
   0.50000000  0.50000000  0.50000000       0.125
 
 position of ions in fractional coordinates (direct lattice) 
   0.08448506  0.68900205  0.24393206
   0.60031890  0.85594472  0.75198874
   0.38341309  0.49889524  0.74980297
   0.17537892  0.11310938  0.74481099
   0.38134773  0.13091584  0.25195132
   0.88855433  0.32896016  0.24452843
   0.89220104  0.16493911  0.74351664
   0.86165333  0.69276467  0.74486804
   0.09818715  0.19599499  0.24588785
   0.89844242  0.86070360  0.25199500
   0.58849354  0.49338591  0.24522641
   0.39752280  0.99147241  0.75897573
   0.08547211  0.54449449  0.75963181
   0.58966034  0.34546494  0.74442679
   0.39641556  0.67423246  0.25590033
   0.61072047  0.00950364  0.24499197
   0.73589741  0.34638711  0.00735983
   0.74821048  0.32770952  0.50336511
   0.24729174  0.32949476  0.99503053
   0.23012860  0.32967570  0.49736761
   0.24248955  0.84144580  0.98706539
   0.25029479  0.84724293  0.50331697
   0.73592221  0.84548650  0.00304875
   0.74192128  0.83242625  0.49789355
   0.07781862  0.00510925  0.99642346
   0.40674253  0.17431149  0.99501179
   0.07374290  0.00198825  0.49987073
   0.41003325  0.17277635  0.50217506
   0.57005721  0.00869932  0.00606165
   0.90805527  0.16863076  0.00503651
   0.58364118  0.99755684  0.50439292
   0.92190457  0.18087273  0.49540915
   0.57935046  0.50968405  0.99209656
   0.91329359  0.67718305  0.99969912
   0.57321961  0.50055041  0.50356657
   0.91054036  0.67500827  0.49925921
   0.08011519  0.50685579  0.00944509
   0.40655856  0.67236556  0.99825187
   0.07664499  0.50981659  0.49290870
   0.41267320  0.66551388  0.50466035
   0.23711089  0.15736382  0.09414066
   0.41796304  0.02516853  0.09295953
   0.56093258  0.34316469  0.09115528
   0.24617504  0.01530845  0.59364858
   0.40928883  0.33593268  0.59603403
   0.56271531  0.16012869  0.59326972
   0.23263088  0.00107173  0.89831517
   0.41924919  0.33910324  0.89796752
   0.56774004  0.16919204  0.90680154
   0.23557358  0.15487209  0.40960865
   0.42422722  0.02121818  0.41148956
   0.56691417  0.33525962  0.42055623
   0.73262064  0.16085362  0.10158317
   0.91354287  0.00798005  0.09702175
   0.07506719  0.33841865  0.09898377
   0.73394408  0.01026765  0.59153947
   0.93510243  0.33478017  0.58834817
   0.06181165  0.15880446  0.59163396
   0.73749540  0.02047839  0.91042072
   0.91020116  0.33705869  0.92333746
   0.06322475  0.15926316  0.91163306
   0.73958532  0.15480294  0.40914065
   0.92729637  0.02258956  0.40705026
   0.07212974  0.34216546  0.39653680
   0.74063789  0.66397067  0.08268996
   0.91429108  0.52038973  0.09115528
   0.06622365  0.82819539  0.09015600
   0.73659743  0.51739089  0.59878586
   0.91180166  0.83812772  0.57956229
   0.06154738  0.66601522  0.59353269
   0.74288851  0.52545962  0.90279013
   0.92152165  0.84372201  0.90618645
   0.07230824  0.66724150  0.90943124
   0.73127238  0.65287314  0.40240772
   0.91331975  0.50870557  0.40406221
   0.05612600  0.82864487  0.40470938
   0.24752022  0.66741552  0.09290961
   0.43831241  0.53442500  0.09124264
   0.56226413  0.83791681  0.09724282
   0.24237696  0.51428142  0.59476732
   0.42372917  0.83596792  0.58918165
   0.55828786  0.65867373  0.59776072
   0.23792358  0.50984656  0.92188444
   0.42482138  0.84152302  0.90169367
   0.55307427  0.65546284  0.90267424
   0.23724585  0.65861726  0.40972453
   0.41359709  0.50492649  0.41156889
   0.56879785  0.83268903  0.40973256
 
 position of ions in cartesian coordinates  (Angst):
  -2.60509995  5.97827000  2.73643000
   1.72674005  7.42678287  8.43581000
   1.34220008  4.32876857  8.41129000
   1.19049995  0.98141713  8.35529000
   3.16490008  1.13591857  2.82639000
   7.25449992  2.85429143  2.74312000
   8.11269976  1.43112857  8.34077000
   5.16250011  6.01091713  8.35593000
   0.00190013  1.70059143  2.75837000
   4.68979992  7.46807430  2.82688000
   3.42450011  4.28096573  2.75095000
  -0.98400011  8.60271713  8.51419000
  -1.87130011  4.72442000  8.52155000
   4.17720040  2.99749857  8.35098000
   0.59412003  5.85011857  2.87069000
   6.07119995  0.08246030  2.74832000
   5.63773000  3.00550000  0.08256260
   5.85466000  2.84344000  5.64675000
   0.82701200  2.85893000 11.16225291
   0.65414800  2.86050000  5.57947000
  -1.78572000  7.30098000 11.07290000
  -1.73656000  7.35128000  5.64621000
   3.13774000  7.33604000  0.03420090
   3.26327000  7.22272000  5.58537000
   0.75406997  0.04433143 11.17787881
   3.20194000  1.51245000 11.16204271
   0.72886997  0.01725143  5.60755000
   3.24260000  1.49913000  5.63340000
   5.66782403  0.07548143  0.06799959
   8.25305000  1.46316000  0.05649959
   0.85024000  8.65551000  5.65828000
   8.33048000  1.56938000  5.55750000
   3.25125000  4.42238000 11.12933961
   5.75794000  5.87572000 11.21462518
   3.23558000  4.34313000  5.64901000
   5.74125000  5.85685000  5.60069000
  -1.73642005  4.39784000  0.10595500
   0.70509500  5.83392000 11.19838991
  -1.78602005  4.42353000  5.52945000
   0.80068100  5.77447000  5.66128000
   1.58730000  1.36540000  1.05607000
   4.06149000  0.21838000  1.04282000
   3.90090000  2.97754000  1.02258000
   2.38974000  0.13282700  6.65955000
   2.41781000  2.91479000  6.68631000
   4.83568000  1.38939000  6.65530000
   2.32536000  0.00929910 10.07730000
   2.50172000  2.94230000 10.07340000
   4.84062000  1.46803000 10.17250000
   1.58438000  1.34378000  4.59499000
   4.14404000  0.18410400  4.61609000
   4.00043000  2.90895000  4.71780000
   6.53433000  1.39568000  1.13956000
   9.11281000  0.06924060  1.08839000
  -0.94321005  2.93636000  1.11040000
   7.30195000  0.08908940  6.63589000
   7.69171000  2.90479000  6.60009000
  -0.17624005  1.37790000  6.63695000
   7.28638000  0.17768500 10.21310000
   7.43081000  2.92456000 10.35800000
  -0.16438005  1.38188000 10.22670000
   6.63442000  1.34318000  4.58974000
   9.17742000  0.19600300  4.56629000
  -0.99141005  2.96887000  4.44835000
   4.09429000  5.76108000  0.92761600
   6.55339000  4.51527000  1.02258000
  -3.48535005  7.18601000  1.01137000
   4.78810000  4.48925000  6.71718000
   4.93674000  7.27219000  6.50153000
  -2.71976005  5.77882000  6.65825000
   4.81071000  4.55926000 10.12750000
   5.00610000  7.32073000 10.16560000
  -2.61809005  5.78946000 10.20200000
   4.05605000  5.66479000  4.51421000
   6.60219000  4.41389000  4.53277000
  -3.58877005  7.18991000  4.54003000
  -0.86351300  5.79097000  1.04226000
   1.71425000  4.63705000  1.02356000
   1.43578000  7.27036000  1.09087000
  -0.14791800  4.46227000  6.67210000
   0.05756130  7.25345000  6.60944000
   2.29386000  5.71512000  6.70568000
  -0.17032000  4.42379000 10.34170000
   0.04067580  7.30165000 10.11520000
   2.25771000  5.68726000 10.12620000
  -0.92237700  5.71463000  4.59629000
   1.61440000  4.38110000  4.61698000
   1.52743000  7.22500000  4.59638000
 


--------------------------------------------------------------------------------------------------------


 k-point  1 :   0.0000 0.0000 0.0000  plane waves:   17725
 k-point  2 :   0.5000-0.0000-0.0000  plane waves:   17736
 k-point  3 :   0.0000 0.5000 0.0000  plane waves:   17736
 k-point  4 :   0.5000 0.5000-0.0000  plane waves:   17736
 k-point  5 :   0.0000 0.0000 0.5000  plane waves:   17676
 k-point  6 :   0.5000-0.0000 0.5000  plane waves:   17700
 k-point  7 :   0.0000 0.5000 0.5000  plane waves:   17700
 k-point  8 :   0.5000 0.5000 0.5000  plane waves:   17700

 maximum and minimum number of plane-waves per node :     17736    17676

 maximum number of plane-waves:     17736
 maximum index in each direction: 
   IXMAX=   16   IYMAX=   16   IZMAX=   18
   IXMIN=  -16   IYMIN=  -16   IZMIN=  -18


 serial   3D FFT for wavefunctions
 parallel 3D FFT for charge:
    minimum data exchange during FFTs selected (reduces bandwidth)


 total amount of memory used by VASP MPI-rank0    94425. kBytes
=======================================================================

   base      :      30000. kBytes
   nonlr-proj:      13666. kBytes
   fftplans  :       1275. kBytes
   grid      :      22786. kBytes
   one-center:       2737. kBytes
   wavefun   :      23961. kBytes
 
     INWAV:  cpu time    0.0000: real time    0.0001
 Broyden mixing: mesh for mixing (old mesh)
   NGX = 33   NGY = 33   NGZ = 37
  (NGX  =100   NGY  =100   NGZ  =112)
  gives a total of  40293 points

 initial charge density was supplied:
 charge density of overlapping atoms calculated
 number of electron     672.0000000 magnetization      48.0000000
 keeping initial charge density in first step


--------------------------------------------------------------------------------------------------------


 Maximum index for non-local projection operator         1548
 Maximum index for augmentation-charges          392 (set IRDMAX)


--------------------------------------------------------------------------------------------------------


 First call to EWALD:  gamma=   0.179
 Maximum number of real-space cells 3x 3x 2
 Maximum number of reciprocal cells 3x 3x 3

    FEWALD:  cpu time    0.0026: real time    0.0026


--------------------------------------- Iteration      1(   1)  ---------------------------------------


    POTLOK:  cpu time    0.1885: real time    0.1893
    SETDIJ:  cpu time    4.6610: real time    4.6662
    EDDIAG:  cpu time    4.3590: real time    4.7762
  RMM-DIIS:  cpu time    9.0464: real time    9.0670
    ORTHCH:  cpu time    1.1495: real time    1.2317
       DOS:  cpu time    0.0022: real time    0.0024
    --------------------------------------------
      LOOP:  cpu time   19.4067: real time   19.9329

 eigenvalue-minimisations  :  7680
 total energy-change (2. order) : 0.1582966E+04  (-0.3497143E+05)
 number of electron     672.0000000 magnetization      48.0000000
 augmentation part      672.0000000 magnetization      48.0000000

 Free energy of the ion-electron system (eV)
  ---------------------------------------------------
  alpha Z        PSCENC =      2652.81237852
  Ewald energy   TEWEN  =    -41674.61162370
  -Hartree energ DENC   =    -25924.62632568
  -exchange      EXHF   =         0.00000000
  -V(xc)+E(xc)   XCENC  =      3606.68363465
  PAW double counting   =     55594.23204139   -59034.67079123
  entropy T*S    EENTRO =        -0.05529975
  eigenvalues    EBANDS =     -7498.99574084
  atomic energy  EATOM  =     73862.19814772
  Solvation  Ediel_sol  =         0.00000000
  ---------------------------------------------------
  free energy    TOTEN  =      1582.96642108 eV

  energy without entropy =     1583.02172083  energy(sigma->0) =     1582.99407096


--------------------------------------------------------------------------------------------------------




--------------------------------------- Iteration      1(   2)  ---------------------------------------


    EDDIAG:  cpu time    4.3575: real time    4.7692
  RMM-DIIS:  cpu time    9.0391: real time    9.0907
    ORTHCH:  cpu time    1.1484: real time    1.2328
       DOS:  cpu time    0.0017: real time    0.0017
    --------------------------------------------
      LOOP:  cpu time   14.5468: real time   15.0944

 eigenvalue-minimisations  :  7680
 total energy-change (2. order) :-0.2300884E+04  (-0.8026402E+04)
 number of electron     672.0000000 magnetization      48.0000000
 augmentation part      672.0000000 magnetization      48.0000000

 Free energy of the ion-electron system (eV)
  ---------------------------------------------------
  alpha Z        PSCENC =      2652.81237852
  Ewald energy   TEWEN  =    -41674.61162370
  -Hartree energ DENC   =    -25924.62632568
  -exchange      EXHF   =         0.00000000
  -V(xc)+E(xc)   XCENC  =      3606.68363465
  PAW double counting   =     55594.23204139   -59034.67079123
  entropy T*S    EENTRO =        -0.03459387
  eigenvalues    EBANDS =     -9799.90001420
  atomic energy  EATOM  =     73862.19814772
  Solvation  Ediel_sol  =         0.00000000
  ---------------------------------------------------
  free energy    TOTEN  =      -717.91714640 eV

  energy without entropy =     -717.88255253  energy(sigma->0) =     -717.89984947


--------------------------------------------------------------------------------------------------------




--------------------------------------- Iteration      1(   3)  ---------------------------------------


    EDDIAG:  cpu time    4.3690: real time    4.7797
  RMM-DIIS:  cpu time    9.0634: real time    9.0694
    ORTHCH:  cpu time    1.1533: real time    1.2350
       DOS:  cpu time    0.0018: real time    0.0018
    --------------------------------------------
      LOOP:  cpu time   14.5874: real time   15.0858

 eigenvalue-minimisations  :  7680
 total energy-change (2. order) : 0.7339583E+02  (-0.1424781E+04)
 number of electron     672.0000000 magnetization      48.0000000
 augmentation part      672.0000000 magnetization      48.0000000

 Free energy of the ion-electron system (eV)
  ---------------------------------------------------
  alpha Z        PSCENC =      2652.81237852
  Ewald energy   TEWEN  =    -41674.61162370
  -Hartree energ DENC   =    -25924.62632568
  -exchange      EXHF   =         0.00000000
  -V(xc)+E(xc)   XCENC  =      3606.68363465
  PAW double counting   =     55594.23204139   -59034.67079123
  entropy T*S    EENTRO =        -0.03781740
  eigenvalues    EBANDS =     -9726.50096402
  atomic energy  EATOM  =     73862.19814772
  Solvation  Ediel_sol  =         0.00000000
  ---------------------------------------------------
  free energy    TOTEN  =      -644.52131975 eV

  energy without entropy =     -644.48350235  energy(sigma->0) =     -644.50241105


--------------------------------------------------------------------------------------------------------




--------------------------------------- Iteration      1(   4)  ---------------------------------------


    EDDIAG:  cpu time    4.3664: real time    4.7819
  RMM-DIIS:  cpu time    8.9857: real time    9.0933
    ORTHCH:  cpu time    1.1521: real time    1.2316
       DOS:  cpu time    0.0013: real time    0.0013
    --------------------------------------------
      LOOP:  cpu time   14.5056: real time   15.1081

 eigenvalue-minimisations  :  7680
 total energy-change (2. order) :-0.4669345E+03  (-0.4294300E+03)
 number of electron     672.0000000 magnetization      48.0000000
 augmentation part      672.0000000 magnetization      48.0000000

 Free energy of the ion-electron system (eV)
  ---------------------------------------------------
  alpha Z        PSCENC =      2652.81237852
  Ewald energy   TEWEN  =    -41674.61162370
  -Hartree energ DENC   =    -25924.62632568
  -exchange      EXHF   =         0.00000000
  -V(xc)+E(xc)   XCENC  =      3606.68363465
  PAW double counting   =     55594.23204139   -59034.67079123
  entropy T*S    EENTRO =        -0.00000000
  eigenvalues    EBANDS =    -10193.47326751
  atomic energy  EATOM  =     73862.19814772
  Solvation  Ediel_sol  =         0.00000000
  ---------------------------------------------------
  free energy    TOTEN  =     -1111.45580584 eV

  energy without entropy =    -1111.45580584  energy(sigma->0) =    -1111.45580584


--------------------------------------------------------------------------------------------------------




--------------------------------------- Iteration      1(   5)  ---------------------------------------


    EDDIAG:  cpu time    4.3844: real time    4.8053
  RMM-DIIS:  cpu time    9.0584: real time    9.0791
    ORTHCH:  cpu time    1.1484: real time    1.2309
       DOS:  cpu time    0.0014: real time    0.0014
    --------------------------------------------
      LOOP:  cpu time   14.5927: real time   15.1167

 eigenvalue-minimisations  :  7680
 total energy-change (2. order) :-0.1038715E+03  (-0.1595918E+03)
 number of electron     672.0000000 magnetization      48.0000000
 augmentation part      672.0000000 magnetization      48.0000000

 Free energy of the ion-electron system (eV)
  ---------------------------------------------------
  alpha Z        PSCENC =      2652.81237852
  Ewald energy   TEWEN  =    -41674.61162370
  -Hartree energ DENC   =    -25924.62632568
  -exchange      EXHF   =         0.00000000
  -V(xc)+E(xc)   XCENC  =      3606.68363465
  PAW double counting   =     55594.23204139   -59034.67079123
  entropy T*S    EENTRO =        -0.00000000
  eigenvalues    EBANDS =    -10297.34474477
  atomic energy  EATOM  =     73862.19814772
  Solvation  Ediel_sol  =         0.00000000
  ---------------------------------------------------
  free energy    TOTEN  =     -1215.32728310 eV

  energy without entropy =    -1215.32728310  energy(sigma->0) =    -1215.32728310


--------------------------------------------------------------------------------------------------------




--------------------------------------- Iteration      1(   6)  ---------------------------------------


    EDDIAG:  cpu time    4.3669: real time    4.7829
  RMM-DIIS:  cpu time    9.0335: real time    9.0785
    ORTHCH:  cpu time    1.1495: real time    1.2315
       DOS:  cpu time    0.0010: real time    0.0010
    --------------------------------------------
      LOOP:  cpu time   14.5509: real time   15.0939

 eigenvalue-minimisations  :  7680
 total energy-change (2. order) :-0.8959752E+01  (-0.7927829E+02)
 number of electron     672.0000000 magnetization      48.0000000
 augmentation part      672.0000000 magnetization      48.0000000

 Free energy of the ion-electron system (eV)
  ---------------------------------------------------
  alpha Z        PSCENC =      2652.81237852
  Ewald energy   TEWEN  =    -41674.61162370
  -Hartree energ DENC   =    -25924.62632568
  -exchange      EXHF   =         0.00000000
  -V(xc)+E(xc)   XCENC  =      3606.68363465
  PAW double counting   =     55594.23204139   -59034.67079123
  entropy T*S    EENTRO =        -0.00000000
  eigenvalues    EBANDS =    -10306.30449674
  atomic energy  EATOM  =     73862.19814772
  Solvation  Ediel_sol  =         0.00000000
  ---------------------------------------------------
  free energy    TOTEN  =     -1224.28703507 eV

  energy without entropy =    -1224.28703507  energy(sigma->0) =    -1224.28703507


--------------------------------------------------------------------------------------------------------




--------------------------------------- Iteration      1(   7)  ---------------------------------------


    EDDIAG:  cpu time    4.3845: real time    4.7856
  RMM-DIIS:  cpu time    9.0678: real time    9.0736
    ORTHCH:  cpu time    1.1519: real time    1.2334
       DOS:  cpu time    0.0015: real time    0.0015
    --------------------------------------------
      LOOP:  cpu time   14.6057: real time   15.0941

 eigenvalue-minimisations  :  7680
 total energy-change (2. order) :-0.1652476E+01  (-0.4819676E+02)
 number of electron     672.0000000 magnetization      48.0000000
 augmentation part      672.0000000 magnetization      48.0000000

 Free energy of the ion-electron system (eV)
  ---------------------------------------------------
  alpha Z        PSCENC =      2652.81237852
  Ewald energy   TEWEN  =    -41674.61162370
  -Hartree energ DENC   =    -25924.62632568
  -exchange      EXHF   =         0.00000000
  -V(xc)+E(xc)   XCENC  =      3606.68363465
  PAW double counting   =     55594.23204139   -59034.67079123
  entropy T*S    EENTRO =        -0.00000000
  eigenvalues    EBANDS =    -10307.95697299
  atomic energy  EATOM  =     73862.19814772
  Solvation  Ediel_sol  =         0.00000000
  ---------------------------------------------------
  free energy    TOTEN  =     -1225.93951132 eV

  energy without entropy =    -1225.93951132  energy(sigma->0) =    -1225.93951132


--------------------------------------------------------------------------------------------------------




--------------------------------------- Iteration      1(   8)  ---------------------------------------


    EDDIAG:  cpu time    4.3866: real time    4.7822
  RMM-DIIS:  cpu time    9.0244: real time    9.0680
    ORTHCH:  cpu time    1.1476: real time    1.2313
       DOS:  cpu time    0.0012: real time    0.0012
    --------------------------------------------
      LOOP:  cpu time   14.5599: real time   15.0827

 eigenvalue-minimisations  :  7680
 total energy-change (2. order) : 0.4998722E+01  (-0.2984922E+02)
 number of electron     672.0000000 magnetization      48.0000000
 augmentation part      672.0000000 magnetization      48.0000000

 Free energy of the ion-electron system (eV)
  ---------------------------------------------------
  alpha Z        PSCENC =      2652.81237852
  Ewald energy   TEWEN  =    -41674.61162370
  -Hartree energ DENC   =    -25924.62632568
  -exchange      EXHF   =         0.00000000
  -V(xc)+E(xc)   XCENC  =      3606.68363465
  PAW double counting   =     55594.23204139   -59034.67079123
  entropy T*S    EENTRO =        -0.00000000
  eigenvalues    EBANDS =    -10302.95825074
  atomic energy  EATOM  =     73862.19814772
  Solvation  Ediel_sol  =         0.00000000
  ---------------------------------------------------
  free energy    TOTEN  =     -1220.94078907 eV

  energy without entropy =    -1220.94078907  energy(sigma->0) =    -1220.94078907


--------------------------------------------------------------------------------------------------------




--------------------------------------- Iteration      1(   9)  ---------------------------------------


    EDDIAG:  cpu time    4.3753: real time    4.7806
  RMM-DIIS:  cpu time   19.0833: real time   19.1625
    ORTHCH:  cpu time    1.2113: real time    1.2934
       DOS:  cpu time    0.0012: real time    0.0012
    --------------------------------------------
      LOOP:  cpu time   24.6711: real time   25.2377

 eigenvalue-minimisations  : 21801
 total energy-change (2. order) : 0.9214726E+01  (-0.1316661E+02)
 number of electron     672.0000000 magnetization      48.0000000
 augmentation part      672.0000000 magnetization      48.0000000

 Free energy of the ion-electron system (eV)
  ---------------------------------------------------
  alpha Z        PSCENC =      2652.81237852
  Ewald energy   TEWEN  =    -41674.61162370
  -Hartree energ DENC   =    -25924.62632568
  -exchange      EXHF   =         0.00000000
  -V(xc)+E(xc)   XCENC  =      3606.68363465
  PAW double counting   =     55594.23204139   -59034.67079123
  entropy T*S    EENTRO =        -0.00000000
  eigenvalues    EBANDS =    -10293.74352447
  atomic energy  EATOM  =     73862.19814772
  Solvation  Ediel_sol  =         0.00000000
  ---------------------------------------------------
  free energy    TOTEN  =     -1211.72606280 eV

  energy without entropy =    -1211.72606280  energy(sigma->0) =    -1211.72606280


--------------------------------------------------------------------------------------------------------




--------------------------------------- Iteration      1(  10)  ---------------------------------------


    EDDIAG:  cpu time    4.3599: real time    4.7732
  RMM-DIIS:  cpu time   17.9637: real time   17.9894
    ORTHCH:  cpu time    1.1476: real time    1.2304
       DOS:  cpu time    0.0015: real time    0.0015
    --------------------------------------------
      LOOP:  cpu time   23.4727: real time   23.9944

 eigenvalue-minimisations  : 19710
 total energy-change (2. order) :-0.1882883E+01  (-0.5274206E+00)
 number of electron     672.0000000 magnetization      48.0000000
 augmentation part      672.0000000 magnetization      48.0000000

 Free energy of the ion-electron system (eV)
  ---------------------------------------------------
  alpha Z        PSCENC =      2652.81237852
  Ewald energy   TEWEN  =    -41674.61162370
  -Hartree energ DENC   =    -25924.62632568
  -exchange      EXHF   =         0.00000000
  -V(xc)+E(xc)   XCENC  =      3606.68363465
  PAW double counting   =     55594.23204139   -59034.67079123
  entropy T*S    EENTRO =        -0.00000000
  eigenvalues    EBANDS =    -10295.62640719
  atomic energy  EATOM  =     73862.19814772
  Solvation  Ediel_sol  =         0.00000000
  ---------------------------------------------------
  free energy    TOTEN  =     -1213.60894552 eV

  energy without entropy =    -1213.60894551  energy(sigma->0) =    -1213.60894551


--------------------------------------------------------------------------------------------------------




--------------------------------------- Iteration      1(  11)  ---------------------------------------


    EDDIAG:  cpu time    4.4310: real time    4.8596
  RMM-DIIS:  cpu time   19.6801: real time   19.7212
    ORTHCH:  cpu time    1.1489: real time    1.2309
       DOS:  cpu time    0.0011: real time    0.0011
    --------------------------------------------
      LOOP:  cpu time   25.2612: real time   25.8128

 eigenvalue-minimisations  : 22631
 total energy-change (2. order) : 0.6942384E-01  (-0.4339985E-01)
 number of electron     672.0000000 magnetization      48.0000000
 augmentation part      672.0000000 magnetization      48.0000000

 Free energy of the ion-electron system (eV)
  ---------------------------------------------------
  alpha Z        PSCENC =      2652.81237852
  Ewald energy   TEWEN  =    -41674.61162370
  -Hartree energ DENC   =    -25924.62632568
  -exchange      EXHF   =         0.00000000
  -V(xc)+E(xc)   XCENC  =      3606.68363465
  PAW double counting   =     55594.23204139   -59034.67079123
  entropy T*S    EENTRO =        -0.00000000
  eigenvalues    EBANDS =    -10295.55698335
  atomic energy  EATOM  =     73862.19814772
  Solvation  Ediel_sol  =         0.00000000
  ---------------------------------------------------
  free energy    TOTEN  =     -1213.53952168 eV

  energy without entropy =    -1213.53952168  energy(sigma->0) =    -1213.53952168


--------------------------------------------------------------------------------------------------------




--------------------------------------- Iteration      1(  12)  ---------------------------------------


    EDDIAG:  cpu time    4.3664: real time    4.7841
  RMM-DIIS:  cpu time   21.6983: real time   21.7515
    ORTHCH:  cpu time    1.1562: real time    1.2398
       DOS:  cpu time    0.0013: real time    0.0013
    CHARGE:  cpu time    1.7889: real time    1.7902
    MIXING:  cpu time    0.0029: real time    0.0031
    --------------------------------------------
      LOOP:  cpu time   29.0141: real time   29.5700

 eigenvalue-minimisations  : 24398
 total energy-change (2. order) :-0.7208374E-03  (-0.4245408E-02)
 number of electron     671.9999654 magnetization      48.0000022
 augmentation part      239.1590087 magnetization      29.0535687

 Broyden mixing:
  rms(total) = 0.12658E+02    rms(broyden)= 0.12649E+02
  rms(prec ) = 0.14491E+02
  weight for this iteration     100.00

 Free energy of the ion-electron system (eV)
  ---------------------------------------------------
  alpha Z        PSCENC =      2652.81237852
  Ewald energy   TEWEN  =    -41674.61162370
  -Hartree energ DENC   =    -25924.62632568
  -exchange      EXHF   =         0.00000000
  -V(xc)+E(xc)   XCENC  =      3606.68363465
  PAW double counting   =     55594.23204139   -59034.67079123
  entropy T*S    EENTRO =        -0.00000000
  eigenvalues    EBANDS =    -10295.55770419
  atomic energy  EATOM  =     73862.19814772
  Solvation  Ediel_sol  =         0.00000000
  ---------------------------------------------------
  free energy    TOTEN  =     -1213.54024252 eV

  energy without entropy =    -1213.54024252  energy(sigma->0) =    -1213.54024252


--------------------------------------------------------------------------------------------------------




--------------------------------------- Iteration      1(  13)  ---------------------------------------


    POTLOK:  cpu time    0.1734: real time    0.1735
    SETDIJ:  cpu time    5.0067: real time    5.0080
    EDDIAG:  cpu time    4.4016: real time    4.8193
  RMM-DIIS:  cpu time   17.4159: real time   17.4610
    ORTHCH:  cpu time    1.1445: real time    1.2282
       DOS:  cpu time    0.0023: real time    0.0023
    CHARGE:  cpu time    1.7895: real time    1.7937
    MIXING:  cpu time    0.0009: real time    0.0009
    --------------------------------------------
      LOOP:  cpu time   29.9349: real time   30.4868

 eigenvalue-minimisations  : 18792
 total energy-change (2. order) : 0.2279001E+03  (-0.1218667E+03)
 number of electron     671.9999620 magnetization      48.0000030
 augmentation part      268.8417707 magnetization      26.5487807

 Broyden mixing:
  rms(total) = 0.13931E+02    rms(broyden)= 0.13928E+02
  rms(prec ) = 0.15668E+02
  weight for this iteration     100.00

 eigenvalues of (default mixing * dielectric matrix)
  average eigenvalue GAMMA=   0.3195
  0.3195

 Free energy of the ion-electron system (eV)
  ---------------------------------------------------
  alpha Z        PSCENC =      2652.81237852
  Ewald energy   TEWEN  =    -41674.61162370
  -Hartree energ DENC   =    -25261.23876875
  -exchange      EXHF   =         0.00000000
  -V(xc)+E(xc)   XCENC  =      3697.10980595
  PAW double counting   =     59980.53361237   -63406.26717209
  entropy T*S    EENTRO =        -0.06610468
  eigenvalues    EBANDS =    -10836.11045903
  atomic energy  EATOM  =     73862.19814772
  Solvation  Ediel_sol  =         0.00000000
  ---------------------------------------------------
  free energy    TOTEN  =      -985.64018369 eV

  energy without entropy =     -985.57407901  energy(sigma->0) =     -985.60713135


--------------------------------------------------------------------------------------------------------




--------------------------------------- Iteration      1(  14)  ---------------------------------------


    POTLOK:  cpu time    0.1741: real time    0.1753
    SETDIJ:  cpu time    4.9956: real time    4.9998
    EDDIAG:  cpu time    4.4503: real time    4.8621
  RMM-DIIS:  cpu time   17.7858: real time   17.8068
    ORTHCH:  cpu time    1.1494: real time    1.2286
       DOS:  cpu time    0.0015: real time    0.0015
    CHARGE:  cpu time    1.7927: real time    1.7942
    MIXING:  cpu time    0.0009: real time    0.0009
    --------------------------------------------
      LOOP:  cpu time   30.3503: real time   30.8692

 eigenvalue-minimisations  : 19364
 total energy-change (2. order) : 0.6976956E+02  (-0.1779902E+02)
 number of electron     671.9999637 magnetization      48.0000049
 augmentation part      246.6859514 magnetization      32.1510069

 Broyden mixing:
  rms(total) = 0.53330E+01    rms(broyden)= 0.53288E+01
  rms(prec ) = 0.57633E+01
  weight for this iteration     100.00

 eigenvalues of (default mixing * dielectric matrix)
  average eigenvalue GAMMA=   0.7328
  1.1072  0.3584

 Free energy of the ion-electron system (eV)
  ---------------------------------------------------
  alpha Z        PSCENC =      2652.81237852
  Ewald energy   TEWEN  =    -41674.61162370
  -Hartree energ DENC   =    -25872.79902855
  -exchange      EXHF   =         0.00000000
  -V(xc)+E(xc)   XCENC  =      3674.87314409
  PAW double counting   =     63391.86167811   -66874.87005207
  entropy T*S    EENTRO =        -0.00000000
  eigenvalues    EBANDS =    -10075.33526593
  atomic energy  EATOM  =     73862.19814772
  Solvation  Ediel_sol  =         0.00000000
  ---------------------------------------------------
  free energy    TOTEN  =      -915.87062181 eV

  energy without entropy =     -915.87062181  energy(sigma->0) =     -915.87062181


--------------------------------------------------------------------------------------------------------




--------------------------------------- Iteration      1(  15)  ---------------------------------------


    POTLOK:  cpu time    0.1683: real time    0.1694
    SETDIJ:  cpu time    4.9426: real time    5.0098
    EDDIAG:  cpu time    4.3907: real time    4.7972
  RMM-DIIS:  cpu time   18.0883: real time   18.1228
    ORTHCH:  cpu time    1.1504: real time    1.2332
       DOS:  cpu time    0.0010: real time    0.0012
    CHARGE:  cpu time    1.7918: real time    1.7952
    MIXING:  cpu time    0.0011: real time    0.0011
    --------------------------------------------
      LOOP:  cpu time   30.5342: real time   31.1298

 eigenvalue-minimisations  : 20216
 total energy-change (2. order) : 0.1436290E+02  (-0.2087548E+01)
 number of electron     671.9999637 magnetization      48.0000060
 augmentation part      249.6285317 magnetization      33.7645117

 Broyden mixing:
  rms(total) = 0.22588E+01    rms(broyden)= 0.22585E+01
  rms(prec ) = 0.23517E+01
  weight for this iteration     100.00

 eigenvalues of (default mixing * dielectric matrix)
  average eigenvalue GAMMA=   0.9250
  1.6588  0.3868  0.7292

 Free energy of the ion-electron system (eV)
  ---------------------------------------------------
  alpha Z        PSCENC =      2652.81237852
  Ewald energy   TEWEN  =    -41674.61162370
  -Hartree energ DENC   =    -25801.84542316
  -exchange      EXHF   =         0.00000000
  -V(xc)+E(xc)   XCENC  =      3707.73578882
  PAW double counting   =     67503.95800210   -71027.37886575
  entropy T*S    EENTRO =        -0.00000000
  eigenvalues    EBANDS =    -10124.37612195
  atomic energy  EATOM  =     73862.19814772
  Solvation  Ediel_sol  =         0.00000000
  ---------------------------------------------------
  free energy    TOTEN  =      -901.50771740 eV

  energy without entropy =     -901.50771740  energy(sigma->0) =     -901.50771740


--------------------------------------------------------------------------------------------------------




--------------------------------------- Iteration      1(  16)  ---------------------------------------


    POTLOK:  cpu time    0.1698: real time    0.1713
    SETDIJ:  cpu time    5.0563: real time    5.0661
    EDDIAG:  cpu time    4.4010: real time    4.8026
  RMM-DIIS:  cpu time   17.6438: real time   17.6528
    ORTHCH:  cpu time    1.1615: real time    1.2446
       DOS:  cpu time    0.0067: real time    0.0067
    CHARGE:  cpu time    1.7997: real time    1.8004
    MIXING:  cpu time    0.0075: real time    0.0075
    --------------------------------------------
      LOOP:  cpu time   30.2462: real time   30.7520

 eigenvalue-minimisations  : 19186
 total energy-change (2. order) :-0.1305336E+01  (-0.6751552E+00)
 number of electron     671.9999633 magnetization      48.0000063
 augmentation part      251.0923574 magnetization      33.8438102

 Broyden mixing:
  rms(total) = 0.14834E+01    rms(broyden)= 0.14829E+01
  rms(prec ) = 0.15625E+01
  weight for this iteration     100.00

 eigenvalues of (default mixing * dielectric matrix)
  average eigenvalue GAMMA=   0.9706
  2.0882  0.8910  0.3928  0.5104

 Free energy of the ion-electron system (eV)
  ---------------------------------------------------
  alpha Z        PSCENC =      2652.81237852
  Ewald energy   TEWEN  =    -41674.61162370
  -Hartree energ DENC   =    -25753.93496298
  -exchange      EXHF   =         0.00000000
  -V(xc)+E(xc)   XCENC  =      3708.89127418
  PAW double counting   =     70409.75564833   -73962.06050811
  entropy T*S    EENTRO =        -0.00000000
  eigenvalues    EBANDS =    -10145.86340781
  atomic energy  EATOM  =     73862.19814772
  Solvation  Ediel_sol  =         0.00000000
  ---------------------------------------------------
  free energy    TOTEN  =      -902.81305385 eV

  energy without entropy =     -902.81305385  energy(sigma->0) =     -902.81305385


--------------------------------------------------------------------------------------------------------




--------------------------------------- Iteration      1(  17)  ---------------------------------------


    POTLOK:  cpu time    0.1872: real time    0.1879
    SETDIJ:  cpu time    5.0725: real time    5.0833
    EDDIAG:  cpu time    4.4015: real time    4.8103
  RMM-DIIS:  cpu time   18.3231: real time   18.3328
    ORTHCH:  cpu time    1.1460: real time    1.2286
       DOS:  cpu time    0.0014: real time    0.0014
    CHARGE:  cpu time    1.7929: real time    1.7941
    MIXING:  cpu time    0.0020: real time    0.0020
    --------------------------------------------
      LOOP:  cpu time   30.9266: real time   31.4405

 eigenvalue-minimisations  : 20368
 total energy-change (2. order) : 0.6816164E-01  (-0.8092582E-01)
 number of electron     671.9999634 magnetization      48.0000065
 augmentation part      251.1452720 magnetization      33.8409736

 Broyden mixing:
  rms(total) = 0.78719E+00    rms(broyden)= 0.78703E+00
  rms(prec ) = 0.88824E+00
  weight for this iteration     100.00

 eigenvalues of (default mixing * dielectric matrix)
  average eigenvalue GAMMA=   0.9904
  2.2282  1.1089  0.3813  0.6816  0.5523

 Free energy of the ion-electron system (eV)
  ---------------------------------------------------
  alpha Z        PSCENC =      2652.81237852
  Ewald energy   TEWEN  =    -41674.61162370
  -Hartree energ DENC   =    -25742.15250137
  -exchange      EXHF   =         0.00000000
  -V(xc)+E(xc)   XCENC  =      3706.29400348
  PAW double counting   =     71373.79319428   -74935.29304956
  entropy T*S    EENTRO =        -0.00000000
  eigenvalues    EBANDS =    -10145.78544158
  atomic energy  EATOM  =     73862.19814772
  Solvation  Ediel_sol  =         0.00000000
  ---------------------------------------------------
  free energy    TOTEN  =      -902.74489221 eV

  energy without entropy =     -902.74489221  energy(sigma->0) =     -902.74489221


--------------------------------------------------------------------------------------------------------




--------------------------------------- Iteration      1(  18)  ---------------------------------------


    POTLOK:  cpu time    0.1687: real time    0.1689
    SETDIJ:  cpu time    5.0270: real time    5.0364
    EDDIAG:  cpu time    4.4464: real time    4.8485
  RMM-DIIS:  cpu time   17.9146: real time   17.9315
    ORTHCH:  cpu time    1.1448: real time    1.2275
       DOS:  cpu time    0.0011: real time    0.0011
    CHARGE:  cpu time    1.7918: real time    1.7930
    MIXING:  cpu time    0.0010: real time    0.0010
    --------------------------------------------
      LOOP:  cpu time   30.4954: real time   31.0077

 eigenvalue-minimisations  : 19306
 total energy-change (2. order) : 0.4166171E+00  (-0.6882587E-01)
 number of electron     671.9999634 magnetization      48.0000065
 augmentation part      250.6539810 magnetization      33.8120425

 Broyden mixing:
  rms(total) = 0.29435E+00    rms(broyden)= 0.29412E+00
  rms(prec ) = 0.30995E+00
  weight for this iteration     100.00

 eigenvalues of (default mixing * dielectric matrix)
  average eigenvalue GAMMA=   1.0159
  2.4482  1.3695  0.8397  0.5926  0.3833  0.4621

 Free energy of the ion-electron system (eV)
  ---------------------------------------------------
  alpha Z        PSCENC =      2652.81237852
[...]
   4      -0.705    -1.048     1.753     0.244    -0.014     0.005
   5      -0.741    -1.103     1.843     0.067    -0.088     0.087
   6      -0.888    -0.519     1.407     0.007    -0.004     0.011
   7      -0.847    -0.980     1.827     0.064     0.015     0.010
   8      -1.003    -0.866     1.869     0.302    -0.018    -0.058
   9      -0.628    -0.804     1.432    -0.165    -0.009    -0.008
  10      -0.854    -0.542     1.396    -0.080     0.020     0.040
  11      -0.954    -0.862     1.816     0.124     0.026    -0.077
  12      -0.656    -0.773     1.429    -0.229     0.042     0.062
  13      -0.699    -1.093     1.792    -0.056     0.026    -0.031
  14      -0.958    -0.565     1.523     0.025     0.002    -0.019
  15      -0.934    -1.000     1.934     0.128     0.077    -0.091
  16      -0.868    -1.048     1.916     0.223     0.121    -0.027
  17       1.515     1.435    -2.951     0.106     0.161    -0.003
  18       1.757     1.166    -2.923    -0.031    -0.062    -0.032
  19       1.384     1.573    -2.957    -0.220    -0.188    -0.060
  20       1.394     1.546    -2.940     0.117     0.100     0.044
  21       1.418     1.542    -2.959    -0.000     0.037    -0.158
  22       1.350     1.574    -2.924    -0.019    -0.003     0.169
  23       1.454     1.470    -2.923    -0.057    -0.056     0.054
  24       1.898     1.165    -3.063     0.014    -0.026    -0.022
  25       0.296    -0.513     0.218     0.925    -0.384    -0.991
  26       0.501     0.181    -0.682     0.318     0.717     0.693
  27      -0.568    -0.803     1.371    -0.703     0.830     0.208
  28      -1.640    -0.654     2.294     0.081     1.031     0.716
  29       0.350     0.357    -0.708     0.868     0.458    -0.757
  30      -1.413    -0.724     2.137     0.857    -0.677     0.136
  31      -1.079    -0.023     1.102    -1.436    -1.110    -0.672
  32       1.443    -0.154    -1.289     0.918    -1.229    -0.307
  33       0.074     0.971    -1.045     0.510    -0.274    -0.269
  34      -1.836     0.192     1.644    -0.857    -0.961    -0.168
  35      -0.460    -0.106     0.565    -0.170    -0.005    -0.509
  36       0.094    -0.258     0.164     0.612    -0.115     0.883
  37      -3.246    -0.905     4.151    -0.533     0.031     0.249
  38      -0.550     0.519     0.031     1.029     0.009    -1.187
  39      -0.374    -0.055     0.429    -1.616     1.041     0.159
  40      -0.439    -0.229     0.667    -0.085    -0.253     0.402
  41      -2.143     2.421    -0.278    -4.751     2.039    -3.375
  42      -3.909     3.419     0.490     6.218     2.357     4.855
  43       6.487    -5.648    -0.839    -2.208    -3.618    -1.387
  44      -2.803     2.442     0.362    -4.566    -2.120     3.156
  45       2.829    -4.854     2.025    -0.667     5.202     0.195
  46      -3.474     2.874     0.601     4.176    -3.818    -2.275
  47      -3.535     1.743     1.792    -3.399     2.833    -4.171
  48       4.234    -5.228     0.994     0.703    -3.887     1.598
  49      -4.253     3.627     0.627     4.725     3.473     4.596
  50      -2.265     2.082     0.183    -5.169    -1.394     4.859
  51      -0.664     0.083     0.581     4.932    -0.225    -4.343
  52       4.424    -7.412     2.988     0.154     5.401    -0.402
  53      -3.529     2.812     0.717    -4.497     1.835    -4.032
  54      -2.455     2.078     0.376     3.085     2.132     4.427
  55       4.137    -6.338     2.202     0.221    -5.540    -0.666
  56      -3.261     3.208     0.053    -5.354    -5.115     2.361
  57       6.795    -5.315    -1.480     2.872     2.690    -2.066
  58      -0.084     1.710    -1.627     6.984    -2.856    -2.984
  59      -2.296     2.577    -0.281    -5.259     1.328    -3.863
  60       2.413    -6.389     3.976     1.045    -6.287     0.132
  61      -3.347     1.757     1.590     4.864     2.510     3.787
  62      -2.079     1.297     0.782    -4.731    -2.087     3.613
  63      -3.237     1.859     1.378     5.439    -4.116    -2.557
  64       6.104    -6.114     0.010    -0.413     5.829     2.512
  65      -3.806     2.687     1.119    -5.119     2.073    -5.686
  66      -3.820     0.882     2.937     3.620     1.736     4.110
  67       5.186    -6.103     0.917    -1.479    -5.322    -0.299
  68      -2.966     3.136    -0.170    -4.966    -3.329     2.416
  69       2.393    -6.383     3.990     1.072     5.758    -0.520
  70      -2.864     3.238    -0.374     5.361    -2.241    -3.163
  71      -4.212     3.533     0.679    -5.182     2.870    -3.378
  72       4.534    -6.661     2.127    -1.038    -5.712    -0.682
  73      -1.756     2.062    -0.306     4.008     1.747     4.112
  74      -1.633     1.618     0.015    -5.126    -1.950     4.498
  75      -5.092     2.665     2.428     2.114    -3.223    -4.529
  76       6.512    -6.460    -0.052    -0.427     5.198     1.406
  77      -2.433     0.717     1.716    -5.334     2.521    -5.600
  78      -2.885     5.206    -2.322     7.185     0.659     2.945
  79       4.848    -4.833    -0.015     2.626    -4.903     0.136
  80      -2.833     2.605     0.228    -4.837    -2.123     4.964
  81       2.191    -5.860     3.670    -1.017     4.870     0.177
  82      -4.483     4.561    -0.078     3.868    -4.648    -3.267
  83      -2.927     0.840     2.087    -4.662     4.331    -3.449
  84       6.323    -5.731    -0.592    -0.570    -1.870    -1.485
  85      -4.186     4.784    -0.598     5.628     2.269     3.746
  86      -4.020     1.908     2.111    -5.933     0.145     5.032
  87      -2.672     1.880     0.792     4.290    -1.295    -4.469
  88       6.095    -4.838    -1.257     0.137     3.232    -1.032
 ---------------------------------------------------------------------


 Total hyperfine coupling parameters after diagonalization (MHz)
 (convention: |A_zz| > |A_xx| > |A_yy|)
 ----------------------------------------------------------------------
  ion      A_xx      A_yy      A_zz     asymmetry (A_yy - A_xx)/ A_zz 
 ----------------------------------------------------------------------
   1       2.655     2.150     4.750      -0.106
   2       3.280     2.885     5.398      -0.073
   3       2.546     2.172     4.706      -0.079
   4       1.280     0.684     3.612      -0.165
   5       0.322    -0.066     2.901      -0.134
   6       1.325     0.955     3.250      -0.114
   7      -0.189    -0.004     2.644       0.070
   8       0.824     0.207     3.321      -0.186
   9       2.132     1.758     4.093      -0.092
  10       1.824     1.474     3.744      -0.094
  11       0.319     0.053     2.914      -0.091
  12       2.115     1.640     4.024      -0.118
  13      -0.226     0.184     2.668       0.154
  14       2.245     1.849     4.333      -0.091
  15      -0.190     0.078     2.852       0.094
  16      -0.665    -0.184     2.458       0.196
  17      13.941     9.621    14.170      -0.305
  18      14.476    10.387    15.070      -0.271
  19      13.964     9.750    14.435      -0.292
  20      13.393     9.119    13.673      -0.313
  21      13.744     9.361    13.873      -0.316
  22      14.501    10.223    14.735      -0.290
  23      13.975     9.646    14.091      -0.307
  24      15.510    11.281    16.243      -0.260
  25      95.636    94.349    97.296      -0.013
  26      97.096    95.874    98.298      -0.012
  27      98.812    97.348   100.598      -0.015
  28      93.773    92.670    97.271      -0.011
  29      96.167    94.451    97.187      -0.018
  30      98.946    97.029   101.380      -0.019
  31      93.565    90.055    94.170      -0.037
  32      96.938    95.711    99.768      -0.012
  33      94.789    93.807    96.184      -0.010
  34      96.687    93.821    98.094      -0.029
  35      95.802    95.487    96.911      -0.003
  36      98.205    96.786    98.961      -0.014
  37     101.251    98.689   106.215      -0.024
  38      96.401    95.155    98.443      -0.013
  39      97.505    94.930    98.803      -0.026
  40      96.092    95.980    97.349      -0.001
  41       7.232     4.394    16.954      -0.167
  42       6.145     1.195    18.696      -0.265
  43       5.488     0.017    14.970      -0.365
  44       6.200     2.471    15.126      -0.247
  45       4.323     1.930    14.608      -0.164
  46       3.646    -2.199    11.540      -0.506
  47       4.638     1.675    14.667      -0.202
  48       7.455     2.450    15.202      -0.329
  49       5.264     1.213    17.440      -0.232
  50       5.873     1.822    16.448      -0.246
  51       4.507    -1.822    11.385      -0.556
  52       6.053     0.326    16.923      -0.338
  53       3.416    -0.449    13.302      -0.291
  54       3.559     2.697    13.905      -0.062
  55       4.190     0.214    15.426      -0.258
  56       7.786     0.718    17.486      -0.404
  57      10.805     4.340    19.523      -0.331
  58       4.897     1.823    17.459      -0.176
  59       4.711     0.850    14.607      -0.264
  60       3.744     0.040    16.219      -0.228
  61       4.961     0.316    14.552      -0.319
  62       5.790     2.189    14.925      -0.241
  63       6.357    -0.036    15.500      -0.412
  64       5.470     0.061    17.305      -0.313
  65       3.129    -0.755    15.734      -0.247
  66       5.561     1.272    14.428      -0.297
  67       5.253     1.152    16.493      -0.249
  68       6.213     1.269    15.334      -0.322
  69       6.720     2.307    18.030      -0.245
  70       5.167     1.263    15.385      -0.254
  71       7.723     2.268    17.771      -0.307
  72       6.075     1.286    17.445      -0.275
  73       3.219     1.353    13.084      -0.143
  74       4.443     1.225    15.126      -0.213
  75       6.139     1.670    16.133      -0.277
  76       5.713     1.147    17.504      -0.261
  77       6.617     2.542    18.726      -0.218
  78       5.224     0.753    18.103      -0.247
  79       3.822     0.177    14.377      -0.253
  80       3.394     0.602    15.193      -0.184
  81       5.453     1.183    15.133      -0.282
  82       8.690     2.078    18.433      -0.359
  83       6.336     1.749    16.764      -0.274
  84       7.689     2.052    15.069      -0.374
  85       5.057     0.591    16.923      -0.264
  86       9.213     0.741    17.791      -0.476
  87       7.055     3.414    16.511      -0.221
  88       5.746     2.630    15.166      -0.205
 ---------------------------------------------------------------------



--------------------------------------------------------------------------------------------------------


 stress matrix after NEB project (eV)
    -42.40159      0.37014     -0.58038
      0.37203    -40.98209     -2.67348
     -0.60532     -2.65757    -53.19764
  FORCES: max atom, RMS     3.202018    1.160004
  FORCE total and by dimension   10.881806    2.930404
  Stress total and by dimension   79.514805   53.197645
     LOOP+:  cpu time  767.4429: real time  783.1841
    4ORBIT:  cpu time    0.0000: real time    0.0000
 


 total charge     
 
# of ion       s       p       d       tot
------------------------------------------
    1        0.047   5.989   0.000   6.036
    2        0.050   5.991   0.000   6.041
    3        0.050   5.992   0.000   6.042
    4        0.054   5.998   0.000   6.053
    5        0.053   5.997   0.000   6.050
    6        0.048   5.990   0.000   6.037
    7        0.047   5.991   0.000   6.038
    8        0.054   5.999   0.000   6.053
    9        0.051   5.994   0.000   6.045
   10        0.047   5.990   0.000   6.037
   11        0.049   5.993   0.000   6.042
   12        0.050   5.992   0.000   6.041
   13        0.050   5.994   0.000   6.045
   14        0.050   5.992   0.000   6.042
   15        0.050   5.994   0.000   6.044
   16        0.059   6.004   0.000   6.063
   17        0.149   6.130   0.086   6.365
   18        0.144   6.121   0.079   6.344
   19        0.149   6.128   0.083   6.360
   20        0.152   6.135   0.089   6.377
   21        0.155   6.138   0.092   6.385
   22        0.145   6.122   0.080   6.348
   23        0.147   6.125   0.081   6.353
   24        0.152   6.134   0.089   6.374
   25        0.371   6.447   4.823  11.641
   26        0.365   6.432   4.818  11.615
   27        0.380   6.468   4.844  11.692
   28        0.387   6.478   4.852  11.717
   29        0.371   6.444   4.820  11.634
   30        0.361   6.424   4.794  11.579
   31        0.397   6.491   4.887  11.775
   32        0.385   6.471   4.873  11.730
   33        0.387   6.478   4.863  11.728
   34        0.388   6.479   4.852  11.719
   35        0.378   6.460   4.834  11.671
   36        0.377   6.453   4.838  11.668
   37        0.372   6.447   4.819  11.639
   38        0.386   6.478   4.857  11.721
   39        0.371   6.444   4.831  11.646
   40        0.382   6.463   4.851  11.696
   41        1.599   3.512   0.000   5.110
   42        1.602   3.503   0.000   5.105
   43        1.600   3.507   0.000   5.108
   44        1.597   3.526   0.000   5.123
   45        1.596   3.500   0.000   5.096
   46        1.596   3.499   0.000   5.096
   47        1.600   3.510   0.000   5.110
   48        1.596   3.512   0.000   5.108
   49        1.601   3.483   0.000   5.084
   50        1.598   3.520   0.000   5.118
   51        1.596   3.511   0.000   5.107
   52        1.603   3.520   0.000   5.123
   53        1.598   3.503   0.000   5.100
   54        1.597   3.500   0.000   5.098
   55        1.598   3.480   0.000   5.078
   56        1.601   3.530   0.000   5.131
   57        1.601   3.531   0.000   5.132
   58        1.600   3.533   0.000   5.133
   59        1.598   3.507   0.000   5.105
   60        1.600   3.487   0.000   5.087
   61        1.599   3.521   0.000   5.120
   62        1.597   3.523   0.000   5.120
   63        1.600   3.516   0.000   5.116
   64        1.602   3.490   0.000   5.091
   65        1.601   3.510   0.000   5.111
   66        1.597   3.521   0.000   5.118
   67        1.601   3.508   0.000   5.109
   68        1.597   3.495   0.000   5.091
   69        1.604   3.558   0.000   5.162
   70        1.600   3.478   0.000   5.078
   71        1.598   3.515   0.000   5.114
   72        1.602   3.488   0.000   5.090
   73        1.600   3.519   0.000   5.119
   74        1.597   3.486   0.000   5.084
   75        1.599   3.482   0.000   5.081
   76        1.601   3.498   0.000   5.099
   77        1.600   3.513   0.000   5.112
   78        1.602   3.487   0.000   5.089
   79        1.599   3.502   0.000   5.101
   80        1.598   3.489   0.000   5.087
   81        1.599   3.523   0.000   5.122
   82        1.601   3.508   0.000   5.109
   83        1.600   3.540   0.000   5.141
   84        1.597   3.504   0.000   5.100
   85        1.599   3.504   0.000   5.103
   86        1.599   3.512   0.000   5.110
   87        1.599   3.498   0.000   5.098
   88        1.599   3.515   0.000   5.114
--------------------------------------------------
tot         84.824 416.667  78.135 579.626
 


 magnetization (x)
 
# of ion       s       p       d       tot
------------------------------------------
    1        0.002   0.000   0.000   0.003
    2        0.003   0.001   0.000   0.004
    3        0.002   0.000   0.000   0.003
    4        0.001   0.000   0.000   0.001
    5        0.001   0.000   0.000   0.001
    6        0.001  -0.000   0.000   0.001
    7        0.001   0.000   0.000   0.001
    8        0.001   0.001   0.000   0.002
    9        0.002   0.000   0.000   0.002
   10        0.002   0.000   0.000   0.002
   11        0.001   0.000   0.000   0.001
   12        0.002   0.000   0.000   0.002
   13        0.001   0.000   0.000   0.001
   14        0.002   0.000   0.000   0.002
   15        0.001   0.000   0.000   0.001
   16        0.000   0.000   0.000   0.000
   17        0.007   0.002   0.001   0.011
   18        0.007   0.002   0.001   0.011
   19        0.007   0.002   0.001   0.010
   20        0.007   0.002   0.001   0.010
   21        0.007   0.002   0.001   0.010
   22        0.008   0.003   0.001   0.011
   23        0.007   0.002   0.001   0.010
   24        0.008   0.003   0.001   0.012
   25        0.015   0.029   2.759   2.803
   26        0.015   0.029   2.782   2.825
   27        0.016   0.031   2.747   2.795
   28        0.015   0.030   2.739   2.784
   29        0.015   0.030   2.759   2.804
   30        0.016   0.029   2.791   2.836
   31        0.014   0.030   2.700   2.744
   32        0.015   0.031   2.713   2.759
   33        0.015   0.032   2.713   2.760
   34        0.015   0.030   2.734   2.780
   35        0.015   0.030   2.747   2.792
   36        0.016   0.030   2.752   2.797
   37        0.017   0.031   2.780   2.827
   38        0.016   0.032   2.721   2.769
   39        0.016   0.030   2.748   2.793
   40        0.015   0.029   2.738   2.782
   41        0.002   0.046   0.000   0.049
   42        0.002   0.050   0.000   0.052
   43        0.002   0.018   0.000   0.020
   44        0.002   0.037   0.000   0.039
   45        0.002   0.031   0.000   0.033
   46        0.001   0.010   0.000   0.011
   47        0.002   0.022   0.000   0.024
   48        0.002   0.041   0.000   0.043
   49        0.002   0.028   0.000   0.030
   50        0.002   0.042   0.000   0.044
   51        0.001   0.021   0.000   0.022
   52        0.002   0.048   0.000   0.049
   53        0.002   0.018   0.000   0.019
   54        0.002   0.020   0.000   0.022
   55        0.002   0.016   0.000   0.018
   56        0.002   0.054   0.000   0.056
   57        0.003   0.070   0.000   0.073
   58        0.002   0.037   0.000   0.039
   59        0.002   0.025   0.000   0.027
   60        0.002   0.026   0.000   0.027
   61        0.002   0.032   0.000   0.034
   62        0.002   0.036   0.000   0.038
   63        0.002   0.044   0.000   0.045
   64        0.002   0.020   0.000   0.022
   65        0.002   0.028   0.000   0.030
   66        0.002   0.036   0.000   0.038
   67        0.002   0.037   0.000   0.039
   68        0.002   0.038   0.000   0.040
   69        0.002   0.055   0.000   0.057
   70        0.002   0.025   0.000   0.027
   71        0.002   0.056   0.000   0.058
   72        0.002   0.044   0.000   0.046
   73        0.002   0.010   0.000   0.012
   74        0.002   0.024   0.000   0.026
   75        0.002   0.034   0.000   0.036
   76        0.002   0.037   0.000   0.040
   77        0.002   0.052   0.000   0.054
   78        0.002   0.041   0.000   0.043
   79        0.002   0.016   0.000   0.018
   80        0.002   0.022   0.000   0.024
   81        0.002   0.043   0.000   0.044
   82        0.002   0.050   0.000   0.052
   83        0.002   0.048   0.000   0.050
   84        0.002   0.036   0.000   0.038
   85        0.002   0.038   0.000   0.040
   86        0.002   0.061   0.000   0.063
   87        0.002   0.043   0.000   0.045
   88        0.002   0.027   0.000   0.029
--------------------------------------------------
tot          0.420   2.197  43.934  46.551
 

 total amount of memory used by VASP MPI-rank0    94425. kBytes
=======================================================================

   base      :      30000. kBytes
   nonlr-proj:      13666. kBytes
   fftplans  :       1275. kBytes
   grid      :      22786. kBytes
   one-center:       2737. kBytes
   wavefun   :      23961. kBytes
 
  
  
 General timing and accounting informations for this job:
 ========================================================
  
                  Total CPU time used (sec):      788.307
                            User time (sec):      779.944
                          System time (sec):        8.363
                         Elapsed time (sec):      806.498
  
                   Maximum memory used (kb):      193916.
                   Average memory used (kb):           0.
  
                          Minor page faults:       347530
                          Major page faults:            0
                 Voluntary context switches:       266887
