 vasp.5.4.4.18Apr17-6-g9f103f2a35 (build Dec 02 2020 12:53:39) complex          
  
 executed on             LinuxIFC date 2021.08.03  09:00:21
 running on   96 total cores
 distrk:  each k-point on   96 cores,    1 groups
 distr:  one band on NCORES_PER_BAND=   1 cores,   96 groups


--------------------------------------------------------------------------------------------------------


 INCAR:
 POTCAR:    PAW_PBE Na_pv 19Sep2006               
 POTCAR:    PAW_PBE Mg_pv 13Apr2007               
 POTCAR:    PAW_PBE Mn_pv 02Aug2007               
 POTCAR:    PAW_PBE O 08Apr2002                   

 ----------------------------------------------------------------------------- 
|                                                                             |
|           W    W    AA    RRRRR   N    N  II  N    N   GGGG   !!!           |
|           W    W   A  A   R    R  NN   N  II  NN   N  G    G  !!!           |
|           W    W  A    A  R    R  N N  N  II  N N  N  G       !!!           |
|           W WW W  AAAAAA  RRRRR   N  N N  II  N  N N  G  GGG   !            |
|           WW  WW  A    A  R   R   N   NN  II  N   NN  G    G                |
|           W    W  A    A  R    R  N    N  II  N    N   GGGG   !!!           |
|                                                                             |
|      For optimal performance we recommend to set                            |
|        NCORE= 4 - approx SQRT( number of cores)                             |
|      NCORE specifies how many cores store one orbital (NPAR=cpu/NCORE).     |
|      This setting can  greatly improve the performance of VASP for DFT.     |
|      The default,   NCORE=1            might be grossly inefficient         |
|      on modern multi-core architectures or massively parallel machines.     |
|      Do your own testing !!!!                                               |
|      Unfortunately you need to use the default for GW and RPA calculations. |
|      (for HF NCORE is supported but not extensively tested yet)             |
|                                                                             |
 ----------------------------------------------------------------------------- 

 POTCAR:    PAW_PBE Na_pv 19Sep2006               
   VRHFIN =Na: p6s1                                                             
   LEXCH  = PE                                                                  
   EATOM  =   766.0439 eV,   56.3026 Ry                                         
                                                                                
   TITEL  = PAW_PBE Na_pv 19Sep2006                                             
   LULTRA =        F    use ultrasoft PP ?                                      
   IUNSCR =        1    unscreen: 0-lin 1-nonlin 2-no                           
   RPACOR =    1.800    partial core radius                                     
   POMASS =   22.990; ZVAL   =    7.000    mass and valenz                      
   RCORE  =    2.200    outmost cutoff radius                                   
   RWIGS  =    2.200; RWIGS  =    1.164    wigner-seitz radius (au A)           
   ENMAX  =  259.561; ENMIN  =  194.671 eV                                      
   ICORE  =        2    local potential                                         
   LCOR   =        T    correct aug charges                                     
   LPAW   =        T    paw PP                                                  
   EAUG   =  368.056                                                            
   DEXC   =    0.000                                                            
   RMAX   =    2.245    core radius for proj-oper                               
   RAUG   =    1.300    factor for augmentation sphere                          
   RDEP   =    2.259    radius for radial grids                                 
   RDEPT  =    1.738    core radius for aug-charge                              
                                                                                
   Atomic configuration                                                         
    5 entries                                                                   
     n  l   j            E        occ.                                          
     1  0  0.50     -1033.6933   2.0000                                         
     2  0  0.50       -56.7526   2.0000                                         
     2  1  1.50       -28.6721   6.0000                                         
     3  0  0.50        -2.7440   1.0000                                         
     3  2  1.50        -1.3606   0.0000                                         
   Description                                                                  
     l       E           TYP  RCUT    TYP  RCUT                                 
     1    -28.6720912     23  2.000                                             
     1      6.8029130     23  2.000                                             
     0     -2.7439560     23  2.200                                             
     0     34.0145650     23  2.200                                             
     2     -1.3605826     23  2.200                                             
  local pseudopotential read in
  partial core-charges read in
  partial kinetic energy density read in
  atomic valenz-charges read in
  non local Contribution for L=           1  read in
    real space projection operators read in
  non local Contribution for L=           1  read in
    real space projection operators read in
  non local Contribution for L=           0  read in
    real space projection operators read in
  non local Contribution for L=           0  read in
    real space projection operators read in
    PAW grid and wavefunctions read in
 
   number of l-projection  operators is LMAX  =           4
   number of lm-projection operators is LMMAX =           8
 
 POTCAR:    PAW_PBE Mg_pv 13Apr2007               
   VRHFIN =Mg: p6s2                                                             
   LEXCH  = PE                                                                  
   EATOM  =  1056.7344 eV,   77.6678 Ry                                         
                                                                                
   TITEL  = PAW_PBE Mg_pv 13Apr2007                                             
   LULTRA =        F    use ultrasoft PP ?                                      
   IUNSCR =        1    unscreen: 0-lin 1-nonlin 2-no                           
   RPACOR =    1.500    partial core radius                                     
   POMASS =   24.305; ZVAL   =    8.000    mass and valenz                      
   RCORE  =    2.000    outmost cutoff radius                                   
   RWIGS  =    2.000; RWIGS  =    1.058    wigner-seitz radius (au A)           
   ENMAX  =  403.929; ENMIN  =  302.947 eV                                      
   RCLOC  =    1.506    cutoff for local pot                                    
   LCOR   =        T    correct aug charges                                     
   LPAW   =        T    paw PP                                                  
   EAUG   =  758.780                                                            
   DEXC   =    0.000                                                            
   RMAX   =    2.045    core radius for proj-oper                               
   RAUG   =    1.300    factor for augmentation sphere                          
   RDEP   =    2.025    radius for radial grids                                 
   RDEPT  =    1.557    core radius for aug-charge                              
                                                                                
   Atomic configuration                                                         
    5 entries                                                                   
     n  l   j            E        occ.                                          
     1  0  0.50     -1259.6230   2.0000                                         
     2  0  0.50       -79.8442   2.0000                                         
     2  1  1.50       -46.6121   6.0000                                         
     3  0  0.50        -4.7055   2.0000                                         
     3  2  1.50        -1.3606   0.0000                                         
   Description                                                                  
     l       E           TYP  RCUT    TYP  RCUT                                 
     1    -46.6121073     23  1.600                                             
     1      2.7211652     23  1.600                                             
     0     -4.7054661     23  2.000                                             
     0     61.2262170     23  2.000                                             
     2     -1.3605826     23  2.000                                             
  local pseudopotential read in
  partial core-charges read in
  partial kinetic energy density read in
  atomic valenz-charges read in
  non local Contribution for L=           1  read in
    real space projection operators read in
  non local Contribution for L=           1  read in
    real space projection operators read in
  non local Contribution for L=           0  read in
    real space projection operators read in
  non local Contribution for L=           0  read in
    real space projection operators read in
  non local Contribution for L=           2  read in
    real space projection operators read in
    PAW grid and wavefunctions read in
 
   number of l-projection  operators is LMAX  =           5
   number of lm-projection operators is LMMAX =          13
 
 POTCAR:    PAW_PBE Mn_pv 02Aug2007               
   VRHFIN =Mn: 3p4s3d                                                           
   LEXCH  = PE                                                                  
   EATOM  =  2025.2664 eV,  148.8529 Ry                                         
                                                                                
   TITEL  = PAW_PBE Mn_pv 02Aug2007                                             
   LULTRA =        F    use ultrasoft PP ?                                      
   IUNSCR =        1    unscreen: 0-lin 1-nonlin 2-no                           
   RPACOR =    2.080    partial core radius                                     
   POMASS =   54.938; ZVAL   =   13.000    mass and valenz                      
   RCORE  =    2.300    outmost cutoff radius                                   
   RWIGS  =    2.500; RWIGS  =    1.323    wigner-seitz radius (au A)           
   ENMAX  =  269.864; ENMIN  =  202.398 eV                                      
   ICORE  =        3    local potential                                         
   LCOR   =        T    correct aug charges                                     
   LPAW   =        T    paw PP                                                  
   EAUG   =  569.085                                                            
   DEXC   =    0.000                                                            
   RMAX   =    2.343    core radius for proj-oper                               
   RAUG   =    1.300    factor for augmentation sphere                          
   RDEP   =    2.338    radius for radial grids                                 
   RDEPT  =    1.798    core radius for aug-charge                              
                                                                                
   Atomic configuration                                                         
    8 entries                                                                   
     n  l   j            E        occ.                                          
     1  0  0.50     -6424.8287   2.0000                                         
     2  0  0.50      -739.1154   2.0000                                         
     2  1  1.50      -625.3949   6.0000                                         
     3  0  0.50       -81.6100   2.0000                                         
     3  1  1.50       -50.4667   6.0000                                         
     3  2  2.50        -3.3745   6.0000                                         
     4  0  0.50        -4.1331   1.0000                                         
     4  3  2.50        -1.3606   0.0000                                         
   Description                                                                  
     l       E           TYP  RCUT    TYP  RCUT                                 
     1    -50.4666628     23  2.000                                             
     1     -1.3605826     23  2.000                                             
     2     -3.3744729     23  2.300                                             
     2     -4.7350555     23  2.300                                             
     0     -4.1331431     23  2.300                                             
     0      7.6656591     23  2.300                                             
     3      9.5240782     23  2.300                                             
  local pseudopotential read in
  partial core-charges read in
  partial kinetic energy density read in
  atomic valenz-charges read in
  non local Contribution for L=           1  read in
    real space projection operators read in
  non local Contribution for L=           1  read in
    real space projection operators read in
  non local Contribution for L=           2  read in
    real space projection operators read in
  non local Contribution for L=           2  read in
    real space projection operators read in
  non local Contribution for L=           0  read in
    real space projection operators read in
  non local Contribution for L=           0  read in
    real space projection operators read in
    PAW grid and wavefunctions read in
 
   number of l-projection  operators is LMAX  =           6
   number of lm-projection operators is LMMAX =          18
 
 POTCAR:    PAW_PBE O 08Apr2002                   
   VRHFIN =O: s2p4                                                              
   LEXCH  = PE                                                                  
   EATOM  =   432.3788 eV,   31.7789 Ry                                         
                                                                                
   TITEL  = PAW_PBE O 08Apr2002                                                 
   LULTRA =        F    use ultrasoft PP ?                                      
   IUNSCR =        1    unscreen: 0-lin 1-nonlin 2-no                           
   RPACOR =    1.200    partial core radius                                     
   POMASS =   16.000; ZVAL   =    6.000    mass and valenz                      
   RCORE  =    1.520    outmost cutoff radius                                   
   RWIGS  =    1.550; RWIGS  =    0.820    wigner-seitz radius (au A)           
   ENMAX  =  400.000; ENMIN  =  300.000 eV                                      
   ICORE  =        2    local potential                                         
   LCOR   =        T    correct aug charges                                     
   LPAW   =        T    paw PP                                                  
   EAUG   =  605.392                                                            
   DEXC   =    0.000                                                            
   RMAX   =    1.553    core radius for proj-oper                               
   RAUG   =    1.300    factor for augmentation sphere                          
   RDEP   =    1.550    radius for radial grids                                 
   RDEPT  =    1.329    core radius for aug-charge                              
                                                                                
   Atomic configuration                                                         
    4 entries                                                                   
     n  l   j            E        occ.                                          
     1  0  0.50      -514.6923   2.0000                                         
     2  0  0.50       -23.9615   2.0000                                         
     2  1  0.50        -9.0305   4.0000                                         
     3  2  1.50        -9.5241   0.0000                                         
   Description                                                                  
     l       E           TYP  RCUT    TYP  RCUT                                 
     0    -23.9615318     23  1.200                                             
     0     -9.5240782     23  1.200                                             
     1     -9.0304911     23  1.520                                             
     1      8.1634956     23  1.520                                             
     2     -9.5240782      7  1.500                                             
  local pseudopotential read in
  partial core-charges read in
  partial kinetic energy density read in
  kinetic energy density of atom read in
  atomic valenz-charges read in
  non local Contribution for L=           0  read in
    real space projection operators read in
  non local Contribution for L=           0  read in
    real space projection operators read in
  non local Contribution for L=           1  read in
    real space projection operators read in
  non local Contribution for L=           1  read in
    real space projection operators read in
    PAW grid and wavefunctions read in
 
   number of l-projection  operators is LMAX  =           4
   number of lm-projection operators is LMMAX =           8
 
 Optimization of the real space projectors (new method)

 maximal supplied QI-value         = 17.01
 optimisation between [QCUT,QGAM] = [ 10.20, 20.41] = [ 29.16,116.64] Ry 
 Optimized for a Real-space Cutoff    1.30 Angstroem

   l    n(q)    QCUT    max X(q) W(low)/X(q) W(high)/X(q)  e(spline) 
   1      7    10.205     4.940    0.23E-03    0.84E-03    0.11E-06
   1      7    10.205     6.253    0.40E-03    0.13E-02    0.18E-06
   0      8    10.205    37.438    0.23E-03    0.37E-03    0.42E-07
   0      8    10.205     9.606    0.16E-03    0.26E-03    0.31E-07
 Optimization of the real space projectors (new method)

 maximal supplied QI-value         = 18.90
 optimisation between [QCUT,QGAM] = [ 10.20, 20.41] = [ 29.16,116.64] Ry 
 Optimized for a Real-space Cutoff    1.26 Angstroem

   l    n(q)    QCUT    max X(q) W(low)/X(q) W(high)/X(q)  e(spline) 
   1      7    10.205     2.974    0.63E-04    0.14E-03    0.13E-06
   1      7    10.205     4.279    0.11E-03    0.45E-03    0.24E-06
   0      8    10.205    16.381    0.44E-03    0.15E-03    0.55E-07
   0      8    10.205     5.611    0.31E-03    0.11E-03    0.40E-07
   2      7    10.205     4.652    0.50E-03    0.47E-03    0.57E-07
 Optimization of the real space projectors (new method)

 maximal supplied QI-value         = 16.25
 optimisation between [QCUT,QGAM] = [ 10.24, 20.48] = [ 29.35,117.42] Ry 
 Optimized for a Real-space Cutoff    1.34 Angstroem

   l    n(q)    QCUT    max X(q) W(low)/X(q) W(high)/X(q)  e(spline) 
   1      8    10.239     3.658    0.23E-03    0.30E-03    0.98E-07
   1      8    10.239     5.612    0.32E-03    0.65E-03    0.21E-06
   2      7    10.239    55.373    0.42E-03    0.45E-03    0.65E-07
   2      7    10.239    50.863    0.43E-03    0.48E-03    0.67E-07
   0      8    10.239    79.536    0.11E-03    0.21E-03    0.56E-07
   0      8    10.239    38.668    0.96E-04    0.19E-03    0.52E-07
 Optimization of the real space projectors (new method)

 maximal supplied QI-value         = 24.76
 optimisation between [QCUT,QGAM] = [ 10.15, 20.30] = [ 28.85,115.39] Ry 
 Optimized for a Real-space Cutoff    1.38 Angstroem

   l    n(q)    QCUT    max X(q) W(low)/X(q) W(high)/X(q)  e(spline) 
   0      8    10.150    20.381    0.22E-03    0.32E-03    0.29E-06
   0      8    10.150    15.268    0.23E-03    0.35E-03    0.30E-06
   1      8    10.150     5.964    0.46E-03    0.53E-03    0.21E-06
   1      8    10.150     5.382    0.38E-03    0.45E-03    0.19E-06
  PAW_PBE Na_pv 19Sep2006               :
 energy of atom  1       EATOM= -766.0439
 kinetic energy error for atom=    0.0103 (will be added to EATOM!!)
  PAW_PBE Mg_pv 13Apr2007               :
 energy of atom  2       EATOM=-1056.7344
 kinetic energy error for atom=    0.0820 (will be added to EATOM!!)
  PAW_PBE Mn_pv 02Aug2007               :
 energy of atom  3       EATOM=-2025.2664
 kinetic energy error for atom=    0.0284 (will be added to EATOM!!)
  PAW_PBE O 08Apr2002                   :
 energy of atom  4       EATOM= -432.3788
 kinetic energy error for atom=    0.1156 (will be added to EATOM!!)
 
 
 POSCAR: Na Mg Mn  O                             
  positions in cartesian coordinates
  No initial velocities read in

 METAGGA = SCAN     LMAXTAU =  6    LMIXTAU =  F

 exchange correlation table for  LEXCH =        8
   RHO(1)=    0.500       N(1)  =     2000
   RHO(2)=  100.500       N(2)  =     4000

 VTST: version 3.2, (02/03/18)

 CHAIN: initializing optimizer
 
 OPT: Using VASP Dynamics algorithm
 CHAIN: Read ICHAIN            0
 
 POSCAR: Na Mg Mn  O                             
  positions in cartesian coordinates
  No initial velocities read in
 


--------------------------------------------------------------------------------------------------------


 ion  position               nearest neighbor table
   1  0.812  0.036  0.248-  53 2.29  62 2.31  54 2.32  63 2.33  30 2.79  32 2.88
   2  0.056  0.234  0.749-  61 2.29  80 2.33  58 2.35
   3  0.024  0.732  0.762-  73 2.21
   4  0.578  0.495  0.745-  82 2.14  85 2.29  68 2.34  35 2.88
   5  0.014  0.411  0.260-  86 2.21  64 2.31  77 2.35  39 2.76  37 2.96
   6  0.717  0.429  0.252-  66 2.27  75 2.29  74 2.30
   7  0.333  0.080  0.751-  47 2.30  45 2.36  48 2.38  26 2.87  28 2.95
   8  0.534  0.938  0.751-  59 2.26  49 2.36  29 2.84  31 2.89
   9  0.503  0.062  0.251-  42 2.18  51 2.37  52 2.37
  10  0.990  0.875  0.250-  67 2.22  63 2.37  27 2.83  25 2.95
  11  0.301  0.203  0.244-  41 2.23  50 2.31
  12  0.834  0.896  0.751-  61 2.30
  13  0.323  0.589  0.754-  81 2.31  84 2.33  38 2.92  40 2.95
  14  0.831  0.386  0.759-  73 2.30  70 2.30  60 2.34
  15  0.330  0.734  0.253-  88 2.27  79 2.38
  16  0.532  0.597  0.234-  65 2.20  79 2.25  88 2.36
  17  0.676  0.240  0.991-  66 1.98  71 1.99  49 2.00  60 2.04  53 2.08  43 2.19  37 2.77  30 2.85

  18  0.667  0.239  0.495-  68 1.93  75 1.95  52 2.08  46 2.13  62 2.13  57 2.13  36 2.82  35 2.84

  19  0.165  0.241  0.995-  83 1.98  78 2.04  41 2.07  48 2.07  55 2.09  61 2.09  38 2.84  30 2.84

  20  0.168  0.228  0.506-  58 1.98  45 2.04  50 2.05  80 2.14  64 2.16  87 2.20  28 2.84
  21  0.183  0.747  0.013-  84 1.97  42 2.05  67 2.06  77 2.06  47 2.15  29 2.81
  22  0.176  0.736  0.506-  51 2.01  81 2.04  86 2.06  76 2.07  44 2.10  70 2.24  31 2.81  40 2.86

  23  0.674  0.740  0.995-  85 1.99  72 2.02  65 2.03  59 2.06  54 2.07  79 2.15
  24  0.662  0.740  0.490-  88 1.98  56 2.00  63 2.02  82 2.10  74 2.10  69 2.24  31 2.82  40 2.83

  25  0.010  0.909  0.988-  72 1.83  61 1.87  47 1.92  41 1.93  54 1.94  67 1.97  34 2.90  26 2.91
                            30 2.92  10 2.95
  26  0.345  0.080  0.007-  43 1.87  41 1.89  49 1.89  42 1.91  47 1.95  48 1.95  33 2.85   7 2.87
                            25 2.91  29 2.92
  27  0.002  0.894  0.502-  44 1.85  69 1.89  76 1.90  50 1.93  63 1.93  58 1.96  10 2.83  36 2.86
                            28 2.89  32 3.00
  28  0.335  0.068  0.489-  46 1.86  51 1.90  52 1.92  50 1.93  44 1.97  45 1.98  20 2.84  31 2.87
                            27 2.89  35 2.92   7 2.95
  29  0.507  0.905  0.002-  84 1.88  59 1.92  79 1.92  42 1.95  49 1.97  53 1.99  21 2.81   8 2.84
                            30 2.87  26 2.92  38 2.93
  30  0.838  0.073  0.001-  60 1.85  54 1.87  53 1.87  55 1.92  59 1.98  61 2.01   1 2.79  19 2.84
                            17 2.85  29 2.87  37 2.88  25 2.92
  31  0.499  0.901  0.495-  81 1.85  51 1.90  46 1.92  62 1.95  56 1.99  88 2.04  22 2.81  24 2.82
                            28 2.87   8 2.89  40 2.90  32 2.91
  32  0.834  0.071  0.503-  56 1.85  57 1.88  62 1.93  58 1.93  64 1.94  63 2.04  39 2.85   1 2.88
                            31 2.91  27 3.00
  33  0.508  0.408  0.003-  43 1.88  48 1.91  71 1.91  65 1.93  85 1.95  78 1.95  26 2.85  34 2.87
                            38 2.89
  34  0.839  0.575  0.000-  71 1.85  67 1.94  72 1.95  73 1.95  66 1.97  65 1.98  37 2.83  33 2.87
                            25 2.90
  35  0.505  0.405  0.498-  68 1.88  82 1.89  45 1.89  87 1.95  74 1.99  52 2.05  18 2.84  36 2.85
                            40 2.87   4 2.88  28 2.92
  36  0.834  0.565  0.507-  75 1.88  76 1.89  69 1.91  70 1.91  68 1.95  74 1.96  18 2.82  39 2.84
                            35 2.85  27 2.86
  37  0.995  0.405  0.997-  66 1.89  60 1.91  55 1.91  73 1.92  83 1.96  77 2.03  17 2.77  34 2.83
                            30 2.88  38 2.95   5 2.96
  38  0.334  0.567  0.013-  77 1.89  83 1.90  78 1.90  79 1.91  84 1.94  85 1.99  19 2.84  33 2.89
                            13 2.92  29 2.93  37 2.95
  39  0.997  0.400  0.506-  86 1.86  57 1.89  75 1.89  64 1.95  80 1.96  70 1.97   5 2.76  36 2.84
                            32 2.85  40 2.95
  40  0.336  0.567  0.492-  81 1.88  86 1.93  88 1.95  82 1.97  80 1.98  87 1.99  24 2.83  22 2.86
                            35 2.87  31 2.90  39 2.95  13 2.95
  41  0.171  0.064  0.086-  26 1.89  25 1.93  19 2.07  11 2.23
  42  0.360  0.929  0.101-  26 1.91  29 1.95  21 2.05   9 2.18
  43  0.494  0.245  0.095-  26 1.87  33 1.88  17 2.19
  44  0.168  0.918  0.592-  27 1.85  28 1.97  22 2.10
  45  0.354  0.240  0.589-  35 1.89  28 1.98  20 2.04   7 2.36
  46  0.479  0.053  0.585-  28 1.86  31 1.92  18 2.13
  47  0.185  0.925  0.905-  25 1.92  26 1.95  21 2.15   7 2.30
  48  0.351  0.245  0.910-  33 1.91  26 1.95  19 2.07   7 2.38
  49  0.493  0.066  0.911-  26 1.89  29 1.97  17 2.00   8 2.36
  50  0.160  0.054  0.404-  27 1.93  28 1.93  20 2.05  11 2.31
  51  0.340  0.905  0.406-  31 1.90  28 1.90  22 2.01   9 2.37
  52  0.490  0.231  0.393-  28 1.92  35 2.05  18 2.08   9 2.37
  53  0.682  0.070  0.094-  30 1.87  29 1.99  17 2.08   1 2.29
  54  0.855  0.921  0.084-  30 1.87  25 1.94  23 2.07   1 2.32
  55  0.989  0.244  0.092-  37 1.91  30 1.92  19 2.09
  56  0.674  0.913  0.588-  32 1.85  31 1.99  24 2.00
  57  0.845  0.234  0.595-  32 1.88  39 1.89  18 2.13
  58  0.992  0.057  0.591-  32 1.93  27 1.96  20 1.98   2 2.35
  59  0.668  0.915  0.903-  29 1.92  30 1.98  23 2.06   8 2.26
  60  0.851  0.230  0.906-  30 1.85  37 1.91  17 2.04  14 2.34
  61  0.993  0.058  0.898-  25 1.87  30 2.01  19 2.09   2 2.29  12 2.30
  62  0.671  0.056  0.402-  32 1.93  31 1.95  18 2.13   1 2.31
  63  0.849  0.907  0.406-  27 1.93  24 2.02  32 2.04   1 2.33  10 2.37
  64  0.988  0.237  0.406-  32 1.94  39 1.95  20 2.16   5 2.31
  65  0.671  0.571  0.095-  33 1.93  34 1.98  23 2.03  16 2.20
  66  0.838  0.405  0.089-  37 1.89  34 1.97  17 1.98   6 2.27
  67  0.997  0.745  0.092-  34 1.94  25 1.97  21 2.06  10 2.22
  68  0.659  0.397  0.589-  35 1.88  18 1.93  36 1.95   4 2.34
  69  0.849  0.735  0.596-  27 1.89  36 1.91  24 2.24
  70  0.979  0.550  0.609-  36 1.91  39 1.97  22 2.24  14 2.30
  71  0.678  0.420  0.916-  34 1.85  33 1.91  17 1.99
  72  0.854  0.747  0.908-  25 1.83  34 1.95  23 2.02
  73  0.991  0.560  0.900-  37 1.92  34 1.95   3 2.21  14 2.30
  74  0.678  0.564  0.401-  36 1.96  35 1.99  24 2.10   6 2.30
  75  0.842  0.411  0.417-  36 1.88  39 1.89  18 1.95   6 2.29
  76  0.990  0.725  0.415-  36 1.89  27 1.90  22 2.07
  77  0.170  0.560  0.101-  38 1.89  37 2.03  21 2.06   5 2.35
  78  0.342  0.405  0.095-  38 1.90  33 1.95  19 2.04
  79  0.493  0.739  0.098-  38 1.91  29 1.92  23 2.15  16 2.25  15 2.38
  80  0.171  0.416  0.597-  39 1.96  40 1.98  20 2.14   2 2.33
  81  0.358  0.734  0.585-  31 1.85  40 1.88  22 2.04  13 2.31
  82  0.493  0.556  0.591-  35 1.89  40 1.97  24 2.10   4 2.14
  83  0.175  0.421  0.914-  38 1.90  37 1.96  19 1.98
  84  0.345  0.737  0.921-  29 1.88  38 1.94  21 1.97  13 2.33
  85  0.497  0.567  0.911-  33 1.95  38 1.99  23 1.99   4 2.29
  86  0.157  0.549  0.413-  39 1.86  40 1.93  22 2.06   5 2.21
  87  0.350  0.409  0.395-  35 1.95  40 1.99  20 2.20
  88  0.492  0.729  0.393-  40 1.95  24 1.98  31 2.04  15 2.27  16 2.36
 
  LATTYP: Found a hexagonal cell.
 ALAT       =    10.0190000534
 C/A-ratio  =     1.1196726572
  
  Lattice vectors:
  
 A1 = (  10.0190000534,   0.0000000000,   0.0000000000)
 A2 = (  -5.0095000267,   8.6767085668,   0.0000000000)
 A3 = (   0.0000000000,   0.0000000000,  11.2180004120)


Analysis of symmetry for initial positions (statically):
=====================================================================
 Subroutine PRICEL returns:
 Original cell was already a primitive cell.
 

 Routine SETGRP: Setting up the symmetry group for a 
 hexagonal supercell.


 Subroutine GETGRP returns: Found  1 space group operations
 (whereof  1 operations were pure point group operations)
 out of a pool of 24 trial point group operations.


The static configuration has the point symmetry C_1 .


Analysis of symmetry for dynamics (positions and initial velocities):
=====================================================================
 Subroutine PRICEL returns:
 Original cell was already a primitive cell.
 

 Routine SETGRP: Setting up the symmetry group for a 
 hexagonal supercell.


 Subroutine GETGRP returns: Found  1 space group operations
 (whereof  1 operations were pure point group operations)
 out of a pool of 24 trial point group operations.


The dynamic configuration has the point symmetry C_1 .


Analysis of structural, dynamic, and magnetic symmetry:
=====================================================================
 Subroutine PRICEL returns:
 Original cell was already a primitive cell.
 

 Routine SETGRP: Setting up the symmetry group for a 
 hexagonal supercell.


 Subroutine GETGRP returns: Found  1 space group operations
 (whereof  1 operations were pure point group operations)
 out of a pool of 24 trial point group operations.


The magnetic configuration has the point symmetry C_1 .


 Subroutine INISYM returns: Found  1 space group operations
 (whereof  1 operations are pure point group operations),
 and found     1 'primitive' translations

 
 

Automatic generation of k-mesh.
 generate k-points for:    2    2    2
Space group operators:
 irot       det(A)        alpha          n_x          n_y          n_z        tau_x        tau_y        tau_z
    1     1.000000     0.000000     1.000000     0.000000     0.000000     0.000000     0.000000     0.000000
 
 Subroutine IBZKPT returns following result:
 ===========================================
 
 Found      8 irreducible k-points:
 
 Following reciprocal coordinates:
            Coordinates               Weight
  0.000000  0.000000  0.000000      1.000000
  0.500000 -0.000000 -0.000000      1.000000
  0.000000  0.500000  0.000000      1.000000
  0.500000  0.500000 -0.000000      1.000000
  0.000000  0.000000  0.500000      1.000000
  0.500000 -0.000000  0.500000      1.000000
  0.000000  0.500000  0.500000      1.000000
  0.500000  0.500000  0.500000      1.000000
 
 Following cartesian coordinates:
            Coordinates               Weight
  0.000000  0.000000  0.000000      1.000000
  0.049905  0.028813 -0.000000      1.000000
  0.000000  0.057626  0.000000      1.000000
  0.049905  0.086438 -0.000000      1.000000
  0.000000  0.000000  0.044571      1.000000
  0.049905  0.028813  0.044571      1.000000
  0.000000  0.057626  0.044571      1.000000
  0.049905  0.086438  0.044571      1.000000
 


--------------------------------------------------------------------------------------------------------




 Dimension of arrays:
   k-points           NKPTS =      8   k-points in BZ     NKDIM =      8   number of bands    NBANDS=    480
   number of dos      NEDOS =    301   number of ions     NIONS =     88
   non local maximal  LDIM  =      6   non local SUM 2l+1 LMDIM =     18
   total plane-waves  NPLWV = 140000
   max r-space proj   IRMAX =   1632   max aug-charges    IRDMAX=   4555
   dimension x,y,z NGX =    50 NGY =   50 NGZ =   56
   dimension x,y,z NGXF=   100 NGYF=  100 NGZF=  112
   support grid    NGXF=   100 NGYF=  100 NGZF=  112
   ions per type =              16   8  16  48
   NGX,Y,Z   is equivalent  to a cutoff of   8.30,  8.30,  8.30 a.u.
   NGXF,Y,Z  is equivalent  to a cutoff of  16.59, 16.59, 16.60 a.u.

 SYSTEM =  unknown system                          
 POSCAR =  Na Mg Mn  O                             

 Startparameter for this run:
   NWRITE =      2    write-flag & timer
   PREC   = normal    normal or accurate (medium, high low for compatibility)
   ISTART =      0    job   : 0-new  1-cont  2-samecut
   ICHARG =      1    charge: 1-file 2-atom 10-const
   ISPIN  =      2    spin polarized calculation?
   LNONCOLLINEAR =      F non collinear calculations
   LSORBIT =      F    spin-orbit coupling
   INIWAV =      1    electr: 0-lowe 1-rand  2-diag
   LASPH  =      T    aspherical Exc in radial PAW
   METAGGA=      F    non-selfconsistent MetaGGA calc.

 Electronic Relaxation 1
   ENCUT  =  400.0 eV  29.40 Ry    5.42 a.u.  16.34 16.34 18.29*2*pi/ulx,y,z
   ENINI  =  400.0     initial cutoff
   ENAUG  =  758.8 eV  augmentation charge cutoff
   NELM   =    200;   NELMIN=  6; NELMDL=-12     # of ELM steps 
   EDIFF  = 0.1E-04   stopping-criterion for ELM
   LREAL  =      T    real-space projection
   NLSPLINE    = F    spline interpolate recip. space projectors
   LCOMPAT=      F    compatible to vasp.4.4
   GGA_COMPAT  = T    GGA compatible to vasp.4.4-vasp.4.6
   LMAXPAW     = -100 max onsite density
   LMAXMIX     =    4 max onsite mixed and CHGCAR
   VOSKOWN=      0    Vosko Wilk Nusair interpolation
   ROPT   =   -0.00050  -0.00050  -0.00050  -0.00050
 Ionic relaxation
   EDIFFG = 0.1E-03   stopping-criterion for IOM
   NSW    =      1    number of steps for IOM
   NBLOCK =      1;   KBLOCK =      1    inner block; outer block 
   IBRION =     -1    ionic relax: 0-MD 1-quasi-New 2-CG
   NFREE  =      0    steps in history (QN), initial steepest desc. (CG)
   ISIF   =      2    stress and relaxation
   IWAVPR =     10    prediction:  0-non 1-charg 2-wave 3-comb
   ISYM   =      2    0-nonsym 1-usesym 2-fastsym
   LCORR  =      T    Harris-Foulkes like correction to forces

   POTIM  = 0.5000    time-step for ionic-motion
   TEIN   =    0.0    initial temperature
   TEBEG  =    0.0;   TEEND  =   0.0 temperature during run
   SMASS  =  -3.00    Nose mass-parameter (am)
   estimated Nose-frequenzy (Omega)   =  0.10E-29 period in steps =****** mass=  -0.229E-26a.u.
   SCALEE = 1.0000    scale energy and forces
   NPACO  =    256;   APACO  = 16.0  distance and # of slots for P.C.
   PSTRESS=    0.0 pullay stress

  Mass of Ions in am
   POMASS =  22.99 24.30 54.94 16.00
  Ionic Valenz
   ZVAL   =   7.00  8.00 13.00  6.00
  Atomic Wigner-Seitz radii
   RWIGS  =  -1.00 -1.00 -1.00 -1.00
  virtual crystal weights 
   VCA    =   1.00  1.00  1.00  1.00
   NELECT =     672.0000    total number of electrons
   NUPDOWN=      48.0000    fix difference up-down

 DOS related values:
   EMIN   =  10.00;   EMAX   =-10.00  energy-range for DOS
   EFERMI =   0.00
   ISMEAR =     0;   SIGMA  =   0.05  broadening in eV -4-tet -1-fermi 0-gaus

 Electronic relaxation 2 (details)
   IALGO  =     48    algorithm
   LDIAG  =      T    sub-space diagonalisation (order eigenvalues)
   LSUBROT=      F    optimize rotation matrix (better conditioning)
   TURBO    =      0    0=normal 1=particle mesh
   IRESTART =      0    0=no restart 2=restart with 2 vectors
   NREBOOT  =      0    no. of reboots
   NMIN     =      0    reboot dimension
   EREF     =   0.00    reference energy to select bands
   IMIX   =      4    mixing-type and parameters
     AMIX     =   0.40;   BMIX     =  1.00
     AMIX_MAG =   1.60;   BMIX_MAG =  1.00
     AMIN     =   0.10
     WC   =   100.;   INIMIX=   1;  MIXPRE=   1;  MAXMIX= -45

 Intra band minimization:
   WEIMIN = 0.0000     energy-eigenvalue tresh-hold
   EBREAK =  0.52E-08  absolut break condition
   DEPER  =   0.30     relativ break condition  

   TIME   =   0.40     timestep for ELM

  volume/ion in A,a.u.               =      11.08        74.78
  Fermi-wavevector in a.u.,A,eV,Ry     =   1.445993  2.732531 28.448379  2.090897
  Thomas-Fermi vector in A             =   2.564112
 
 Write flags
   LWAVE        =      F    write WAVECAR
   LDOWNSAMPLE  =      F    k-point downsampling of WAVECAR
   LCHARG       =      F    write CHGCAR
   LVTOT        =      F    write LOCPOT, total local potential
   LVHAR        =      F    write LOCPOT, Hartree potential only
   LELF         =      F    write electronic localiz. function (ELF)
   LORBIT       =     11    0 simple, 1 ext, 2 COOP (PROOUT), +10 PAW based schemes


 Dipole corrections
   LMONO  =      F    monopole corrections only (constant potential shift)
   LDIPOL =      F    correct potential (dipole corrections)
   IDIPOL =      0    1-x, 2-y, 3-z, 4-all directions 
   EPSILON=  1.0000000 bulk dielectric constant

 Exchange correlation treatment:
   GGA     =    --    GGA type
   LEXCH   =     8    internal setting for exchange type
   VOSKOWN=      0    Vosko Wilk Nusair interpolation
   LHFCALC =     F    Hartree Fock is set to
   LHFONE  =     F    Hartree Fock one center treatment
   AEXX    =    0.0000 exact exchange contribution

 Linear response parameters
   LEPSILON=     F    determine dielectric tensor
   LRPA    =     F    only Hartree local field effects (RPA)
   LNABLA  =     F    use nabla operator in PAW spheres
   LVEL    =     F    velocity operator in full k-point grid
   LINTERFAST=   F  fast interpolation
   KINTER  =     0    interpolate to denser k-point grid
   CSHIFT  =0.1000    complex shift for real part using Kramers Kronig
   OMEGAMAX=  -1.0    maximum frequency
   DEG_THRESHOLD= 0.2000000E-02 threshold for treating states as degnerate
   RTIME   =   -0.100 relaxation time in fs
  (WPLASMAI=    0.000 imaginary part of plasma frequency in eV, 0.658/RTIME)
   DFIELD  = 0.0000000 0.0000000 0.0000000 field for delta impulse in time
 
 Orbital magnetization related:
   ORBITALMAG=     F  switch on orbital magnetization
   LCHIMAG   =     F  perturbation theory with respect to B field
   DQ        =  0.001000  dq finite difference perturbation B field
   LLRAUG    =     F  two centre corrections for induced B field



--------------------------------------------------------------------------------------------------------


 Static calculation
 charge density and potential will be updated during run
 spin polarized calculation
 RMM-DIIS sequential band-by-band
 perform sub-space diagonalisation
    before iterative eigenvector-optimisation
 modified Broyden-mixing scheme, WC =      100.0
 initial mixing is a Kerker type mixing with AMIX =  0.4000 and BMIX =      1.0000
 Hartree-type preconditioning will be used
 using additional bands          144
 real space projection scheme for non local part
 use partial core corrections
 calculate Harris-corrections to forces 
   (improved forces if not selfconsistent)
 use gradient corrections 
 use of overlap-Matrix (Vanderbilt PP)
 Gauss-broadening in eV      SIGMA  =   0.05


--------------------------------------------------------------------------------------------------------


  energy-cutoff  :      400.00
  volume of cell :      975.20
      direct lattice vectors                 reciprocal lattice vectors
    10.019000053  0.000000000  0.000000000     0.099810360  0.057625538 -0.000000000
    -5.009500027  8.676708567  0.000000000     0.000000000  0.115251076  0.000000000
     0.000000000  0.000000000 11.218000412     0.000000000  0.000000000  0.089142446

  length of vectors
    10.019000053 10.019000053 11.218000412     0.115251076  0.115251076  0.089142446


 
 k-points in units of 2pi/SCALE and weight: read from INCAR                         
   0.00000000  0.00000000  0.00000000       0.125
   0.04990518  0.02881277 -0.00000000       0.125
   0.00000000  0.05762554  0.00000000       0.125
   0.04990518  0.08643831 -0.00000000       0.125
   0.00000000  0.00000000  0.04457122       0.125
   0.04990518  0.02881277  0.04457122       0.125
   0.00000000  0.05762554  0.04457122       0.125
   0.04990518  0.08643831  0.04457122       0.125
 
 k-points in reciprocal lattice and weights: read from INCAR                         
   0.00000000  0.00000000  0.00000000       0.125
   0.50000000 -0.00000000 -0.00000000       0.125
   0.00000000  0.50000000  0.00000000       0.125
   0.50000000  0.50000000 -0.00000000       0.125
   0.00000000  0.00000000  0.50000000       0.125
   0.50000000 -0.00000000  0.50000000       0.125
   0.00000000  0.50000000  0.50000000       0.125
   0.50000000  0.50000000  0.50000000       0.125
 
 position of ions in fractional coordinates (direct lattice) 
   0.81225056  0.03584555  0.24796041
   0.05556444  0.23434956  0.74863164
   0.02422838  0.73245714  0.76228380
   0.57839676  0.49527042  0.74453197
   0.01446534  0.41137604  0.26048760
   0.71665792  0.42874454  0.25216794
   0.33325775  0.08010971  0.75123460
   0.53358570  0.93848111  0.75058386
   0.50325889  0.06181870  0.25119807
   0.99029440  0.87540865  0.24965501
   0.30116856  0.20313760  0.24435906
   0.83447779  0.89638945  0.75097163
   0.32346226  0.58947369  0.75415936
   0.83125542  0.38589633  0.75918967
   0.32951153  0.73364126  0.25328935
   0.53164037  0.59716637  0.23441967
   0.67625029  0.23972685  0.99066260
   0.66707566  0.23946523  0.49526384
   0.16534949  0.24098424  0.99510965
   0.16808325  0.22800581  0.50596629
   0.18276658  0.74696643  0.01329110
   0.17571650  0.73553122  0.50571669
   0.67449137  0.74022539  0.99457417
   0.66197140  0.73963300  0.48998839
   0.00996502  0.90947390  0.98771617
   0.34484190  0.07966685  0.00660219
   0.00248643  0.89436103  0.50181314
   0.33534387  0.06845199  0.48890175
   0.50675485  0.90474515  0.00206807
   0.83795230  0.07318778  0.00082899
   0.49898337  0.90104790  0.49517648
   0.83382327  0.07149923  0.50334104
   0.50838576  0.40843137  0.00292942
   0.83934430  0.57521121  0.00021974
   0.50531899  0.40525621  0.49827508
   0.83395474  0.56454587  0.50688624
   0.99531464  0.40471453  0.99673316
   0.33423087  0.56744328  0.01276190
   0.99670231  0.39993622  0.50597520
   0.33586982  0.56699265  0.49245140
   0.17127292  0.06432047  0.08629319
   0.35982027  0.92853166  0.10093867
   0.49390055  0.24530385  0.09480656
   0.16787710  0.91773643  0.59169101
   0.35410361  0.23966346  0.58938490
   0.47908071  0.05334258  0.58479406
   0.18460964  0.92460205  0.90528611
   0.35124519  0.24525314  0.91044746
   0.49328746  0.06615573  0.91101797
   0.16022855  0.05411315  0.40447761
   0.33997407  0.90494863  0.40649669
   0.49008313  0.23063239  0.39259849
   0.68154170  0.07023781  0.09415760
   0.85465394  0.92057449  0.08409716
   0.98901785  0.24350132  0.09218220
   0.67438660  0.91294130  0.58769297
   0.84516859  0.23365888  0.59527365
   0.99209746  0.05740184  0.59123014
   0.66845066  0.91533829  0.90293275
   0.85105564  0.23033965  0.90586554
   0.99339996  0.05769123  0.89788729
   0.67117532  0.05597676  0.40216436
   0.84916429  0.90722968  0.40628007
   0.98810375  0.23677642  0.40621678
   0.67147445  0.57107946  0.09544927
   0.83841067  0.40542102  0.08929131
   0.99650033  0.74490804  0.09226332
   0.65853203  0.39683251  0.58858974
   0.84919717  0.73452968  0.59578621
   0.97920000  0.54991014  0.60890887
   0.67781430  0.42003024  0.91561772
   0.85412822  0.74676128  0.90804953
   0.99067738  0.56048442  0.89956317
   0.67800197  0.56361349  0.40054643
   0.84222876  0.41121469  0.41652789
   0.99021094  0.72532458  0.41542519
   0.16961723  0.55950594  0.10083704
   0.34211217  0.40527234  0.09480210
   0.49289234  0.73868218  0.09750579
   0.17079846  0.41641597  0.59745942
   0.35848764  0.73408481  0.58475662
   0.49316942  0.55593662  0.59088249
   0.17505315  0.42065606  0.91384379
   0.34502307  0.73728418  0.92143873
   0.49674943  0.56682554  0.91084860
   0.15650568  0.54871153  0.41347208
   0.35037699  0.40865496  0.39477713
   0.49207190  0.72933993  0.39256551
 
 position of ions in cartesian coordinates  (Angst):
   7.95837008  0.31102143  2.78162000
  -0.61727400  2.03338287  8.39815000
  -3.42649995  6.35531713  8.55130000
   3.31389995  4.29731713  8.35216000
  -1.91586005  3.56939000  2.92215000
   5.03239992  3.72009143  2.82882000
   2.93759981  0.69508857  8.42735000
   0.64467400  8.14292713  8.42005000
   4.73247005  0.53638287  2.81794000
   5.53639995  7.59566573  2.80063000
   1.99979005  1.76256573  2.74122000
   3.87017005  7.77771000  8.42440000
   0.28779992  5.11469143  8.46016000
   6.39520037  3.34831000  8.51659000
  -0.37379987  6.36559143  2.84140000
   2.33499992  5.18143857  2.62972000
   5.57444000  2.08004000 11.11325341
   5.48383000  2.07777000  5.55587000
   0.44942600  2.09095000 11.16314041
   0.54183100  1.97834000  5.67593000
  -1.91079000  6.48121000  0.14909959
  -1.92414000  6.38199000  5.67313000
   3.04957000  6.42272000 11.15713341
   2.92710000  6.41758000  5.49669000
  -4.45617005  7.89124000 11.08020041
   3.05588000  0.69124600  0.07406340
  -4.45539005  7.76011000  5.62934000
   3.01690000  0.59393800  5.48450000
   0.54485600  7.85021000  0.02319959
   8.02881000  0.63502900  0.00929959
   0.48551500  7.81813000  5.55489000
   7.99590000  0.62037800  5.64648000
   3.04748000  3.54384000  0.03286220
   5.52787000  4.99094000  0.00246509
   3.03266000  3.51629000  5.58965000
   5.52730000  4.89840000  5.68625000
   7.94464000  3.51159000 11.18135301
   0.50605200  4.92354000  0.14316300
   7.98248000  3.47013000  5.67603000
   0.52473000  4.91963000  5.52432000
   1.39377000  0.55809000  0.96803700
  -1.04644003  8.05659857  1.13233000
   3.71954000  2.12843000  1.06354000
  -2.91544003  7.96293157  6.63759000
   2.34717000  2.07949000  6.61172000
   4.53269000  0.46283800  6.56022000
  -2.78219003  8.02250257 10.15550000
   2.29053000  2.12799000 10.21340000
   4.61084000  0.57401400 10.21980000
   1.33425000  0.46952400  4.53743000
  -1.12714003  7.85197557  4.56008000
   3.75479000  2.00113000  4.40417000
   6.47651000  0.60943300  1.05626000
   3.95115997  7.98755657  0.94340200
   8.68915000  2.11279000  1.03410000
   2.18329997  7.92132557  6.59274000
   7.29723000  2.02739000  6.67778000
   9.65227000  0.49805900  6.63242000
   2.11181997  7.94212357 10.12910000
   7.37284000  1.99859000 10.16200000
   9.66387000  0.50057000 10.07250000
   6.44409000  0.48569400  4.51148000
   3.96300997  7.87176757  4.55765000
   8.71368000  2.05444000  4.55694000
   3.86668000  4.95509000  1.07075000
   6.36908000  3.51772000  1.00167000
   6.25232000  6.46335000  1.03501000
   4.60990000  3.44320000  6.60280000
   4.82848000  6.37330000  6.68353000
   7.05583000  4.77141000  6.83074000
   4.68688000  3.64448000 10.27140000
   4.81661000  6.47943000 10.18650000
   7.11785000  4.86316000 10.09130000
   3.96948000  4.89031000  4.49333000
   6.37831000  3.56799000  4.67261000
   6.28741000  6.29343000  4.66024000
  -1.10345000  4.85467000  1.13119000
   1.39741000  3.51643000  1.06349000
   1.23786000  6.40933000  1.09382000
  -0.37480600  3.61312000  6.70230000
  -0.08571020  6.36944000  6.55980000
   2.15610000  4.82370000  6.62852000
  -0.35341900  3.64991000 10.25150000
  -0.23663900  6.39720000 10.33670000
   2.13742000  4.91818000 10.21790000
  -1.18074000  4.76101000  4.63833000
   1.46327000  3.54578000  4.42861000
   1.27644000  6.32827000  4.40380000
 


--------------------------------------------------------------------------------------------------------


 k-point  1 :   0.0000 0.0000 0.0000  plane waves:   17725
 k-point  2 :   0.5000-0.0000-0.0000  plane waves:   17736
 k-point  3 :   0.0000 0.5000 0.0000  plane waves:   17736
 k-point  4 :   0.5000 0.5000-0.0000  plane waves:   17736
 k-point  5 :   0.0000 0.0000 0.5000  plane waves:   17676
 k-point  6 :   0.5000-0.0000 0.5000  plane waves:   17700
 k-point  7 :   0.0000 0.5000 0.5000  plane waves:   17700
 k-point  8 :   0.5000 0.5000 0.5000  plane waves:   17700

 maximum and minimum number of plane-waves per node :     17736    17676

 maximum number of plane-waves:     17736
 maximum index in each direction: 
   IXMAX=   16   IYMAX=   16   IZMAX=   18
   IXMIN=  -16   IYMIN=  -16   IZMIN=  -18


 serial   3D FFT for wavefunctions
 parallel 3D FFT for charge:
    minimum data exchange during FFTs selected (reduces bandwidth)


 total amount of memory used by VASP MPI-rank0    94437. kBytes
=======================================================================

   base      :      30000. kBytes
   nonlr-proj:      13678. kBytes
   fftplans  :       1275. kBytes
   grid      :      22786. kBytes
   one-center:       2737. kBytes
   wavefun   :      23961. kBytes
 
     INWAV:  cpu time    0.0000: real time    0.0001
 Broyden mixing: mesh for mixing (old mesh)
   NGX = 33   NGY = 33   NGZ = 37
  (NGX  =100   NGY  =100   NGZ  =112)
  gives a total of  40293 points

 initial charge density was supplied:
 charge density of overlapping atoms calculated
 number of electron     672.0000000 magnetization      48.0000000
 keeping initial charge density in first step


--------------------------------------------------------------------------------------------------------


 Maximum index for non-local projection operator         1554
 Maximum index for augmentation-charges          547 (set IRDMAX)


--------------------------------------------------------------------------------------------------------


 First call to EWALD:  gamma=   0.179
 Maximum number of real-space cells 3x 3x 2
 Maximum number of reciprocal cells 3x 3x 3

    FEWALD:  cpu time    0.0028: real time    0.0028


--------------------------------------- Iteration      1(   1)  ---------------------------------------


    POTLOK:  cpu time    0.1887: real time    0.1905
    SETDIJ:  cpu time    4.6124: real time    4.6235
    EDDIAG:  cpu time    4.5190: real time    4.8611
  RMM-DIIS:  cpu time    9.1227: real time    9.1535
    ORTHCH:  cpu time    1.1745: real time    1.2572
       DOS:  cpu time    0.0021: real time    0.0021
    --------------------------------------------
      LOOP:  cpu time   19.6194: real time   20.0879

 eigenvalue-minimisations  :  7680
 total energy-change (2. order) : 0.1593992E+04  (-0.3496836E+05)
 number of electron     672.0000000 magnetization      48.0000000
 augmentation part      672.0000000 magnetization      48.0000000

 Free energy of the ion-electron system (eV)
  ---------------------------------------------------
  alpha Z        PSCENC =      2652.81237852
  Ewald energy   TEWEN  =    -41843.81173383
  -Hartree energ DENC   =    -25769.13199551
  -exchange      EXHF   =         0.00000000
  -V(xc)+E(xc)   XCENC  =      3605.89250224
  PAW double counting   =     55594.23204139   -59034.67079123
  entropy T*S    EENTRO =        -0.05487516
  eigenvalues    EBANDS =     -7473.47368981
  atomic energy  EATOM  =     73862.19814772
  Solvation  Ediel_sol  =         0.00000000
  ---------------------------------------------------
  free energy    TOTEN  =      1593.99198433 eV

  energy without entropy =     1594.04685950  energy(sigma->0) =     1594.01942192


--------------------------------------------------------------------------------------------------------




--------------------------------------- Iteration      1(   2)  ---------------------------------------


    EDDIAG:  cpu time    4.4590: real time    4.8218
  RMM-DIIS:  cpu time    9.0979: real time    9.1391
    ORTHCH:  cpu time    1.1862: real time    1.2672
       DOS:  cpu time    0.0028: real time    0.0028
    --------------------------------------------
      LOOP:  cpu time   14.7459: real time   15.2308

 eigenvalue-minimisations  :  7680
 total energy-change (2. order) :-0.2323924E+04  (-0.8027281E+04)
 number of electron     672.0000000 magnetization      48.0000000
 augmentation part      672.0000000 magnetization      48.0000000

 Free energy of the ion-electron system (eV)
  ---------------------------------------------------
  alpha Z        PSCENC =      2652.81237852
  Ewald energy   TEWEN  =    -41843.81173383
  -Hartree energ DENC   =    -25769.13199551
  -exchange      EXHF   =         0.00000000
  -V(xc)+E(xc)   XCENC  =      3605.89250224
  PAW double counting   =     55594.23204139   -59034.67079123
  entropy T*S    EENTRO =        -0.04072752
  eigenvalues    EBANDS =     -9797.41179606
  atomic energy  EATOM  =     73862.19814772
  Solvation  Ediel_sol  =         0.00000000
  ---------------------------------------------------
  free energy    TOTEN  =      -729.93197427 eV

  energy without entropy =     -729.89124675  energy(sigma->0) =     -729.91161051


--------------------------------------------------------------------------------------------------------




--------------------------------------- Iteration      1(   3)  ---------------------------------------


    EDDIAG:  cpu time    4.5086: real time    4.8711
  RMM-DIIS:  cpu time    9.1243: real time    9.1380
    ORTHCH:  cpu time    1.1753: real time    1.2574
       DOS:  cpu time    0.0026: real time    0.0025
    --------------------------------------------
      LOOP:  cpu time   14.8107: real time   15.2691

 eigenvalue-minimisations  :  7680
 total energy-change (2. order) : 0.8457415E+02  (-0.1419077E+04)
 number of electron     672.0000000 magnetization      48.0000000
 augmentation part      672.0000000 magnetization      48.0000000

 Free energy of the ion-electron system (eV)
  ---------------------------------------------------
  alpha Z        PSCENC =      2652.81237852
  Ewald energy   TEWEN  =    -41843.81173383
  -Hartree energ DENC   =    -25769.13199551
  -exchange      EXHF   =         0.00000000
  -V(xc)+E(xc)   XCENC  =      3605.89250224
  PAW double counting   =     55594.23204139   -59034.67079123
  entropy T*S    EENTRO =        -0.04199549
  eigenvalues    EBANDS =     -9712.83638185
  atomic energy  EATOM  =     73862.19814772
  Solvation  Ediel_sol  =         0.00000000
  ---------------------------------------------------
  free energy    TOTEN  =      -645.35782803 eV

  energy without entropy =     -645.31583254  energy(sigma->0) =     -645.33683029


--------------------------------------------------------------------------------------------------------




--------------------------------------- Iteration      1(   4)  ---------------------------------------


    EDDIAG:  cpu time    4.4879: real time    4.8431
  RMM-DIIS:  cpu time    9.0800: real time    9.1438
    ORTHCH:  cpu time    1.2018: real time    1.2829
       DOS:  cpu time    0.0011: real time    0.0011
    --------------------------------------------
      LOOP:  cpu time   14.7709: real time   15.2709

 eigenvalue-minimisations  :  7680
 total energy-change (2. order) :-0.4669106E+03  (-0.4277324E+03)
 number of electron     672.0000000 magnetization      48.0000000
 augmentation part      672.0000000 magnetization      48.0000000

 Free energy of the ion-electron system (eV)
  ---------------------------------------------------
  alpha Z        PSCENC =      2652.81237852
  Ewald energy   TEWEN  =    -41843.81173383
  -Hartree energ DENC   =    -25769.13199551
  -exchange      EXHF   =         0.00000000
  -V(xc)+E(xc)   XCENC  =      3605.89250224
  PAW double counting   =     55594.23204139   -59034.67079123
  entropy T*S    EENTRO =        -0.00000000
  eigenvalues    EBANDS =    -10179.78900647
  atomic energy  EATOM  =     73862.19814772
  Solvation  Ediel_sol  =         0.00000000
  ---------------------------------------------------
  free energy    TOTEN  =     -1112.26845716 eV

  energy without entropy =    -1112.26845716  energy(sigma->0) =    -1112.26845716


--------------------------------------------------------------------------------------------------------




--------------------------------------- Iteration      1(   5)  ---------------------------------------


    EDDIAG:  cpu time    4.4979: real time    4.8602
  RMM-DIIS:  cpu time    9.1205: real time    9.1319
    ORTHCH:  cpu time    1.1723: real time    1.2518
       DOS:  cpu time    0.0013: real time    0.0013
    --------------------------------------------
      LOOP:  cpu time   14.7920: real time   15.2452

 eigenvalue-minimisations  :  7680
 total energy-change (2. order) :-0.1038421E+03  (-0.1593646E+03)
 number of electron     672.0000000 magnetization      48.0000000
 augmentation part      672.0000000 magnetization      48.0000000

 Free energy of the ion-electron system (eV)
  ---------------------------------------------------
  alpha Z        PSCENC =      2652.81237852
  Ewald energy   TEWEN  =    -41843.81173383
  -Hartree energ DENC   =    -25769.13199551
  -exchange      EXHF   =         0.00000000
  -V(xc)+E(xc)   XCENC  =      3605.89250224
  PAW double counting   =     55594.23204139   -59034.67079123
  entropy T*S    EENTRO =        -0.00000000
  eigenvalues    EBANDS =    -10283.63115355
  atomic energy  EATOM  =     73862.19814772
  Solvation  Ediel_sol  =         0.00000000
  ---------------------------------------------------
  free energy    TOTEN  =     -1216.11060424 eV

  energy without entropy =    -1216.11060424  energy(sigma->0) =    -1216.11060424


--------------------------------------------------------------------------------------------------------




--------------------------------------- Iteration      1(   6)  ---------------------------------------


    EDDIAG:  cpu time    4.4578: real time    4.8245
  RMM-DIIS:  cpu time    9.0849: real time    9.1407
    ORTHCH:  cpu time    1.1977: real time    1.2810
       DOS:  cpu time    0.0013: real time    0.0013
    --------------------------------------------
      LOOP:  cpu time   14.7417: real time   15.2474

 eigenvalue-minimisations  :  7680
 total energy-change (2. order) :-0.8856288E+01  (-0.7906071E+02)
 number of electron     672.0000000 magnetization      48.0000000
 augmentation part      672.0000000 magnetization      48.0000000

 Free energy of the ion-electron system (eV)
  ---------------------------------------------------
  alpha Z        PSCENC =      2652.81237852
  Ewald energy   TEWEN  =    -41843.81173383
  -Hartree energ DENC   =    -25769.13199551
  -exchange      EXHF   =         0.00000000
  -V(xc)+E(xc)   XCENC  =      3605.89250224
  PAW double counting   =     55594.23204139   -59034.67079123
  entropy T*S    EENTRO =        -0.00000000
  eigenvalues    EBANDS =    -10292.48744128
  atomic energy  EATOM  =     73862.19814772
  Solvation  Ediel_sol  =         0.00000000
  ---------------------------------------------------
  free energy    TOTEN  =     -1224.96689197 eV

  energy without entropy =    -1224.96689197  energy(sigma->0) =    -1224.96689197


--------------------------------------------------------------------------------------------------------




--------------------------------------- Iteration      1(   7)  ---------------------------------------


    EDDIAG:  cpu time    4.4590: real time    4.8276
  RMM-DIIS:  cpu time    9.1225: real time    9.1331
    ORTHCH:  cpu time    1.1777: real time    1.2577
       DOS:  cpu time    0.0013: real time    0.0013
    --------------------------------------------
      LOOP:  cpu time   14.7606: real time   15.2197

 eigenvalue-minimisations  :  7680
 total energy-change (2. order) :-0.1737516E+01  (-0.4812680E+02)
 number of electron     672.0000000 magnetization      48.0000000
 augmentation part      672.0000000 magnetization      48.0000000

 Free energy of the ion-electron system (eV)
  ---------------------------------------------------
  alpha Z        PSCENC =      2652.81237852
  Ewald energy   TEWEN  =    -41843.81173383
  -Hartree energ DENC   =    -25769.13199551
  -exchange      EXHF   =         0.00000000
  -V(xc)+E(xc)   XCENC  =      3605.89250224
  PAW double counting   =     55594.23204139   -59034.67079123
  entropy T*S    EENTRO =        -0.00000000
  eigenvalues    EBANDS =    -10294.22495734
  atomic energy  EATOM  =     73862.19814772
  Solvation  Ediel_sol  =         0.00000000
  ---------------------------------------------------
  free energy    TOTEN  =     -1226.70440803 eV

  energy without entropy =    -1226.70440803  energy(sigma->0) =    -1226.70440803


--------------------------------------------------------------------------------------------------------




--------------------------------------- Iteration      1(   8)  ---------------------------------------


    EDDIAG:  cpu time    4.4636: real time    4.8266
  RMM-DIIS:  cpu time    9.1004: real time    9.1220
    ORTHCH:  cpu time    1.1728: real time    1.2542
       DOS:  cpu time    0.0019: real time    0.0019
    --------------------------------------------
      LOOP:  cpu time   14.7386: real time   15.2047

 eigenvalue-minimisations  :  7680
 total energy-change (2. order) : 0.5002726E+01  (-0.2985048E+02)
 number of electron     672.0000000 magnetization      48.0000000
 augmentation part      672.0000000 magnetization      48.0000000

 Free energy of the ion-electron system (eV)
  ---------------------------------------------------
  alpha Z        PSCENC =      2652.81237852
  Ewald energy   TEWEN  =    -41843.81173383
  -Hartree energ DENC   =    -25769.13199551
  -exchange      EXHF   =         0.00000000
  -V(xc)+E(xc)   XCENC  =      3605.89250224
  PAW double counting   =     55594.23204139   -59034.67079123
  entropy T*S    EENTRO =        -0.00000000
  eigenvalues    EBANDS =    -10289.22223106
  atomic energy  EATOM  =     73862.19814772
  Solvation  Ediel_sol  =         0.00000000
  ---------------------------------------------------
  free energy    TOTEN  =     -1221.70168176 eV

  energy without entropy =    -1221.70168176  energy(sigma->0) =    -1221.70168176


--------------------------------------------------------------------------------------------------------




--------------------------------------- Iteration      1(   9)  ---------------------------------------


    EDDIAG:  cpu time    4.5150: real time    4.8527
  RMM-DIIS:  cpu time   18.9708: real time   19.1229
    ORTHCH:  cpu time    1.1821: real time    1.2648
       DOS:  cpu time    0.0018: real time    0.0018
    --------------------------------------------
      LOOP:  cpu time   24.6697: real time   25.2421

 eigenvalue-minimisations  : 21806
 total energy-change (2. order) : 0.9236217E+01  (-0.1313323E+02)
 number of electron     672.0000000 magnetization      48.0000000
 augmentation part      672.0000000 magnetization      48.0000000

 Free energy of the ion-electron system (eV)
  ---------------------------------------------------
  alpha Z        PSCENC =      2652.81237852
  Ewald energy   TEWEN  =    -41843.81173383
  -Hartree energ DENC   =    -25769.13199551
  -exchange      EXHF   =         0.00000000
  -V(xc)+E(xc)   XCENC  =      3605.89250224
  PAW double counting   =     55594.23204139   -59034.67079123
  entropy T*S    EENTRO =        -0.00000000
  eigenvalues    EBANDS =    -10279.98601432
  atomic energy  EATOM  =     73862.19814772
  Solvation  Ediel_sol  =         0.00000000
  ---------------------------------------------------
  free energy    TOTEN  =     -1212.46546501 eV

  energy without entropy =    -1212.46546501  energy(sigma->0) =    -1212.46546501


--------------------------------------------------------------------------------------------------------




--------------------------------------- Iteration      1(  10)  ---------------------------------------


    EDDIAG:  cpu time    4.5387: real time    4.8821
  RMM-DIIS:  cpu time   18.1483: real time   18.1608
    ORTHCH:  cpu time    1.1899: real time    1.2710
       DOS:  cpu time    0.0015: real time    0.0015
    --------------------------------------------
      LOOP:  cpu time   23.8784: real time   24.3153

 eigenvalue-minimisations  : 19742
 total energy-change (2. order) :-0.1856913E+01  (-0.5212350E+00)
 number of electron     672.0000000 magnetization      48.0000000
 augmentation part      672.0000000 magnetization      48.0000000

 Free energy of the ion-electron system (eV)
  ---------------------------------------------------
  alpha Z        PSCENC =      2652.81237852
  Ewald energy   TEWEN  =    -41843.81173383
  -Hartree energ DENC   =    -25769.13199551
  -exchange      EXHF   =         0.00000000
  -V(xc)+E(xc)   XCENC  =      3605.89250224
  PAW double counting   =     55594.23204139   -59034.67079123
  entropy T*S    EENTRO =        -0.00000001
  eigenvalues    EBANDS =    -10281.84292774
  atomic energy  EATOM  =     73862.19814772
  Solvation  Ediel_sol  =         0.00000000
  ---------------------------------------------------
  free energy    TOTEN  =     -1214.32237844 eV

  energy without entropy =    -1214.32237843  energy(sigma->0) =    -1214.32237843


--------------------------------------------------------------------------------------------------------




--------------------------------------- Iteration      1(  11)  ---------------------------------------


    EDDIAG:  cpu time    4.5441: real time    4.8974
  RMM-DIIS:  cpu time   19.8778: real time   19.8862
    ORTHCH:  cpu time    1.1717: real time    1.2540
       DOS:  cpu time    0.0015: real time    0.0015
    --------------------------------------------
      LOOP:  cpu time   25.5951: real time   26.0392

 eigenvalue-minimisations  : 22548
 total energy-change (2. order) : 0.6925319E-01  (-0.4286609E-01)
 number of electron     672.0000000 magnetization      48.0000000
 augmentation part      672.0000000 magnetization      48.0000000

 Free energy of the ion-electron system (eV)
  ---------------------------------------------------
  alpha Z        PSCENC =      2652.81237852
  Ewald energy   TEWEN  =    -41843.81173383
  -Hartree energ DENC   =    -25769.13199551
  -exchange      EXHF   =         0.00000000
  -V(xc)+E(xc)   XCENC  =      3605.89250224
  PAW double counting   =     55594.23204139   -59034.67079123
  entropy T*S    EENTRO =        -0.00000001
  eigenvalues    EBANDS =    -10281.77367455
  atomic energy  EATOM  =     73862.19814772
  Solvation  Ediel_sol  =         0.00000000
  ---------------------------------------------------
  free energy    TOTEN  =     -1214.25312525 eV

  energy without entropy =    -1214.25312524  energy(sigma->0) =    -1214.25312525


--------------------------------------------------------------------------------------------------------




--------------------------------------- Iteration      1(  12)  ---------------------------------------


    EDDIAG:  cpu time    4.5099: real time    4.8533
  RMM-DIIS:  cpu time   21.6570: real time   21.6868
    ORTHCH:  cpu time    1.1726: real time    1.2545
       DOS:  cpu time    0.0022: real time    0.0022
    CHARGE:  cpu time    1.7862: real time    1.7877
    MIXING:  cpu time    0.0011: real time    0.0013
    --------------------------------------------
      LOOP:  cpu time   29.1289: real time   29.5858

 eigenvalue-minimisations  : 24420
 total energy-change (2. order) :-0.7944780E-03  (-0.4292493E-02)
 number of electron     671.9999955 magnetization      48.0000008
 augmentation part      239.0558700 magnetization      29.0405392

 Broyden mixing:
  rms(total) = 0.12523E+02    rms(broyden)= 0.12514E+02
  rms(prec ) = 0.14380E+02
  weight for this iteration     100.00

 Free energy of the ion-electron system (eV)
  ---------------------------------------------------
  alpha Z        PSCENC =      2652.81237852
  Ewald energy   TEWEN  =    -41843.81173383
  -Hartree energ DENC   =    -25769.13199551
  -exchange      EXHF   =         0.00000000
  -V(xc)+E(xc)   XCENC  =      3605.89250224
  PAW double counting   =     55594.23204139   -59034.67079123
  entropy T*S    EENTRO =        -0.00000001
  eigenvalues    EBANDS =    -10281.77446903
  atomic energy  EATOM  =     73862.19814772
  Solvation  Ediel_sol  =         0.00000000
  ---------------------------------------------------
  free energy    TOTEN  =     -1214.25391973 eV

  energy without entropy =    -1214.25391972  energy(sigma->0) =    -1214.25391973


--------------------------------------------------------------------------------------------------------




--------------------------------------- Iteration      1(  13)  ---------------------------------------


    POTLOK:  cpu time    0.1721: real time    0.1735
    SETDIJ:  cpu time    4.9716: real time    4.9725
    EDDIAG:  cpu time    4.5683: real time    4.8883
  RMM-DIIS:  cpu time   17.2784: real time   17.3359
    ORTHCH:  cpu time    1.1701: real time    1.2528
       DOS:  cpu time    0.0017: real time    0.0017
    CHARGE:  cpu time    1.7864: real time    1.7882
    MIXING:  cpu time    0.0009: real time    0.0009
    --------------------------------------------
      LOOP:  cpu time   29.9495: real time   30.4139

 eigenvalue-minimisations  : 18786
 total energy-change (2. order) : 0.2274887E+03  (-0.1217622E+03)
 number of electron     672.0000030 magnetization      48.0000008
 augmentation part      269.2341654 magnetization      26.2669521

 Broyden mixing:
  rms(total) = 0.14040E+02    rms(broyden)= 0.14037E+02
  rms(prec ) = 0.15832E+02
  weight for this iteration     100.00

 eigenvalues of (default mixing * dielectric matrix)
  average eigenvalue GAMMA=   0.3165
  0.3165

 Free energy of the ion-electron system (eV)
  ---------------------------------------------------
  alpha Z        PSCENC =      2652.81237852
  Ewald energy   TEWEN  =    -41843.81173383
  -Hartree energ DENC   =    -25096.17175057
  -exchange      EXHF   =         0.00000000
  -V(xc)+E(xc)   XCENC  =      3696.04762574
  PAW double counting   =     59873.46916026   -63298.46344909
  entropy T*S    EENTRO =        -0.08110982
  eigenvalues    EBANDS =    -10832.76451608
  atomic energy  EATOM  =     73862.19814772
  Solvation  Ediel_sol  =         0.00000000
  ---------------------------------------------------
  free energy    TOTEN  =      -986.76524713 eV

  energy without entropy =     -986.68413731  energy(sigma->0) =     -986.72469222


--------------------------------------------------------------------------------------------------------




--------------------------------------- Iteration      1(  14)  ---------------------------------------


    POTLOK:  cpu time    0.1766: real time    0.1766
    SETDIJ:  cpu time    4.9555: real time    4.9564
    EDDIAG:  cpu time    4.5246: real time    4.8910
  RMM-DIIS:  cpu time   17.8974: real time   17.9022
    ORTHCH:  cpu time    1.1717: real time    1.2532
       DOS:  cpu time    0.0014: real time    0.0014
    CHARGE:  cpu time    1.7894: real time    1.7898
    MIXING:  cpu time    0.0011: real time    0.0011
    --------------------------------------------
      LOOP:  cpu time   30.5177: real time   30.9716

 eigenvalue-minimisations  : 19378
 total energy-change (2. order) : 0.7020082E+02  (-0.1815772E+02)
 number of electron     671.9999983 magnetization      48.0000013
 augmentation part      246.5317055 magnetization      32.1417262

 Broyden mixing:
  rms(total) = 0.52624E+01    rms(broyden)= 0.52581E+01
  rms(prec ) = 0.57076E+01
  weight for this iteration     100.00

 eigenvalues of (default mixing * dielectric matrix)
  average eigenvalue GAMMA=   0.7285
  1.1009  0.3560

 Free energy of the ion-electron system (eV)
  ---------------------------------------------------
  alpha Z        PSCENC =      2652.81237852
  Ewald energy   TEWEN  =    -41843.81173383
  -Hartree energ DENC   =    -25711.62354286
  -exchange      EXHF   =         0.00000000
  -V(xc)+E(xc)   XCENC  =      3673.12391436
  PAW double counting   =     63252.84333479   -66734.91596169
  entropy T*S    EENTRO =        -0.00000000
  eigenvalues    EBANDS =    -10067.19096576
  atomic energy  EATOM  =     73862.19814772
  Solvation  Ediel_sol  =         0.00000000
  ---------------------------------------------------
  free energy    TOTEN  =      -916.56442874 eV

  energy without entropy =     -916.56442874  energy(sigma->0) =     -916.56442874


--------------------------------------------------------------------------------------------------------




--------------------------------------- Iteration      1(  15)  ---------------------------------------


    POTLOK:  cpu time    0.1755: real time    0.1755
    SETDIJ:  cpu time    4.9289: real time    4.9694
    EDDIAG:  cpu time    4.4641: real time    4.8243
  RMM-DIIS:  cpu time   18.1219: real time   18.1556
    ORTHCH:  cpu time    1.1733: real time    1.2553
       DOS:  cpu time    0.0011: real time    0.0011
    CHARGE:  cpu time    1.7873: real time    1.7879
    MIXING:  cpu time    0.0009: real time    0.0009
    --------------------------------------------
      LOOP:  cpu time   30.6530: real time   31.1701

 eigenvalue-minimisations  : 20257
 total energy-change (2. order) : 0.1475640E+02  (-0.2120976E+01)
 number of electron     671.9999987 magnetization      48.0000018
 augmentation part      249.6568114 magnetization      33.8155907

 Broyden mixing:
  rms(total) = 0.21910E+01    rms(broyden)= 0.21906E+01
  rms(prec ) = 0.22766E+01
  weight for this iteration     100.00

 eigenvalues of (default mixing * dielectric matrix)
  average eigenvalue GAMMA=   0.9327
  1.6718  0.3807  0.7455

 Free energy of the ion-electron system (eV)
  ---------------------------------------------------
  alpha Z        PSCENC =      2652.81237852
  Ewald energy   TEWEN  =    -41843.81173383
  -Hartree energ DENC   =    -25630.47908489
  -exchange      EXHF   =         0.00000000
  -V(xc)+E(xc)   XCENC  =      3706.45621100
  PAW double counting   =     67318.51013753   -70840.65801007
  entropy T*S    EENTRO =        -0.00000000
  eigenvalues    EBANDS =    -10126.83607173
  atomic energy  EATOM  =     73862.19814772
  Solvation  Ediel_sol  =         0.00000000
  ---------------------------------------------------
  free energy    TOTEN  =      -901.80802573 eV

  energy without entropy =     -901.80802573  energy(sigma->0) =     -901.80802573


--------------------------------------------------------------------------------------------------------




--------------------------------------- Iteration      1(  16)  ---------------------------------------


    POTLOK:  cpu time    0.1692: real time    0.1704
    SETDIJ:  cpu time    5.0136: real time    5.0252
    EDDIAG:  cpu time    4.4314: real time    4.8131
  RMM-DIIS:  cpu time   17.5074: real time   17.5122
    ORTHCH:  cpu time    1.1676: real time    1.2529
       DOS:  cpu time    0.0014: real time    0.0014
    CHARGE:  cpu time    1.7884: real time    1.7908
    MIXING:  cpu time    0.0009: real time    0.0009
    --------------------------------------------
      LOOP:  cpu time   30.0799: real time   30.5669

 eigenvalue-minimisations  : 19095
 total energy-change (2. order) :-0.1483745E+01  (-0.6689907E+00)
 number of electron     671.9999995 magnetization      48.0000021
 augmentation part      251.1283432 magnetization      33.9073379

 Broyden mixing:
  rms(total) = 0.14668E+01    rms(broyden)= 0.14663E+01
  rms(prec ) = 0.15543E+01
  weight for this iteration     100.00

 eigenvalues of (default mixing * dielectric matrix)
  average eigenvalue GAMMA=   0.9703
  2.0734  0.9010  0.3868  0.5200

 Free energy of the ion-electron system (eV)
  ---------------------------------------------------
  alpha Z        PSCENC =      2652.81237852
  Ewald energy   TEWEN  =    -41843.81173383
  -Hartree energ DENC   =    -25579.85976865
  -exchange      EXHF   =         0.00000000
  -V(xc)+E(xc)   XCENC  =      3707.40665073
  PAW double counting   =     70184.18568960   -73735.44998935
  entropy T*S    EENTRO =        -0.00000000
  eigenvalues    EBANDS =    -10150.77314557
  atomic energy  EATOM  =     73862.19814772
  Solvation  Ediel_sol  =         0.00000000
  ---------------------------------------------------
  free energy    TOTEN  =      -903.29177082 eV

  energy without entropy =     -903.29177082  energy(sigma->0) =     -903.29177082


--------------------------------------------------------------------------------------------------------




--------------------------------------- Iteration      1(  17)  ---------------------------------------


    POTLOK:  cpu time    0.1719: real time    0.1722
    SETDIJ:  cpu time    5.0236: real time    5.0341
    EDDIAG:  cpu time    4.4458: real time    4.8021
  RMM-DIIS:  cpu time   18.6785: real time   18.6854
    ORTHCH:  cpu time    1.1736: real time    1.2554
       DOS:  cpu time    0.0011: real time    0.0011
    CHARGE:  cpu time    1.7828: real time    1.7832
    MIXING:  cpu time    0.0019: real time    0.0019
    --------------------------------------------
      LOOP:  cpu time   31.2793: real time   31.7354

 eigenvalue-minimisations  : 20588
 total energy-change (2. order) : 0.1218102E+00  (-0.7203019E-01)
 number of electron     671.9999992 magnetization      48.0000023
 augmentation part      251.1174240 magnetization      33.9103342

 Broyden mixing:
  rms(total) = 0.79192E+00    rms(broyden)= 0.79177E+00
  rms(prec ) = 0.89535E+00
  weight for this iteration     100.00

 eigenvalues of (default mixing * dielectric matrix)
  average eigenvalue GAMMA=   0.9943
  2.2257  1.1204  0.3772  0.6903  0.5578

 Free energy of the ion-electron system (eV)
  ---------------------------------------------------
  alpha Z        PSCENC =      2652.81237852
  Ewald energy   TEWEN  =    -41843.81173383
  -Hartree energ DENC   =    -25569.60368337
  -exchange      EXHF   =         0.00000000
  -V(xc)+E(xc)   XCENC  =      3704.76470555
  PAW double counting   =     71105.76168571   -74666.03612026
  entropy T*S    EENTRO =        -0.00000000
  eigenvalues    EBANDS =    -10149.25534068
  atomic energy  EATOM  =     73862.19814772
  Solvation  Ediel_sol  =         0.00000000
  ---------------------------------------------------
  free energy    TOTEN  =      -903.16996063 eV

  energy without entropy =     -903.16996063  energy(sigma->0) =     -903.16996063


--------------------------------------------------------------------------------------------------------




--------------------------------------- Iteration      1(  18)  ---------------------------------------


    POTLOK:  cpu time    0.1695: real time    0.1702
    SETDIJ:  cpu time    4.9887: real time    5.0042
    EDDIAG:  cpu time    4.4977: real time    4.8648
  RMM-DIIS:  cpu time   17.5761: real time   17.5846
    ORTHCH:  cpu time    1.1672: real time    1.2518
       DOS:  cpu time    0.0017: real time    0.0017
    CHARGE:  cpu time    1.7798: real time    1.7832
    MIXING:  cpu time    0.0011: real time    0.0011
    --------------------------------------------
      LOOP:  cpu time   30.1818: real time   30.6617

 eigenvalue-minimisations  : 18938
 total energy-change (2. order) : 0.4258419E+00  (-0.7274051E-01)
 number of electron     671.9999991 magnetization      48.0000023
 augmentation part      250.6187901 magnetization      33.8793213

 Broyden mixing:
  rms(total) = 0.30535E+00    rms(broyden)= 0.30510E+00
  rms(prec ) = 0.32207E+00
  weight for this iteration     100.00

 eigenvalues of (default mixing * dielectric matrix)
  average eigenvalue GAMMA=   1.0160
  2.4542  1.3645  0.8492  0.5925  0.3788  0.4571

 Free energy of the ion-electron system (eV)
  ---------------------------------------------------
[...]
   4      -0.612    -1.105     1.717     0.149    -0.024     0.044
   5      -0.865    -1.024     1.889     0.152    -0.004     0.022
   6      -0.578    -1.000     1.578     0.163     0.026    -0.005
   7      -0.921    -0.874     1.795     0.125    -0.053    -0.003
   8      -0.787    -1.098     1.884     0.143    -0.029     0.040
   9      -0.765    -0.966     1.731    -0.202     0.001    -0.023
  10      -1.039    -0.768     1.807     0.063     0.094     0.030
  11      -0.905    -0.530     1.435     0.023    -0.053    -0.071
  12      -0.689    -0.879     1.568    -0.247     0.066     0.042
  13      -0.923    -0.833     1.756     0.118    -0.000    -0.012
  14      -0.763    -0.910     1.672    -0.223    -0.003     0.050
  15      -1.036    -0.550     1.585    -0.033     0.005     0.035
  16      -0.591    -0.762     1.354    -0.145     0.032     0.077
  17       1.424     1.607    -3.031    -0.023    -0.016     0.004
  18       1.348     1.652    -3.000     0.070     0.065     0.158
  19       1.461     1.512    -2.973    -0.094     0.067     0.111
  20       1.486     1.320    -2.806     0.021    -0.132     0.031
  21       1.597     1.231    -2.828    -0.025     0.022    -0.027
  22       1.606     1.337    -2.943    -0.017    -0.105    -0.053
  23       1.407     1.514    -2.921     0.019    -0.122    -0.108
  24       1.342     1.475    -2.816    -0.031     0.074     0.081
  25      -1.145    -0.505     1.649    -1.103    -0.982     0.183
  26      -0.790     0.349     0.441     0.289    -0.303    -0.812
  27       0.029    -0.924     0.895    -0.060    -0.759     0.404
  28      -0.292     0.360    -0.068     0.176    -1.007     0.342
  29       0.607    -1.240     0.634    -0.070     1.128    -0.102
  30       1.208    -0.885    -0.323     1.746     0.333     0.067
  31      -0.676    -0.154     0.830    -0.040     0.267     0.887
  32       0.454    -1.118     0.664    -0.312    -0.312     0.760
  33      -0.222    -1.327     1.549    -0.572    -0.195     0.318
  34       1.275    -2.569     1.294    -0.406     0.880    -0.648
  35       0.533     0.336    -0.870     1.019    -0.066     0.398
  36       2.113    -1.849    -0.264     0.511    -1.013     0.109
  37       0.623    -0.571    -0.052    -0.056     0.613     0.549
  38      -0.523    -1.721     2.244    -0.063    -0.199     0.071
  39      -0.066     0.915    -0.848    -1.190     0.564     0.098
  40      -0.454     0.853    -0.400    -0.416     0.561    -0.285
  41      -4.465     3.918     0.547    -4.192     1.497    -4.211
  42      -2.473     2.257     0.216     5.264     2.634     2.612
  43       5.938    -7.042     1.104    -0.453    -5.016     0.551
  44      -2.696     2.970    -0.275    -5.720    -2.153     3.545
  45       6.190    -5.901    -0.289    -0.559     3.949    -0.619
  46      -1.186     1.686    -0.501     6.945    -2.060    -4.151
  47      -4.912     4.144     0.769    -4.144     2.000    -4.352
  48       4.913    -5.788     0.874    -0.612    -5.792     0.060
  49      -0.871     1.327    -0.456     5.440     2.452     2.886
  50      -4.171     2.015     2.156    -4.701    -2.841     4.494
  51      -3.892     1.863     2.030     4.205    -4.109    -3.602
  52       4.741    -4.976     0.235    -1.349     3.513     1.349
  53      -3.956     2.882     1.073    -4.311     3.260    -4.395
  54      -2.500     1.896     0.604     5.886     2.569     3.258
  55       6.079    -6.679     0.600     0.741    -5.737    -0.140
  56      -2.940     0.651     2.289    -4.957    -3.201     4.730
  57       6.290    -7.228     0.939     0.445     4.975    -0.554
  58      -4.142     2.310     1.833     3.769    -2.565    -3.041
  59      -2.924     2.990    -0.066    -5.030     2.798    -2.334
  60       7.283    -6.383    -0.900    -0.889    -3.531    -0.903
  61      -2.287     1.618     0.669     5.375     1.716     3.683
  62      -2.525     3.806    -1.281    -5.922    -1.472     3.063
  63      -1.725     1.873    -0.149     4.801    -1.960    -2.570
  64       6.350    -5.663    -0.686     0.442     5.337    -0.153
  65      -2.962     1.002     1.960    -4.170     2.609    -4.479
  66      -2.103     1.149     0.954     5.085     3.598     3.903
  67       6.362    -5.544    -0.818    -1.286    -4.497    -0.319
  68      -4.642     1.074     3.568    -2.868    -2.856     4.157
  69       5.046    -6.013     0.967    -0.754     4.805     0.037
  70      -3.240     3.436    -0.196     4.788    -2.516    -3.202
  71      -3.015     0.776     2.239    -4.580     1.961    -4.538
  72       4.049    -6.304     2.255    -0.991    -5.264     1.366
  73      -2.836     2.440     0.395     5.185     3.656     3.949
  74      -3.396     3.467    -0.071    -4.664    -1.536     3.781
  75      -2.967     2.015     0.953     4.546    -2.244    -3.340
  76       5.958    -6.178     0.220     0.317     5.717     0.020
  77      -5.758     4.862     0.896    -2.871     2.291    -3.725
  78      -3.968     1.230     2.739     5.036     3.117     4.703
  79       5.295    -6.388     1.093    -0.877    -4.798     1.739
  80      -2.400     3.153    -0.754    -5.167    -1.741     4.628
  81       7.081    -6.961    -0.120     0.436     2.998     0.604
  82      -1.099     1.684    -0.585     6.263    -1.857    -4.131
  83      -3.789     3.736     0.053    -3.594     0.428    -4.363
  84       4.417    -5.555     1.138    -2.162    -4.982    -0.310
  85      -2.054     1.496     0.558     3.591     1.747     3.512
  86      -5.356     4.191     1.165    -4.770    -1.969     4.373
  87      -3.718     4.186    -0.468     5.016    -2.133    -4.593
  88       5.176    -5.619     0.443    -1.022     5.364     0.383
 ---------------------------------------------------------------------


 Total hyperfine coupling parameters after diagonalization (MHz)
 (convention: |A_zz| > |A_xx| > |A_yy|)
 ----------------------------------------------------------------------
  ion      A_xx      A_yy      A_zz     asymmetry (A_yy - A_xx)/ A_zz 
 ----------------------------------------------------------------------
   1      -0.526    -0.197     2.417       0.136
   2       1.711     1.568     3.372      -0.043
   3       2.195     1.861     4.262      -0.078
   4       1.022     0.445     3.310      -0.174
   5       0.527     0.183     3.188      -0.108
   6       2.024     1.490     4.124      -0.129
   7       0.824     0.570     3.391      -0.075
   8      -0.542    -0.119     2.497       0.169
   9       2.250     1.799     4.622      -0.098
  10       0.425     0.124     2.991      -0.101
  11       1.623     1.246     3.592      -0.105
  12       2.647     2.116     4.738      -0.112
  13       0.855     0.603     3.363      -0.075
  14       2.762     2.292     5.037      -0.093
  15       2.256     1.766     4.390      -0.112
  16       1.396     1.056     3.261      -0.104
  17      15.633    11.182    15.822      -0.281
  18      14.607    10.269    14.948      -0.290
  19      14.827    10.459    15.020      -0.291
  20      12.970     8.842    13.145      -0.314
  21      13.414     9.357    13.783      -0.294
  22      15.618    11.334    15.890      -0.270
  23      14.127     9.794    14.242      -0.304
  24      12.472     8.316    12.618      -0.329
  25      95.862    93.729    97.903      -0.022
  26      95.643    95.188    97.355      -0.005
  27      95.124    94.478    96.898      -0.007
  28      97.407    95.736    97.884      -0.017
  29      98.128    97.389   100.388      -0.007
  30      95.293    93.768    97.887      -0.016
  31     100.266    99.926   102.157      -0.003
  32      94.853    93.191    95.779      -0.017
  33      97.641    96.093    99.299      -0.016
  34     100.014    96.908   101.881      -0.030
  35      93.439    92.700    95.288      -0.008
  36      96.132    94.759    99.242      -0.014
  37      98.793    97.785    99.823      -0.010
  38      95.433    94.242    98.227      -0.012
  39      96.502    95.460    98.581      -0.011
  40      98.566    97.685    99.788      -0.009
  41       5.650     1.471    15.927      -0.262
  42       5.618     1.096    14.579      -0.310
  43       6.935     1.891    18.088      -0.279
  44       4.962     0.954    15.684      -0.256
  45       4.498     0.658    14.729      -0.261
  46       5.858     1.181    17.642      -0.265
  47       5.355     0.933    16.125      -0.274
  48       3.369     0.731    15.621      -0.169
  49       4.322     1.241    14.129      -0.218
  50       5.460     0.801    16.319      -0.286
  51       6.196     1.136    16.218      -0.312
  52       5.822     0.886    13.384      -0.369
  53       5.278     1.520    16.538      -0.227
  54       5.836     0.874    15.701      -0.316
  55       3.675    -0.057    16.399      -0.228
  56       5.066     1.223    16.633      -0.231
  57       7.296     1.915    18.501      -0.291
  58       3.706    -1.435    11.578      -0.444
  59       6.823     2.031    15.596      -0.307
  60       7.307     2.524    17.836      -0.268
  61       5.303     0.692    14.516      -0.318
  62       6.713     3.039    17.664      -0.208
  63       2.620    -0.777    11.002      -0.309
  64       4.078     1.859    16.814      -0.132
  65       4.814     1.652    15.303      -0.207
  66       5.977     2.714    17.157      -0.190
  67       5.309     2.180    16.645      -0.188
  68       6.630     2.575    16.511      -0.246
  69       6.134     2.205    16.547      -0.237
  70       5.680     1.861    15.649      -0.244
  71       6.240     1.816    16.012      -0.276
  72       5.221     0.851    16.042      -0.272
  73       6.644     3.019    18.207      -0.199
  74       5.118     1.459    15.143      -0.242
  75       4.853     0.777    13.713      -0.297
  76       5.193     2.302    17.984      -0.161
  77       5.098    -0.359    14.459      -0.377
  78       5.913     1.038    17.292      -0.282
  79       5.559     0.629    16.027      -0.308
  80       2.345    -0.398    14.096      -0.195
  81       8.104     2.262    17.469      -0.334
  82       4.495     0.437    15.636      -0.260
  83       4.462     0.823    13.999      -0.260
  84       5.348     0.903    15.432      -0.288
  85       3.566     1.266    11.958      -0.192
  86       6.709     1.113    17.519      -0.319
  87       5.827     2.776    18.186      -0.168
  88       3.305     0.171    14.791      -0.212
 ---------------------------------------------------------------------



--------------------------------------------------------------------------------------------------------


 stress matrix after NEB project (eV)
    -45.96234      0.02264      4.43977
      0.02971    -46.30286     -2.23880
      4.44254     -2.23016    -61.26592
  FORCES: max atom, RMS     2.269224    1.139864
  FORCE total and by dimension   10.692874    2.046372
  Stress total and by dimension   89.774377   61.265916
     LOOP+:  cpu time  763.6218: real time  777.7810
    4ORBIT:  cpu time    0.0000: real time    0.0000
 


 total charge     
 
# of ion       s       p       d       tot
------------------------------------------
    1        0.053   5.997   0.000   6.050
    2        0.049   5.990   0.000   6.038
    3        0.050   5.993   0.000   6.043
    4        0.052   5.996   0.000   6.048
    5        0.051   5.996   0.000   6.047
    6        0.050   5.993   0.000   6.043
    7        0.049   5.993   0.000   6.042
    8        0.049   5.992   0.000   6.041
    9        0.055   5.997   0.000   6.052
   10        0.049   5.993   0.000   6.042
   11        0.050   5.994   0.000   6.044
   12        0.050   5.992   0.000   6.041
   13        0.048   5.990   0.000   6.038
   14        0.051   5.993   0.000   6.044
   15        0.051   5.993   0.000   6.045
   16        0.053   5.997   0.000   6.050
   17        0.153   6.135   0.089   6.377
   18        0.152   6.133   0.088   6.373
   19        0.149   6.128   0.084   6.362
   20        0.143   6.118   0.076   6.338
   21        0.145   6.120   0.078   6.343
   22        0.143   6.119   0.078   6.341
   23        0.150   6.130   0.086   6.367
   24        0.147   6.126   0.082   6.355
   25        0.386   6.476   4.850  11.712
   26        0.384   6.474   4.849  11.707
   27        0.384   6.473   4.843  11.701
   28        0.374   6.453   4.830  11.658
   29        0.368   6.437   4.815  11.620
   30        0.385   6.475   4.859  11.719
   31        0.371   6.443   4.831  11.645
   32        0.377   6.456   4.829  11.662
   33        0.377   6.461   4.831  11.669
   34        0.367   6.440   4.811  11.618
   35        0.371   6.443   4.824  11.637
   36        0.379   6.465   4.835  11.679
   37        0.370   6.443   4.822  11.635
   38        0.378   6.459   4.832  11.668
   39        0.380   6.465   4.840  11.684
   40        0.362   6.426   4.801  11.589
   41        1.599   3.517   0.000   5.116
   42        1.598   3.517   0.000   5.115
   43        1.599   3.515   0.000   5.115
   44        1.599   3.503   0.000   5.102
   45        1.601   3.486   0.000   5.087
   46        1.601   3.505   0.000   5.106
   47        1.597   3.498   0.000   5.095
   48        1.601   3.482   0.000   5.083
   49        1.597   3.518   0.000   5.115
   50        1.598   3.506   0.000   5.104
   51        1.600   3.525   0.000   5.125
   52        1.594   3.489   0.000   5.083
   53        1.600   3.499   0.000   5.099
   54        1.599   3.519   0.000   5.118
   55        1.603   3.485   0.000   5.087
   56        1.599   3.517   0.000   5.115
   57        1.601   3.501   0.000   5.102
   58        1.596   3.519   0.000   5.115
   59        1.597   3.501   0.000   5.098
   60        1.601   3.522   0.000   5.123
   61        1.598   3.514   0.000   5.111
   62        1.597   3.496   0.000   5.094
   63        1.596   3.499   0.000   5.095
   64        1.601   3.473   0.000   5.073
   65        1.598   3.507   0.000   5.106
   66        1.601   3.512   0.000   5.113
   67        1.600   3.485   0.000   5.085
   68        1.600   3.534   0.000   5.134
   69        1.597   3.494   0.000   5.091
   70        1.598   3.481   0.000   5.079
   71        1.599   3.542   0.000   5.142
   72        1.599   3.537   0.000   5.135
   73        1.600   3.485   0.000   5.084
   74        1.598   3.476   0.000   5.074
   75        1.600   3.551   0.000   5.151
   76        1.604   3.491   0.000   5.095
   77        1.597   3.495   0.000   5.092
   78        1.601   3.492   0.000   5.093
   79        1.598   3.508   0.000   5.106
   80        1.596   3.480   0.000   5.077
   81        1.601   3.533   0.000   5.134
   82        1.600   3.500   0.000   5.100
   83        1.598   3.519   0.000   5.117
   84        1.601   3.520   0.000   5.121
   85        1.596   3.505   0.000   5.101
   86        1.600   3.524   0.000   5.124
   87        1.601   3.442   0.000   5.042
   88        1.599   3.493   0.000   5.091
--------------------------------------------------
tot         84.763 416.404  77.963 579.131
 


 magnetization (x)
 
# of ion       s       p       d       tot
------------------------------------------
    1        0.000   0.000   0.000   0.000
    2        0.002   0.000   0.000   0.002
    3        0.002   0.000   0.000   0.002
    4        0.001   0.000   0.000   0.001
    5        0.001   0.001   0.000   0.001
    6        0.002   0.000   0.000   0.002
    7        0.001   0.001   0.000   0.002
    8        0.000   0.000   0.000   0.001
    9        0.002   0.000   0.000   0.002
   10        0.001   0.000   0.000   0.001
   11        0.002   0.000   0.000   0.002
   12        0.002   0.000   0.000   0.003
   13        0.001   0.001   0.000   0.002
   14        0.002   0.000   0.000   0.003
   15        0.002   0.000   0.000   0.002
   16        0.001  -0.000   0.000   0.001
   17        0.008   0.003   0.001   0.012
   18        0.008   0.002   0.001   0.011
   19        0.008   0.003   0.001   0.011
   20        0.007   0.002   0.001   0.009
   21        0.007   0.002   0.001   0.010
   22        0.008   0.002   0.001   0.011
   23        0.007   0.002   0.001   0.010
   24        0.006   0.002   0.001   0.009
   25        0.015   0.031   2.733   2.779
   26        0.016   0.031   2.730   2.777
   27        0.015   0.030   2.735   2.781
   28        0.015   0.031   2.755   2.801
   29        0.016   0.030   2.773   2.819
   30        0.015   0.031   2.722   2.768
   31        0.016   0.031   2.768   2.815
   32        0.014   0.030   2.754   2.798
   33        0.016   0.030   2.760   2.806
   34        0.016   0.029   2.785   2.830
   35        0.014   0.028   2.758   2.800
   36        0.016   0.030   2.752   2.798
   37        0.016   0.030   2.760   2.807
   38        0.015   0.030   2.746   2.791
   39        0.016   0.031   2.744   2.791
   40        0.016   0.030   2.784   2.830
   41        0.002   0.040   0.000   0.042
   42        0.002   0.028   0.000   0.030
   43        0.002   0.055   0.000   0.057
   44        0.002   0.032   0.000   0.034
   45        0.002   0.021   0.000   0.023
   46        0.002   0.035   0.000   0.037
   47        0.002   0.036   0.000   0.038
   48        0.002   0.022   0.000   0.024
   49        0.002   0.026   0.000   0.028
   50        0.002   0.039   0.000   0.041
   51        0.002   0.038   0.000   0.040
   52        0.002   0.024   0.000   0.026
   53        0.002   0.034   0.000   0.036
   54        0.002   0.042   0.000   0.044
   55        0.002   0.026   0.000   0.028
   56        0.002   0.039   0.000   0.041
   57        0.002   0.052   0.000   0.054
   58        0.001   0.017   0.000   0.019
   59        0.002   0.035   0.000   0.037
   60        0.002   0.038   0.000   0.040
   61        0.002   0.033   0.000   0.035
   62        0.002   0.039   0.000   0.041
   63        0.001   0.008   0.000   0.009
   64        0.002   0.027   0.000   0.029
   65        0.002   0.028   0.000   0.030
   66        0.002   0.036   0.000   0.038
   67        0.002   0.031   0.000   0.033
   68        0.002   0.046   0.000   0.048
   69        0.002   0.047   0.000   0.049
   70        0.002   0.032   0.000   0.034
   71        0.002   0.045   0.000   0.047
   72        0.002   0.042   0.000   0.044
   73        0.002   0.044   0.000   0.047
   74        0.002   0.025   0.000   0.027
   75        0.002   0.037   0.000   0.038
   76        0.002   0.033   0.000   0.036
   77        0.002   0.025   0.000   0.027
   78        0.002   0.035   0.000   0.037
   79        0.002   0.036   0.000   0.038
   80        0.002   0.014   0.000   0.016
   81        0.002   0.049   0.000   0.052
   82        0.002   0.029   0.000   0.031
   83        0.002   0.026   0.000   0.027
   84        0.002   0.028   0.000   0.030
   85        0.002   0.020   0.000   0.022
   86        0.002   0.045   0.000   0.048
   87        0.003   0.034   0.000   0.037
   88        0.002   0.013   0.000   0.015
--------------------------------------------------
tot          0.423   2.090  44.067  46.581
 

 total amount of memory used by VASP MPI-rank0    94437. kBytes
=======================================================================

   base      :      30000. kBytes
   nonlr-proj:      13678. kBytes
   fftplans  :       1275. kBytes
   grid      :      22786. kBytes
   one-center:       2737. kBytes
   wavefun   :      23961. kBytes
 
  
  
 General timing and accounting informations for this job:
 ========================================================
  
                  Total CPU time used (sec):      784.526
                            User time (sec):      776.274
                          System time (sec):        8.251
                         Elapsed time (sec):      801.056
  
                   Maximum memory used (kb):      193768.
                   Average memory used (kb):           0.
  
                          Minor page faults:       276590
                          Major page faults:            0
                 Voluntary context switches:       255581
