 vasp.5.4.4.18Apr17-6-g9f103f2a35 (build Dec 02 2020 12:53:39) complex          
  
 executed on             LinuxIFC date 2021.08.02  14:34:12
 running on   96 total cores
 distrk:  each k-point on   96 cores,    1 groups
 distr:  one band on NCORES_PER_BAND=   1 cores,   96 groups


--------------------------------------------------------------------------------------------------------


 INCAR:
 POTCAR:    PAW_PBE Na_pv 19Sep2006               
 POTCAR:    PAW_PBE Mg_pv 13Apr2007               
 POTCAR:    PAW_PBE Mn_pv 02Aug2007               
 POTCAR:    PAW_PBE O 08Apr2002                   

 ----------------------------------------------------------------------------- 
|                                                                             |
|           W    W    AA    RRRRR   N    N  II  N    N   GGGG   !!!           |
|           W    W   A  A   R    R  NN   N  II  NN   N  G    G  !!!           |
|           W    W  A    A  R    R  N N  N  II  N N  N  G       !!!           |
|           W WW W  AAAAAA  RRRRR   N  N N  II  N  N N  G  GGG   !            |
|           WW  WW  A    A  R   R   N   NN  II  N   NN  G    G                |
|           W    W  A    A  R    R  N    N  II  N    N   GGGG   !!!           |
|                                                                             |
|      For optimal performance we recommend to set                            |
|        NCORE= 4 - approx SQRT( number of cores)                             |
|      NCORE specifies how many cores store one orbital (NPAR=cpu/NCORE).     |
|      This setting can  greatly improve the performance of VASP for DFT.     |
|      The default,   NCORE=1            might be grossly inefficient         |
|      on modern multi-core architectures or massively parallel machines.     |
|      Do your own testing !!!!                                               |
|      Unfortunately you need to use the default for GW and RPA calculations. |
|      (for HF NCORE is supported but not extensively tested yet)             |
|                                                                             |
 ----------------------------------------------------------------------------- 

 POTCAR:    PAW_PBE Na_pv 19Sep2006               
   VRHFIN =Na: p6s1                                                             
   LEXCH  = PE                                                                  
   EATOM  =   766.0439 eV,   56.3026 Ry                                         
                                                                                
   TITEL  = PAW_PBE Na_pv 19Sep2006                                             
   LULTRA =        F    use ultrasoft PP ?                                      
   IUNSCR =        1    unscreen: 0-lin 1-nonlin 2-no                           
   RPACOR =    1.800    partial core radius                                     
   POMASS =   22.990; ZVAL   =    7.000    mass and valenz                      
   RCORE  =    2.200    outmost cutoff radius                                   
   RWIGS  =    2.200; RWIGS  =    1.164    wigner-seitz radius (au A)           
   ENMAX  =  259.561; ENMIN  =  194.671 eV                                      
   ICORE  =        2    local potential                                         
   LCOR   =        T    correct aug charges                                     
   LPAW   =        T    paw PP                                                  
   EAUG   =  368.056                                                            
   DEXC   =    0.000                                                            
   RMAX   =    2.245    core radius for proj-oper                               
   RAUG   =    1.300    factor for augmentation sphere                          
   RDEP   =    2.259    radius for radial grids                                 
   RDEPT  =    1.738    core radius for aug-charge                              
                                                                                
   Atomic configuration                                                         
    5 entries                                                                   
     n  l   j            E        occ.                                          
     1  0  0.50     -1033.6933   2.0000                                         
     2  0  0.50       -56.7526   2.0000                                         
     2  1  1.50       -28.6721   6.0000                                         
     3  0  0.50        -2.7440   1.0000                                         
     3  2  1.50        -1.3606   0.0000                                         
   Description                                                                  
     l       E           TYP  RCUT    TYP  RCUT                                 
     1    -28.6720912     23  2.000                                             
     1      6.8029130     23  2.000                                             
     0     -2.7439560     23  2.200                                             
     0     34.0145650     23  2.200                                             
     2     -1.3605826     23  2.200                                             
  local pseudopotential read in
  partial core-charges read in
  partial kinetic energy density read in
  atomic valenz-charges read in
  non local Contribution for L=           1  read in
    real space projection operators read in
  non local Contribution for L=           1  read in
    real space projection operators read in
  non local Contribution for L=           0  read in
    real space projection operators read in
  non local Contribution for L=           0  read in
    real space projection operators read in
    PAW grid and wavefunctions read in
 
   number of l-projection  operators is LMAX  =           4
   number of lm-projection operators is LMMAX =           8
 
 POTCAR:    PAW_PBE Mg_pv 13Apr2007               
   VRHFIN =Mg: p6s2                                                             
   LEXCH  = PE                                                                  
   EATOM  =  1056.7344 eV,   77.6678 Ry                                         
                                                                                
   TITEL  = PAW_PBE Mg_pv 13Apr2007                                             
   LULTRA =        F    use ultrasoft PP ?                                      
   IUNSCR =        1    unscreen: 0-lin 1-nonlin 2-no                           
   RPACOR =    1.500    partial core radius                                     
   POMASS =   24.305; ZVAL   =    8.000    mass and valenz                      
   RCORE  =    2.000    outmost cutoff radius                                   
   RWIGS  =    2.000; RWIGS  =    1.058    wigner-seitz radius (au A)           
   ENMAX  =  403.929; ENMIN  =  302.947 eV                                      
   RCLOC  =    1.506    cutoff for local pot                                    
   LCOR   =        T    correct aug charges                                     
   LPAW   =        T    paw PP                                                  
   EAUG   =  758.780                                                            
   DEXC   =    0.000                                                            
   RMAX   =    2.045    core radius for proj-oper                               
   RAUG   =    1.300    factor for augmentation sphere                          
   RDEP   =    2.025    radius for radial grids                                 
   RDEPT  =    1.557    core radius for aug-charge                              
                                                                                
   Atomic configuration                                                         
    5 entries                                                                   
     n  l   j            E        occ.                                          
     1  0  0.50     -1259.6230   2.0000                                         
     2  0  0.50       -79.8442   2.0000                                         
     2  1  1.50       -46.6121   6.0000                                         
     3  0  0.50        -4.7055   2.0000                                         
     3  2  1.50        -1.3606   0.0000                                         
   Description                                                                  
     l       E           TYP  RCUT    TYP  RCUT                                 
     1    -46.6121073     23  1.600                                             
     1      2.7211652     23  1.600                                             
     0     -4.7054661     23  2.000                                             
     0     61.2262170     23  2.000                                             
     2     -1.3605826     23  2.000                                             
  local pseudopotential read in
  partial core-charges read in
  partial kinetic energy density read in
  atomic valenz-charges read in
  non local Contribution for L=           1  read in
    real space projection operators read in
  non local Contribution for L=           1  read in
    real space projection operators read in
  non local Contribution for L=           0  read in
    real space projection operators read in
  non local Contribution for L=           0  read in
    real space projection operators read in
  non local Contribution for L=           2  read in
    real space projection operators read in
    PAW grid and wavefunctions read in
 
   number of l-projection  operators is LMAX  =           5
   number of lm-projection operators is LMMAX =          13
 
 POTCAR:    PAW_PBE Mn_pv 02Aug2007               
   VRHFIN =Mn: 3p4s3d                                                           
   LEXCH  = PE                                                                  
   EATOM  =  2025.2664 eV,  148.8529 Ry                                         
                                                                                
   TITEL  = PAW_PBE Mn_pv 02Aug2007                                             
   LULTRA =        F    use ultrasoft PP ?                                      
   IUNSCR =        1    unscreen: 0-lin 1-nonlin 2-no                           
   RPACOR =    2.080    partial core radius                                     
   POMASS =   54.938; ZVAL   =   13.000    mass and valenz                      
   RCORE  =    2.300    outmost cutoff radius                                   
   RWIGS  =    2.500; RWIGS  =    1.323    wigner-seitz radius (au A)           
   ENMAX  =  269.864; ENMIN  =  202.398 eV                                      
   ICORE  =        3    local potential                                         
   LCOR   =        T    correct aug charges                                     
   LPAW   =        T    paw PP                                                  
   EAUG   =  569.085                                                            
   DEXC   =    0.000                                                            
   RMAX   =    2.343    core radius for proj-oper                               
   RAUG   =    1.300    factor for augmentation sphere                          
   RDEP   =    2.338    radius for radial grids                                 
   RDEPT  =    1.798    core radius for aug-charge                              
                                                                                
   Atomic configuration                                                         
    8 entries                                                                   
     n  l   j            E        occ.                                          
     1  0  0.50     -6424.8287   2.0000                                         
     2  0  0.50      -739.1154   2.0000                                         
     2  1  1.50      -625.3949   6.0000                                         
     3  0  0.50       -81.6100   2.0000                                         
     3  1  1.50       -50.4667   6.0000                                         
     3  2  2.50        -3.3745   6.0000                                         
     4  0  0.50        -4.1331   1.0000                                         
     4  3  2.50        -1.3606   0.0000                                         
   Description                                                                  
     l       E           TYP  RCUT    TYP  RCUT                                 
     1    -50.4666628     23  2.000                                             
     1     -1.3605826     23  2.000                                             
     2     -3.3744729     23  2.300                                             
     2     -4.7350555     23  2.300                                             
     0     -4.1331431     23  2.300                                             
     0      7.6656591     23  2.300                                             
     3      9.5240782     23  2.300                                             
  local pseudopotential read in
  partial core-charges read in
  partial kinetic energy density read in
  atomic valenz-charges read in
  non local Contribution for L=           1  read in
    real space projection operators read in
  non local Contribution for L=           1  read in
    real space projection operators read in
  non local Contribution for L=           2  read in
    real space projection operators read in
  non local Contribution for L=           2  read in
    real space projection operators read in
  non local Contribution for L=           0  read in
    real space projection operators read in
  non local Contribution for L=           0  read in
    real space projection operators read in
    PAW grid and wavefunctions read in
 
   number of l-projection  operators is LMAX  =           6
   number of lm-projection operators is LMMAX =          18
 
 POTCAR:    PAW_PBE O 08Apr2002                   
   VRHFIN =O: s2p4                                                              
   LEXCH  = PE                                                                  
   EATOM  =   432.3788 eV,   31.7789 Ry                                         
                                                                                
   TITEL  = PAW_PBE O 08Apr2002                                                 
   LULTRA =        F    use ultrasoft PP ?                                      
   IUNSCR =        1    unscreen: 0-lin 1-nonlin 2-no                           
   RPACOR =    1.200    partial core radius                                     
   POMASS =   16.000; ZVAL   =    6.000    mass and valenz                      
   RCORE  =    1.520    outmost cutoff radius                                   
   RWIGS  =    1.550; RWIGS  =    0.820    wigner-seitz radius (au A)           
   ENMAX  =  400.000; ENMIN  =  300.000 eV                                      
   ICORE  =        2    local potential                                         
   LCOR   =        T    correct aug charges                                     
   LPAW   =        T    paw PP                                                  
   EAUG   =  605.392                                                            
   DEXC   =    0.000                                                            
   RMAX   =    1.553    core radius for proj-oper                               
   RAUG   =    1.300    factor for augmentation sphere                          
   RDEP   =    1.550    radius for radial grids                                 
   RDEPT  =    1.329    core radius for aug-charge                              
                                                                                
   Atomic configuration                                                         
    4 entries                                                                   
     n  l   j            E        occ.                                          
     1  0  0.50      -514.6923   2.0000                                         
     2  0  0.50       -23.9615   2.0000                                         
     2  1  0.50        -9.0305   4.0000                                         
     3  2  1.50        -9.5241   0.0000                                         
   Description                                                                  
     l       E           TYP  RCUT    TYP  RCUT                                 
     0    -23.9615318     23  1.200                                             
     0     -9.5240782     23  1.200                                             
     1     -9.0304911     23  1.520                                             
     1      8.1634956     23  1.520                                             
     2     -9.5240782      7  1.500                                             
  local pseudopotential read in
  partial core-charges read in
  partial kinetic energy density read in
  kinetic energy density of atom read in
  atomic valenz-charges read in
  non local Contribution for L=           0  read in
    real space projection operators read in
  non local Contribution for L=           0  read in
    real space projection operators read in
  non local Contribution for L=           1  read in
    real space projection operators read in
  non local Contribution for L=           1  read in
    real space projection operators read in
    PAW grid and wavefunctions read in
 
   number of l-projection  operators is LMAX  =           4
   number of lm-projection operators is LMMAX =           8
 
 Optimization of the real space projectors (new method)

 maximal supplied QI-value         = 17.01
 optimisation between [QCUT,QGAM] = [ 10.20, 20.41] = [ 29.16,116.64] Ry 
 Optimized for a Real-space Cutoff    1.30 Angstroem

   l    n(q)    QCUT    max X(q) W(low)/X(q) W(high)/X(q)  e(spline) 
   1      7    10.205     4.940    0.23E-03    0.84E-03    0.11E-06
   1      7    10.205     6.253    0.40E-03    0.13E-02    0.18E-06
   0      8    10.205    37.438    0.23E-03    0.37E-03    0.42E-07
   0      8    10.205     9.606    0.16E-03    0.26E-03    0.31E-07
 Optimization of the real space projectors (new method)

 maximal supplied QI-value         = 18.90
 optimisation between [QCUT,QGAM] = [ 10.20, 20.41] = [ 29.16,116.64] Ry 
 Optimized for a Real-space Cutoff    1.26 Angstroem

   l    n(q)    QCUT    max X(q) W(low)/X(q) W(high)/X(q)  e(spline) 
   1      7    10.205     2.974    0.63E-04    0.14E-03    0.13E-06
   1      7    10.205     4.279    0.11E-03    0.45E-03    0.24E-06
   0      8    10.205    16.381    0.44E-03    0.15E-03    0.55E-07
   0      8    10.205     5.611    0.31E-03    0.11E-03    0.40E-07
   2      7    10.205     4.652    0.50E-03    0.47E-03    0.57E-07
 Optimization of the real space projectors (new method)

 maximal supplied QI-value         = 16.25
 optimisation between [QCUT,QGAM] = [ 10.24, 20.48] = [ 29.35,117.42] Ry 
 Optimized for a Real-space Cutoff    1.34 Angstroem

   l    n(q)    QCUT    max X(q) W(low)/X(q) W(high)/X(q)  e(spline) 
   1      8    10.239     3.658    0.23E-03    0.30E-03    0.98E-07
   1      8    10.239     5.612    0.32E-03    0.65E-03    0.21E-06
   2      7    10.239    55.373    0.42E-03    0.45E-03    0.65E-07
   2      7    10.239    50.863    0.43E-03    0.48E-03    0.67E-07
   0      8    10.239    79.536    0.11E-03    0.21E-03    0.56E-07
   0      8    10.239    38.668    0.96E-04    0.19E-03    0.52E-07
 Optimization of the real space projectors (new method)

 maximal supplied QI-value         = 24.76
 optimisation between [QCUT,QGAM] = [ 10.15, 20.30] = [ 28.85,115.39] Ry 
 Optimized for a Real-space Cutoff    1.38 Angstroem

   l    n(q)    QCUT    max X(q) W(low)/X(q) W(high)/X(q)  e(spline) 
   0      8    10.150    20.381    0.22E-03    0.32E-03    0.29E-06
   0      8    10.150    15.268    0.23E-03    0.35E-03    0.30E-06
   1      8    10.150     5.964    0.46E-03    0.53E-03    0.21E-06
   1      8    10.150     5.382    0.38E-03    0.45E-03    0.19E-06
  PAW_PBE Na_pv 19Sep2006               :
 energy of atom  1       EATOM= -766.0439
 kinetic energy error for atom=    0.0103 (will be added to EATOM!!)
  PAW_PBE Mg_pv 13Apr2007               :
 energy of atom  2       EATOM=-1056.7344
 kinetic energy error for atom=    0.0820 (will be added to EATOM!!)
  PAW_PBE Mn_pv 02Aug2007               :
 energy of atom  3       EATOM=-2025.2664
 kinetic energy error for atom=    0.0284 (will be added to EATOM!!)
  PAW_PBE O 08Apr2002                   :
 energy of atom  4       EATOM= -432.3788
 kinetic energy error for atom=    0.1156 (will be added to EATOM!!)
 
 
 POSCAR: Na Mg Mn  O                             
  positions in cartesian coordinates
  No initial velocities read in

 METAGGA = SCAN     LMAXTAU =  6    LMIXTAU =  F

 exchange correlation table for  LEXCH =        8
   RHO(1)=    0.500       N(1)  =     2000
   RHO(2)=  100.500       N(2)  =     4000

 VTST: version 3.2, (02/03/18)

 CHAIN: initializing optimizer
 
 OPT: Using VASP Dynamics algorithm
 CHAIN: Read ICHAIN            0
 
 POSCAR: Na Mg Mn  O                             
  positions in cartesian coordinates
  No initial velocities read in
 


--------------------------------------------------------------------------------------------------------


 ion  position               nearest neighbor table
   1  0.810  0.264  0.244-  53 2.30  66 2.33
   2  0.296  0.392  0.745-  80 2.32  45 2.33
   3  0.540  0.273  0.753-  68 2.30  49 2.32  46 2.35  71 2.36
   4  0.713  0.119  0.749-  60 2.30  59 2.33  57 2.37
   5  0.832  0.764  0.253-  63 2.26
   6  0.034  0.624  0.249-  67 2.35  76 2.36
   7  0.538  0.766  0.746-  82 2.28  81 2.29
   8  0.834  0.604  0.751-  68 2.24  71 2.29  69 2.33  72 2.33  36 2.75  34 2.79
   9  0.517  0.424  0.252-  52 2.34  43 2.34  87 2.38  35 2.90  33 2.94
  10  0.300  0.020  0.248-  42 2.15  51 2.31  26 2.83
  11  0.318  0.590  0.250-  77 2.23  86 2.27  38 2.83  40 2.86
  12  0.307  0.908  0.756-  44 2.24  47 2.34  84 2.36
  13  0.007  0.950  0.759-  61 2.28  72 2.33  25 2.83  27 2.98
  14  0.044  0.470  0.745-  70 2.23  80 2.32  83 2.35  73 2.36  39 2.86  37 2.87
  15  0.043  0.130  0.242-  41 2.26  55 2.31
  16  0.636  0.918  0.252-  88 2.23  62 2.30  79 2.34  53 2.35
  17  0.683  0.272  0.992-  66 2.04  60 2.04  71 2.07  49 2.09  43 2.10  53 2.13
  18  0.684  0.281  0.499-  52 1.98  57 2.02  75 2.04  68 2.05  46 2.13  62 2.18  36 2.74  35 2.82
                            39 2.83
  19  0.188  0.276  0.998-  48 1.99  61 1.99  55 2.05  78 2.06  83 2.06  41 2.11  38 2.84  26 2.85

  20  0.189  0.270  0.492-  87 2.01  80 2.05  50 2.06  45 2.08  58 2.09  64 2.12  35 2.81
  21  0.173  0.764  0.997-  73 2.00  84 2.02  77 2.03  67 2.05  47 2.05  42 2.11  38 2.84  34 2.85
                            37 2.86
  22  0.180  0.757  0.511-  86 2.00  76 2.04  70 2.05  44 2.06  51 2.11  81 2.15  39 2.81  40 2.83

  23  0.681  0.767  0.982-  72 1.98  85 2.03  59 2.03  79 2.05  65 2.10  54 2.20  33 2.81
  24  0.696  0.771  0.496-  63 1.99  74 2.00  56 2.05  69 2.08  88 2.08  82 2.24  36 2.77  27 2.83

  25  0.012  0.932  0.010-  61 1.87  41 1.89  67 1.89  47 1.91  72 1.95  54 1.96  13 2.83  30 2.86
                            34 2.88  26 2.88
  26  0.344  0.104  0.004-  48 1.87  43 1.89  41 1.93  47 1.95  42 1.97  49 1.98  10 2.83  19 2.85
                            25 2.88  29 2.89  33 2.95
  27  0.023  0.929  0.495-  76 1.86  50 1.88  69 1.90  58 1.96  44 1.97  63 1.99  28 2.79  24 2.83
                            36 2.89  32 2.94  13 2.98
  28  0.344  0.093  0.509-  51 1.81  44 1.92  46 1.93  50 1.94  45 1.96  52 2.04  27 2.79  31 2.94
                            35 2.95
  29  0.515  0.942  0.994-  42 1.88  49 1.92  53 1.93  59 1.95  79 1.97  84 1.99  26 2.89  30 2.91
                            38 2.94
  30  0.851  0.100  0.001-  54 1.90  59 1.91  61 1.91  55 1.92  53 1.98  60 2.05  25 2.86  37 2.90
                            29 2.91
  31  0.521  0.931  0.503-  51 1.88  88 1.89  56 1.89  62 1.95  81 2.00  46 2.06  40 2.85  32 2.90
                            28 2.94
  32  0.855  0.100  0.496-  58 1.89  64 1.89  56 1.90  62 1.99  57 2.01  63 2.02  39 2.89  31 2.90
                            27 2.94
  33  0.518  0.443  0.990-  85 1.86  71 1.87  65 1.90  48 1.93  78 1.94  43 2.01  23 2.81  34 2.84
                            38 2.94   9 2.94  26 2.95
  34  0.845  0.601  1.000-  65 1.85  73 1.90  71 1.90  66 1.93  67 1.94  72 1.94   8 2.79  33 2.84
                            21 2.85  25 2.88  37 2.92
  35  0.512  0.433  0.510-  52 1.87  45 1.90  87 1.92  74 1.93  82 1.94  68 1.97  20 2.81  18 2.82
                            36 2.85  40 2.86   9 2.90  28 2.95
  36  0.840  0.597  0.506-  69 1.87  70 1.87  74 1.90  68 1.91  75 1.99  76 2.08  18 2.74   8 2.75
                            24 2.77  35 2.85  27 2.89  39 2.90
  37  0.015  0.434  0.998-  83 1.87  60 1.90  55 1.95  73 1.97  77 1.99  66 2.02  38 2.82  21 2.86
                            14 2.87  30 2.90  34 2.92
  38  0.340  0.604  0.998-  77 1.83  83 1.86  78 1.87  84 1.90  79 1.96  85 1.97  37 2.82  11 2.83
                            21 2.84  19 2.84  33 2.94  29 2.94
  39  0.011  0.433  0.491-  86 1.89  64 1.89  57 1.89  75 1.90  70 1.93  80 1.95  22 2.81  18 2.83
                            14 2.86  32 2.89  36 2.90  40 2.96
  40  0.352  0.602  0.505-  81 1.85  82 1.89  80 1.94  86 1.94  88 1.97  87 1.98  22 2.83  31 2.85
                            35 2.86  11 2.86  39 2.96
  41  0.177  0.091  0.097-  25 1.89  26 1.93  19 2.11  15 2.26
  42  0.361  0.942  0.090-  29 1.88  26 1.97  21 2.11  10 2.15
  43  0.503  0.270  0.090-  26 1.89  33 2.01  17 2.10   9 2.34
  44  0.181  0.935  0.602-  28 1.92  27 1.97  22 2.06  12 2.24
  45  0.357  0.267  0.600-  35 1.90  28 1.96  20 2.08   2 2.33
  46  0.509  0.099  0.601-  28 1.93  31 2.06  18 2.13   3 2.35
  47  0.174  0.944  0.912-  25 1.91  26 1.95  21 2.05  12 2.34
  48  0.355  0.264  0.912-  26 1.87  33 1.93  19 1.99
  49  0.498  0.093  0.899-  29 1.92  26 1.98  17 2.09   3 2.32
  50  0.185  0.087  0.407-  27 1.88  28 1.94  20 2.06
  51  0.364  0.949  0.426-  28 1.81  31 1.88  22 2.11  10 2.31
  52  0.508  0.277  0.417-  35 1.87  18 1.98  28 2.04   9 2.34
  53  0.679  0.090  0.094-  29 1.93  30 1.98  17 2.13   1 2.30  16 2.35
  54  0.852  0.947  0.100-  30 1.90  25 1.96  23 2.20
  55  0.008  0.267  0.092-  30 1.92  37 1.95  19 2.05  15 2.31
  56  0.691  0.945  0.587-  31 1.89  32 1.90  24 2.05
  57  0.858  0.275  0.587-  39 1.89  32 2.01  18 2.02   4 2.37
  58  0.009  0.089  0.586-  32 1.89  27 1.96  20 2.09
  59  0.687  0.952  0.904-  30 1.91  29 1.95  23 2.03   4 2.33
  60  0.862  0.277  0.901-  37 1.90  17 2.04  30 2.05   4 2.30
  61  0.015  0.092  0.921-  25 1.87  30 1.91  19 1.99  13 2.28
  62  0.681  0.090  0.403-  31 1.95  32 1.99  18 2.18  16 2.30
  63  0.861  0.935  0.396-  27 1.99  24 1.99  32 2.02   5 2.26
  64  0.001  0.268  0.403-  32 1.89  39 1.89  20 2.12
  65  0.683  0.593  0.085-  34 1.85  33 1.90  23 2.10
  66  0.848  0.442  0.094-  34 1.93  37 2.02  17 2.04   1 2.33
  67  0.002  0.765  0.096-  25 1.89  34 1.94  21 2.05   6 2.35
  68  0.683  0.447  0.606-  36 1.91  35 1.97  18 2.05   8 2.24   3 2.30
  69  0.873  0.770  0.593-  36 1.87  27 1.90  24 2.08   8 2.33
  70  0.991  0.580  0.592-  36 1.87  39 1.93  22 2.05  14 2.23
  71  0.682  0.452  0.903-  33 1.87  34 1.90  17 2.07   8 2.29   3 2.36
  72  0.862  0.771  0.906-  34 1.94  25 1.95  23 1.98  13 2.33   8 2.33
  73  0.999  0.593  0.907-  34 1.90  37 1.97  21 2.00  14 2.36
  74  0.677  0.586  0.413-  36 1.90  35 1.93  24 2.00
  75  0.859  0.448  0.400-  39 1.90  36 1.99  18 2.04
  76  0.019  0.770  0.408-  27 1.86  22 2.04  36 2.08   6 2.36
  77  0.188  0.599  0.092-  38 1.83  37 1.99  21 2.03  11 2.23
  78  0.366  0.460  0.086-  38 1.87  33 1.94  19 2.06
  79  0.514  0.772  0.083-  38 1.96  29 1.97  23 2.05  16 2.34
  80  0.175  0.438  0.587-  40 1.94  39 1.95  20 2.05  14 2.32   2 2.32
  81  0.368  0.757  0.604-  40 1.85  31 2.00  22 2.15   7 2.29
  82  0.499  0.590  0.602-  40 1.89  35 1.94  24 2.24   7 2.28
  83  0.180  0.452  0.908-  38 1.86  37 1.87  19 2.06  14 2.35
  84  0.348  0.766  0.906-  38 1.90  29 1.99  21 2.02  12 2.36
  85  0.496  0.588  0.901-  33 1.86  38 1.97  23 2.03
  86  0.183  0.593  0.412-  39 1.89  40 1.94  22 2.00  11 2.27
  87  0.366  0.445  0.406-  35 1.92  40 1.98  20 2.01   9 2.38
  88  0.513  0.770  0.409-  31 1.89  40 1.97  24 2.08  16 2.23
 
  LATTYP: Found a hexagonal cell.
 ALAT       =    10.0190000534
 C/A-ratio  =     1.1196726572
  
  Lattice vectors:
  
 A1 = (  10.0190000534,   0.0000000000,   0.0000000000)
 A2 = (  -5.0095000267,   8.6767085668,   0.0000000000)
 A3 = (   0.0000000000,   0.0000000000,  11.2180004120)


Analysis of symmetry for initial positions (statically):
=====================================================================
 Subroutine PRICEL returns:
 Original cell was already a primitive cell.
 

 Routine SETGRP: Setting up the symmetry group for a 
 hexagonal supercell.


 Subroutine GETGRP returns: Found  1 space group operations
 (whereof  1 operations were pure point group operations)
 out of a pool of 24 trial point group operations.


The static configuration has the point symmetry C_1 .


Analysis of symmetry for dynamics (positions and initial velocities):
=====================================================================
 Subroutine PRICEL returns:
 Original cell was already a primitive cell.
 

 Routine SETGRP: Setting up the symmetry group for a 
 hexagonal supercell.


 Subroutine GETGRP returns: Found  1 space group operations
 (whereof  1 operations were pure point group operations)
 out of a pool of 24 trial point group operations.


The dynamic configuration has the point symmetry C_1 .


Analysis of structural, dynamic, and magnetic symmetry:
=====================================================================
 Subroutine PRICEL returns:
 Original cell was already a primitive cell.
 

 Routine SETGRP: Setting up the symmetry group for a 
 hexagonal supercell.


 Subroutine GETGRP returns: Found  1 space group operations
 (whereof  1 operations were pure point group operations)
 out of a pool of 24 trial point group operations.


The magnetic configuration has the point symmetry C_1 .


 Subroutine INISYM returns: Found  1 space group operations
 (whereof  1 operations are pure point group operations),
 and found     1 'primitive' translations

 
 

Automatic generation of k-mesh.
 generate k-points for:    2    2    2
Space group operators:
 irot       det(A)        alpha          n_x          n_y          n_z        tau_x        tau_y        tau_z
    1     1.000000     0.000000     1.000000     0.000000     0.000000     0.000000     0.000000     0.000000
 
 Subroutine IBZKPT returns following result:
 ===========================================
 
 Found      8 irreducible k-points:
 
 Following reciprocal coordinates:
            Coordinates               Weight
  0.000000  0.000000  0.000000      1.000000
  0.500000 -0.000000 -0.000000      1.000000
  0.000000  0.500000  0.000000      1.000000
  0.500000  0.500000 -0.000000      1.000000
  0.000000  0.000000  0.500000      1.000000
  0.500000 -0.000000  0.500000      1.000000
  0.000000  0.500000  0.500000      1.000000
  0.500000  0.500000  0.500000      1.000000
 
 Following cartesian coordinates:
            Coordinates               Weight
  0.000000  0.000000  0.000000      1.000000
  0.049905  0.028813 -0.000000      1.000000
  0.000000  0.057626  0.000000      1.000000
  0.049905  0.086438 -0.000000      1.000000
  0.000000  0.000000  0.044571      1.000000
  0.049905  0.028813  0.044571      1.000000
  0.000000  0.057626  0.044571      1.000000
  0.049905  0.086438  0.044571      1.000000
 


--------------------------------------------------------------------------------------------------------




 Dimension of arrays:
   k-points           NKPTS =      8   k-points in BZ     NKDIM =      8   number of bands    NBANDS=    480
   number of dos      NEDOS =    301   number of ions     NIONS =     88
   non local maximal  LDIM  =      6   non local SUM 2l+1 LMDIM =     18
   total plane-waves  NPLWV = 140000
   max r-space proj   IRMAX =   1632   max aug-charges    IRDMAX=   4555
   dimension x,y,z NGX =    50 NGY =   50 NGZ =   56
   dimension x,y,z NGXF=   100 NGYF=  100 NGZF=  112
   support grid    NGXF=   100 NGYF=  100 NGZF=  112
   ions per type =              16   8  16  48
   NGX,Y,Z   is equivalent  to a cutoff of   8.30,  8.30,  8.30 a.u.
   NGXF,Y,Z  is equivalent  to a cutoff of  16.59, 16.59, 16.60 a.u.

 SYSTEM =  unknown system                          
 POSCAR =  Na Mg Mn  O                             

 Startparameter for this run:
   NWRITE =      2    write-flag & timer
   PREC   = normal    normal or accurate (medium, high low for compatibility)
   ISTART =      0    job   : 0-new  1-cont  2-samecut
   ICHARG =      1    charge: 1-file 2-atom 10-const
   ISPIN  =      2    spin polarized calculation?
   LNONCOLLINEAR =      F non collinear calculations
   LSORBIT =      F    spin-orbit coupling
   INIWAV =      1    electr: 0-lowe 1-rand  2-diag
   LASPH  =      T    aspherical Exc in radial PAW
   METAGGA=      F    non-selfconsistent MetaGGA calc.

 Electronic Relaxation 1
   ENCUT  =  400.0 eV  29.40 Ry    5.42 a.u.  16.34 16.34 18.29*2*pi/ulx,y,z
   ENINI  =  400.0     initial cutoff
   ENAUG  =  758.8 eV  augmentation charge cutoff
   NELM   =    200;   NELMIN=  6; NELMDL=-12     # of ELM steps 
   EDIFF  = 0.1E-04   stopping-criterion for ELM
   LREAL  =      T    real-space projection
   NLSPLINE    = F    spline interpolate recip. space projectors
   LCOMPAT=      F    compatible to vasp.4.4
   GGA_COMPAT  = T    GGA compatible to vasp.4.4-vasp.4.6
   LMAXPAW     = -100 max onsite density
   LMAXMIX     =    4 max onsite mixed and CHGCAR
   VOSKOWN=      0    Vosko Wilk Nusair interpolation
   ROPT   =   -0.00050  -0.00050  -0.00050  -0.00050
 Ionic relaxation
   EDIFFG = 0.1E-03   stopping-criterion for IOM
   NSW    =      1    number of steps for IOM
   NBLOCK =      1;   KBLOCK =      1    inner block; outer block 
   IBRION =     -1    ionic relax: 0-MD 1-quasi-New 2-CG
   NFREE  =      0    steps in history (QN), initial steepest desc. (CG)
   ISIF   =      2    stress and relaxation
   IWAVPR =     10    prediction:  0-non 1-charg 2-wave 3-comb
   ISYM   =      2    0-nonsym 1-usesym 2-fastsym
   LCORR  =      T    Harris-Foulkes like correction to forces

   POTIM  = 0.5000    time-step for ionic-motion
   TEIN   =    0.0    initial temperature
   TEBEG  =    0.0;   TEEND  =   0.0 temperature during run
   SMASS  =  -3.00    Nose mass-parameter (am)
   estimated Nose-frequenzy (Omega)   =  0.10E-29 period in steps =****** mass=  -0.229E-26a.u.
   SCALEE = 1.0000    scale energy and forces
   NPACO  =    256;   APACO  = 16.0  distance and # of slots for P.C.
   PSTRESS=    0.0 pullay stress

  Mass of Ions in am
   POMASS =  22.99 24.30 54.94 16.00
  Ionic Valenz
   ZVAL   =   7.00  8.00 13.00  6.00
  Atomic Wigner-Seitz radii
   RWIGS  =  -1.00 -1.00 -1.00 -1.00
  virtual crystal weights 
   VCA    =   1.00  1.00  1.00  1.00
   NELECT =     672.0000    total number of electrons
   NUPDOWN=      48.0000    fix difference up-down

 DOS related values:
   EMIN   =  10.00;   EMAX   =-10.00  energy-range for DOS
   EFERMI =   0.00
   ISMEAR =     0;   SIGMA  =   0.05  broadening in eV -4-tet -1-fermi 0-gaus

 Electronic relaxation 2 (details)
   IALGO  =     48    algorithm
   LDIAG  =      T    sub-space diagonalisation (order eigenvalues)
   LSUBROT=      F    optimize rotation matrix (better conditioning)
   TURBO    =      0    0=normal 1=particle mesh
   IRESTART =      0    0=no restart 2=restart with 2 vectors
   NREBOOT  =      0    no. of reboots
   NMIN     =      0    reboot dimension
   EREF     =   0.00    reference energy to select bands
   IMIX   =      4    mixing-type and parameters
     AMIX     =   0.40;   BMIX     =  1.00
     AMIX_MAG =   1.60;   BMIX_MAG =  1.00
     AMIN     =   0.10
     WC   =   100.;   INIMIX=   1;  MIXPRE=   1;  MAXMIX= -45

 Intra band minimization:
   WEIMIN = 0.0000     energy-eigenvalue tresh-hold
   EBREAK =  0.52E-08  absolut break condition
   DEPER  =   0.30     relativ break condition  

   TIME   =   0.40     timestep for ELM

  volume/ion in A,a.u.               =      11.08        74.78
  Fermi-wavevector in a.u.,A,eV,Ry     =   1.445993  2.732531 28.448379  2.090897
  Thomas-Fermi vector in A             =   2.564112
 
 Write flags
   LWAVE        =      F    write WAVECAR
   LDOWNSAMPLE  =      F    k-point downsampling of WAVECAR
   LCHARG       =      F    write CHGCAR
   LVTOT        =      F    write LOCPOT, total local potential
   LVHAR        =      F    write LOCPOT, Hartree potential only
   LELF         =      F    write electronic localiz. function (ELF)
   LORBIT       =     11    0 simple, 1 ext, 2 COOP (PROOUT), +10 PAW based schemes


 Dipole corrections
   LMONO  =      F    monopole corrections only (constant potential shift)
   LDIPOL =      F    correct potential (dipole corrections)
   IDIPOL =      0    1-x, 2-y, 3-z, 4-all directions 
   EPSILON=  1.0000000 bulk dielectric constant

 Exchange correlation treatment:
   GGA     =    --    GGA type
   LEXCH   =     8    internal setting for exchange type
   VOSKOWN=      0    Vosko Wilk Nusair interpolation
   LHFCALC =     F    Hartree Fock is set to
   LHFONE  =     F    Hartree Fock one center treatment
   AEXX    =    0.0000 exact exchange contribution

 Linear response parameters
   LEPSILON=     F    determine dielectric tensor
   LRPA    =     F    only Hartree local field effects (RPA)
   LNABLA  =     F    use nabla operator in PAW spheres
   LVEL    =     F    velocity operator in full k-point grid
   LINTERFAST=   F  fast interpolation
   KINTER  =     0    interpolate to denser k-point grid
   CSHIFT  =0.1000    complex shift for real part using Kramers Kronig
   OMEGAMAX=  -1.0    maximum frequency
   DEG_THRESHOLD= 0.2000000E-02 threshold for treating states as degnerate
   RTIME   =   -0.100 relaxation time in fs
  (WPLASMAI=    0.000 imaginary part of plasma frequency in eV, 0.658/RTIME)
   DFIELD  = 0.0000000 0.0000000 0.0000000 field for delta impulse in time
 
 Orbital magnetization related:
   ORBITALMAG=     F  switch on orbital magnetization
   LCHIMAG   =     F  perturbation theory with respect to B field
   DQ        =  0.001000  dq finite difference perturbation B field
   LLRAUG    =     F  two centre corrections for induced B field



--------------------------------------------------------------------------------------------------------


 Static calculation
 charge density and potential will be updated during run
 spin polarized calculation
 RMM-DIIS sequential band-by-band
 perform sub-space diagonalisation
    before iterative eigenvector-optimisation
 modified Broyden-mixing scheme, WC =      100.0
 initial mixing is a Kerker type mixing with AMIX =  0.4000 and BMIX =      1.0000
 Hartree-type preconditioning will be used
 using additional bands          144
 real space projection scheme for non local part
 use partial core corrections
 calculate Harris-corrections to forces 
   (improved forces if not selfconsistent)
 use gradient corrections 
 use of overlap-Matrix (Vanderbilt PP)
 Gauss-broadening in eV      SIGMA  =   0.05


--------------------------------------------------------------------------------------------------------


  energy-cutoff  :      400.00
  volume of cell :      975.20
      direct lattice vectors                 reciprocal lattice vectors
    10.019000053  0.000000000  0.000000000     0.099810360  0.057625538 -0.000000000
    -5.009500027  8.676708567  0.000000000     0.000000000  0.115251076  0.000000000
     0.000000000  0.000000000 11.218000412     0.000000000  0.000000000  0.089142446

  length of vectors
    10.019000053 10.019000053 11.218000412     0.115251076  0.115251076  0.089142446


 
 k-points in units of 2pi/SCALE and weight: read from INCAR                         
   0.00000000  0.00000000  0.00000000       0.125
   0.04990518  0.02881277 -0.00000000       0.125
   0.00000000  0.05762554  0.00000000       0.125
   0.04990518  0.08643831 -0.00000000       0.125
   0.00000000  0.00000000  0.04457122       0.125
   0.04990518  0.02881277  0.04457122       0.125
   0.00000000  0.05762554  0.04457122       0.125
   0.04990518  0.08643831  0.04457122       0.125
 
 k-points in reciprocal lattice and weights: read from INCAR                         
   0.00000000  0.00000000  0.00000000       0.125
   0.50000000 -0.00000000 -0.00000000       0.125
   0.00000000  0.50000000  0.00000000       0.125
   0.50000000  0.50000000 -0.00000000       0.125
   0.00000000  0.00000000  0.50000000       0.125
   0.50000000 -0.00000000  0.50000000       0.125
   0.00000000  0.50000000  0.50000000       0.125
   0.50000000  0.50000000  0.50000000       0.125
 
 position of ions in fractional coordinates (direct lattice) 
   0.80960963  0.26437346  0.24350596
   0.29558288  0.39200217  0.74548312
   0.53958880  0.27327084  0.75269831
   0.71278446  0.11906128  0.74900693
   0.83154376  0.76360654  0.25278748
   0.03357964  0.62390347  0.24876180
   0.53786876  0.76618570  0.74552948
   0.83385811  0.60387151  0.75104294
   0.51703365  0.42381278  0.25189248
   0.29956991  0.01953308  0.24813691
   0.31817095  0.59024489  0.25047690
   0.30711442  0.90796872  0.75643962
   0.00679365  0.94982923  0.75879744
   0.04444572  0.47046642  0.74457387
   0.04297296  0.12986047  0.24169994
   0.63622008  0.91847271  0.25191923
   0.68280997  0.27167445  0.99176205
   0.68449207  0.28137859  0.49933230
   0.18803723  0.27642279  0.99843415
   0.18946320  0.27040899  0.49240148
   0.17317209  0.76350957  0.99748615
   0.18026896  0.75668325  0.51088338
   0.68133789  0.76654643  0.98168684
   0.69647971  0.77102509  0.49614457
   0.01246809  0.93246188  0.01004154
   0.34436212  0.10392535  0.00408154
   0.02288611  0.92947918  0.49508556
   0.34412923  0.09317312  0.50899445
   0.51544201  0.94221789  0.99393828
   0.85091079  0.10000105  0.00059722
   0.52108526  0.93097399  0.50268406
   0.85491325  0.10027466  0.49550809
   0.51840115  0.44337781  0.99004591
   0.84489654  0.60080617  0.99986262
   0.51201201  0.43317463  0.51008288
   0.84045274  0.59692105  0.50588071
   0.01534915  0.43449310  0.99837018
   0.34039917  0.60367707  0.99837757
   0.01075370  0.43348465  0.49133979
   0.35170329  0.60218111  0.50451237
   0.17667720  0.09137416  0.09674808
   0.36135630  0.94157278  0.08991977
   0.50348361  0.26968406  0.09018987
   0.18118814  0.93513404  0.60210196
   0.35731441  0.26677973  0.59969868
   0.50918607  0.09853783  0.60124352
   0.17367643  0.94437453  0.91218574
   0.35513319  0.26445742  0.91241751
   0.49823423  0.09296313  0.89947403
   0.18543233  0.08684630  0.40682473
   0.36354977  0.94893006  0.42606702
   0.50815449  0.27711545  0.41662951
   0.67870714  0.09019999  0.09413442
   0.85226564  0.94669718  0.09977268
   0.00789105  0.26700678  0.09157782
   0.69123371  0.94506650  0.58740148
   0.85780447  0.27487036  0.58668834
   0.00851853  0.08905624  0.58558208
   0.68651689  0.95238102  0.90394006
   0.86212206  0.27710969  0.90147973
   0.01546241  0.09159556  0.92115347
   0.68099339  0.09036088  0.40339542
   0.86096310  0.93492751  0.39641289
   0.00133246  0.26780316  0.40335085
   0.68278077  0.59253229  0.08508557
   0.84830861  0.44187724  0.09422357
   0.00184562  0.76509657  0.09572918
   0.68292970  0.44660599  0.60648509
   0.87278781  0.77012498  0.59261453
   0.99131719  0.57964607  0.59193794
   0.68192395  0.45239966  0.90329824
   0.86174104  0.77139505  0.90573183
   0.99939950  0.59337132  0.90664999
   0.67688904  0.58559763  0.41323675
   0.85883388  0.44768474  0.39978159
   0.01902257  0.77021603  0.40793723
   0.18821398  0.59905896  0.09194687
   0.36618667  0.45959363  0.08634114
   0.51398578  0.77214764  0.08276208
   0.17548304  0.43830215  0.58653769
   0.36814784  0.75739319  0.60412549
   0.49937128  0.59034252  0.60160098
   0.18033396  0.45189140  0.90813867
   0.34806244  0.76594482  0.90571400
   0.49604082  0.58821499  0.90149756
   0.18325938  0.59257724  0.41178907
   0.36621803  0.44546731  0.40607950
   0.51333562  0.77034626  0.40889729
 
 position of ions in cartesian coordinates  (Angst):
   6.78710013  2.29389143  2.73165000
   0.99770997  3.40128857  8.36283000
   4.03718997  2.37109143  8.44377000
   6.54495005  1.03306000  8.40236000
   4.50594997  6.62559143  2.83577000
  -2.78901003  5.41342857  2.79061000
   1.55069989  6.64797000  8.36335000
   5.32933005  5.23961713  8.42520000
   3.05707000  3.67730000  2.82573000
   2.90354000  0.16948287  2.78360000
   0.23092300  5.12138287  2.80985000
  -1.47149000  7.87818000  8.48574000
  -4.69010403  8.24139143  8.51219000
  -1.91149984  4.08210000  8.35263000
  -0.21998997  1.12676143  2.71139000
   1.77319995  7.96932000  2.82603000
   5.48012000  2.35724000 11.12558711
   5.44836000  2.44144000  5.60151000
   0.49920500  2.39844000 11.20043471
   0.54361800  2.34626000  5.52376000
  -2.08979000  6.62475000 11.18980000
  -1.98449000  6.56552000  5.73109000
   2.98631000  6.65110000 11.01256341
   3.11558000  6.68996000  5.56575000
  -4.54625005  8.09070000  0.11264600
   2.92955000  0.90173000  0.04578670
  -4.42693005  8.06482000  5.55387000
   2.98108000  0.80843600  5.70990000
   0.44417300  8.17535000 11.15000000
   8.02432000  0.86768000  0.00669959
   0.55703900  8.07779000  5.63911000
   8.06305000  0.87005400  5.55861000
   2.97276000  3.84706000 11.10633541
   5.45528000  5.21302000 11.21645931
   2.95986000  3.75853000  5.72211000
   5.43022000  5.17931000  5.67497000
  -2.02281005  3.76997000 11.19971711
   0.38633900  5.23793000 11.19980001
  -2.06380005  3.76122000  5.51185000
   0.50708900  5.22495000  5.65962000
   1.31239000  0.79282700  1.08532000
  -1.09638003  8.16975257  1.00872000
   3.69342000  2.33997000  1.01175000
  -2.86923003  8.11388557  6.75438000
   2.24350000  2.31477000  6.72742000
   4.60791000  0.85498400  6.74475000
  -2.99078003  8.19406257 10.23290000
   2.23328000  2.29462000 10.23550000
   4.52611000  0.80661400 10.09030000
   1.42279000  0.75354000  4.56376000
  -1.11126003  8.23358957  4.77962000
   3.70299000  2.40445000  4.67375000
   6.34811000  0.78263900  1.05600000
   3.79636997  8.21421557  1.11925000
  -1.25851005  2.31674000  1.02732000
   2.19115997  8.20006657  6.58947000
   7.21738000  2.38497000  6.58147000
  -0.36078005  0.77271500  6.56906000
   2.10725997  8.26353257 10.14040000
   7.24942000  2.40440000 10.11280000
  -0.30393005  0.79474800 10.33350000
   6.37021000  0.78403500  4.52529000
   3.94246997  8.11209357  4.44696000
  -1.32821005  2.32365000  4.52479000
   3.87249000  5.14123000  0.95449000
   6.28562000  3.83404000  1.05700000
  -3.81426005  6.63852000  1.07389000
   4.60500000  3.87507000  6.80355000
   4.88652000  6.68215000  6.64795000
   7.02827000  5.02942000  6.64036000
   4.56590000  3.92534000 10.13320000
   4.76948000  6.69317000 10.16050000
   7.04049000  5.14851000 10.17080000
   3.84820000  5.08106000  4.63569000
   6.36198000  3.88443000  4.48475000
  -3.66781005  6.68294000  4.57624000
  -1.11527000  5.19786000  1.03146000
   1.36649000  3.98776000  0.96857500
   1.28155000  6.69970000  0.92842500
  -0.43751000  3.80302000  6.57978000
  -0.10568800  6.57168000  6.77708000
   2.04588000  5.12223000  6.74876000
  -0.45698400  3.92093000 10.18750000
  -0.34976300  6.64588000 10.16030000
   2.02317000  5.10377000 10.11300000
  -1.13244000  5.14162000  4.61945000
   1.43757000  3.86519000  4.55540000
   1.28406000  6.68407000  4.58701000
 


--------------------------------------------------------------------------------------------------------


 k-point  1 :   0.0000 0.0000 0.0000  plane waves:   17725
 k-point  2 :   0.5000-0.0000-0.0000  plane waves:   17736
 k-point  3 :   0.0000 0.5000 0.0000  plane waves:   17736
 k-point  4 :   0.5000 0.5000-0.0000  plane waves:   17736
 k-point  5 :   0.0000 0.0000 0.5000  plane waves:   17676
 k-point  6 :   0.5000-0.0000 0.5000  plane waves:   17700
 k-point  7 :   0.0000 0.5000 0.5000  plane waves:   17700
 k-point  8 :   0.5000 0.5000 0.5000  plane waves:   17700

 maximum and minimum number of plane-waves per node :     17736    17676

 maximum number of plane-waves:     17736
 maximum index in each direction: 
   IXMAX=   16   IYMAX=   16   IZMAX=   18
   IXMIN=  -16   IYMIN=  -16   IZMIN=  -18


 serial   3D FFT for wavefunctions
 parallel 3D FFT for charge:
    minimum data exchange during FFTs selected (reduces bandwidth)


 total amount of memory used by VASP MPI-rank0    94438. kBytes
=======================================================================

   base      :      30000. kBytes
   nonlr-proj:      13679. kBytes
   fftplans  :       1275. kBytes
   grid      :      22786. kBytes
   one-center:       2737. kBytes
   wavefun   :      23961. kBytes
 
     INWAV:  cpu time    0.0000: real time    0.0001
 Broyden mixing: mesh for mixing (old mesh)
   NGX = 33   NGY = 33   NGZ = 37
  (NGX  =100   NGY  =100   NGZ  =112)
  gives a total of  40293 points

 initial charge density was supplied:
 charge density of overlapping atoms calculated
 number of electron     672.0000000 magnetization      48.0000000
 keeping initial charge density in first step


--------------------------------------------------------------------------------------------------------


 Maximum index for non-local projection operator         1551
 Maximum index for augmentation-charges          515 (set IRDMAX)


--------------------------------------------------------------------------------------------------------


 First call to EWALD:  gamma=   0.179
 Maximum number of real-space cells 3x 3x 2
 Maximum number of reciprocal cells 3x 3x 3

    FEWALD:  cpu time    0.0027: real time    0.0027


--------------------------------------- Iteration      1(   1)  ---------------------------------------


    POTLOK:  cpu time    0.1940: real time    0.1954
    SETDIJ:  cpu time    4.6120: real time    4.6718
    EDDIAG:  cpu time    4.4028: real time    4.7802
  RMM-DIIS:  cpu time    9.0352: real time    9.0405
    ORTHCH:  cpu time    1.1638: real time    1.2429
       DOS:  cpu time    0.0020: real time    0.0021
    --------------------------------------------
      LOOP:  cpu time   19.4099: real time   19.9329

 eigenvalue-minimisations  :  7680
 total energy-change (2. order) : 0.1567033E+04  (-0.3495112E+05)
 number of electron     672.0000000 magnetization      48.0000000
 augmentation part      672.0000000 magnetization      48.0000000

 Free energy of the ion-electron system (eV)
  ---------------------------------------------------
  alpha Z        PSCENC =      2652.81237852
  Ewald energy   TEWEN  =    -41849.60423121
  -Hartree energ DENC   =    -25766.12940957
  -exchange      EXHF   =         0.00000000
  -V(xc)+E(xc)   XCENC  =      3605.90825204
  PAW double counting   =     55594.23204139   -59034.67079123
  entropy T*S    EENTRO =        -0.05987780
  eigenvalues    EBANDS =     -7497.65373944
  atomic energy  EATOM  =     73862.19814772
  Solvation  Ediel_sol  =         0.00000000
  ---------------------------------------------------
  free energy    TOTEN  =      1567.03277042 eV

  energy without entropy =     1567.09264822  energy(sigma->0) =     1567.06270932


--------------------------------------------------------------------------------------------------------




--------------------------------------- Iteration      1(   2)  ---------------------------------------


    EDDIAG:  cpu time    4.3758: real time    4.7647
  RMM-DIIS:  cpu time    9.0521: real time    9.0633
    ORTHCH:  cpu time    1.1804: real time    1.2743
       DOS:  cpu time    0.0022: real time    0.0022
    --------------------------------------------
      LOOP:  cpu time   14.6104: real time   15.1044

 eigenvalue-minimisations  :  7680
 total energy-change (2. order) :-0.2292610E+04  (-0.8014934E+04)
 number of electron     672.0000000 magnetization      48.0000000
 augmentation part      672.0000000 magnetization      48.0000000

 Free energy of the ion-electron system (eV)
  ---------------------------------------------------
  alpha Z        PSCENC =      2652.81237852
  Ewald energy   TEWEN  =    -41849.60423121
  -Hartree energ DENC   =    -25766.12940957
  -exchange      EXHF   =         0.00000000
  -V(xc)+E(xc)   XCENC  =      3605.90825204
  PAW double counting   =     55594.23204139   -59034.67079123
  entropy T*S    EENTRO =        -0.03841976
  eigenvalues    EBANDS =     -9790.28488393
  atomic energy  EATOM  =     73862.19814772
  Solvation  Ediel_sol  =         0.00000000
  ---------------------------------------------------
  free energy    TOTEN  =      -725.57691602 eV

  energy without entropy =     -725.53849627  energy(sigma->0) =     -725.55770614


--------------------------------------------------------------------------------------------------------




--------------------------------------- Iteration      1(   3)  ---------------------------------------


    EDDIAG:  cpu time    4.4101: real time    4.7839
  RMM-DIIS:  cpu time    9.0352: real time    9.0436
    ORTHCH:  cpu time    1.1603: real time    1.2412
       DOS:  cpu time    0.0024: real time    0.0024
    --------------------------------------------
      LOOP:  cpu time   14.6080: real time   15.0711

 eigenvalue-minimisations  :  7680
 total energy-change (2. order) : 0.7849118E+02  (-0.1419381E+04)
 number of electron     672.0000000 magnetization      48.0000000
 augmentation part      672.0000000 magnetization      48.0000000

 Free energy of the ion-electron system (eV)
  ---------------------------------------------------
  alpha Z        PSCENC =      2652.81237852
  Ewald energy   TEWEN  =    -41849.60423121
  -Hartree energ DENC   =    -25766.12940957
  -exchange      EXHF   =         0.00000000
  -V(xc)+E(xc)   XCENC  =      3605.90825204
  PAW double counting   =     55594.23204139   -59034.67079123
  entropy T*S    EENTRO =        -0.04056023
  eigenvalues    EBANDS =     -9711.79156310
  atomic energy  EATOM  =     73862.19814772
  Solvation  Ediel_sol  =         0.00000000
  ---------------------------------------------------
  free energy    TOTEN  =      -647.08573567 eV

  energy without entropy =     -647.04517544  energy(sigma->0) =     -647.06545556


--------------------------------------------------------------------------------------------------------




--------------------------------------- Iteration      1(   4)  ---------------------------------------


    EDDIAG:  cpu time    4.3992: real time    4.7862
  RMM-DIIS:  cpu time    9.0278: real time    9.0504
    ORTHCH:  cpu time    1.1872: real time    1.2751
       DOS:  cpu time    0.0011: real time    0.0019
    --------------------------------------------
      LOOP:  cpu time   14.6154: real time   15.1135

 eigenvalue-minimisations  :  7680
 total energy-change (2. order) :-0.4652784E+03  (-0.4291954E+03)
 number of electron     672.0000000 magnetization      48.0000000
 augmentation part      672.0000000 magnetization      48.0000000

 Free energy of the ion-electron system (eV)
  ---------------------------------------------------
  alpha Z        PSCENC =      2652.81237852
  Ewald energy   TEWEN  =    -41849.60423121
  -Hartree energ DENC   =    -25766.12940957
  -exchange      EXHF   =         0.00000000
  -V(xc)+E(xc)   XCENC  =      3605.90825204
  PAW double counting   =     55594.23204139   -59034.67079123
  entropy T*S    EENTRO =        -0.00000000
  eigenvalues    EBANDS =    -10177.11049321
  atomic energy  EATOM  =     73862.19814772
  Solvation  Ediel_sol  =         0.00000000
  ---------------------------------------------------
  free energy    TOTEN  =     -1112.36410555 eV

  energy without entropy =    -1112.36410555  energy(sigma->0) =    -1112.36410555


--------------------------------------------------------------------------------------------------------




--------------------------------------- Iteration      1(   5)  ---------------------------------------


    EDDIAG:  cpu time    4.4069: real time    4.7867
  RMM-DIIS:  cpu time    9.0425: real time    9.0529
    ORTHCH:  cpu time    1.1624: real time    1.2417
       DOS:  cpu time    0.0013: real time    0.0013
    --------------------------------------------
      LOOP:  cpu time   14.6131: real time   15.0826

 eigenvalue-minimisations  :  7680
 total energy-change (2. order) :-0.1039894E+03  (-0.1595397E+03)
 number of electron     672.0000000 magnetization      48.0000000
 augmentation part      672.0000000 magnetization      48.0000000

 Free energy of the ion-electron system (eV)
  ---------------------------------------------------
  alpha Z        PSCENC =      2652.81237852
  Ewald energy   TEWEN  =    -41849.60423121
  -Hartree energ DENC   =    -25766.12940957
  -exchange      EXHF   =         0.00000000
  -V(xc)+E(xc)   XCENC  =      3605.90825204
  PAW double counting   =     55594.23204139   -59034.67079123
  entropy T*S    EENTRO =        -0.00000000
  eigenvalues    EBANDS =    -10281.09992176
  atomic energy  EATOM  =     73862.19814772
  Solvation  Ediel_sol  =         0.00000000
  ---------------------------------------------------
  free energy    TOTEN  =     -1216.35353409 eV

  energy without entropy =    -1216.35353409  energy(sigma->0) =    -1216.35353409


--------------------------------------------------------------------------------------------------------




--------------------------------------- Iteration      1(   6)  ---------------------------------------


    EDDIAG:  cpu time    4.4081: real time    4.8021
  RMM-DIIS:  cpu time    9.0438: real time    9.0567
    ORTHCH:  cpu time    1.1807: real time    1.2665
       DOS:  cpu time    0.0016: real time    0.0016
    --------------------------------------------
      LOOP:  cpu time   14.6342: real time   15.1269

 eigenvalue-minimisations  :  7680
 total energy-change (2. order) :-0.9051970E+01  (-0.7918887E+02)
 number of electron     672.0000000 magnetization      48.0000000
 augmentation part      672.0000000 magnetization      48.0000000

 Free energy of the ion-electron system (eV)
  ---------------------------------------------------
  alpha Z        PSCENC =      2652.81237852
  Ewald energy   TEWEN  =    -41849.60423121
  -Hartree energ DENC   =    -25766.12940957
  -exchange      EXHF   =         0.00000000
  -V(xc)+E(xc)   XCENC  =      3605.90825204
  PAW double counting   =     55594.23204139   -59034.67079123
  entropy T*S    EENTRO =        -0.00000000
  eigenvalues    EBANDS =    -10290.15189215
  atomic energy  EATOM  =     73862.19814772
  Solvation  Ediel_sol  =         0.00000000
  ---------------------------------------------------
  free energy    TOTEN  =     -1225.40550449 eV

  energy without entropy =    -1225.40550449  energy(sigma->0) =    -1225.40550449


--------------------------------------------------------------------------------------------------------




--------------------------------------- Iteration      1(   7)  ---------------------------------------


    EDDIAG:  cpu time    4.4031: real time    4.7767
  RMM-DIIS:  cpu time    9.0492: real time    9.0533
    ORTHCH:  cpu time    1.1704: real time    1.2479
       DOS:  cpu time    0.0012: real time    0.0012
    --------------------------------------------
      LOOP:  cpu time   14.6239: real time   15.0791

 eigenvalue-minimisations  :  7680
 total energy-change (2. order) :-0.1732527E+01  (-0.4817301E+02)
 number of electron     672.0000000 magnetization      48.0000000
 augmentation part      672.0000000 magnetization      48.0000000

 Free energy of the ion-electron system (eV)
  ---------------------------------------------------
  alpha Z        PSCENC =      2652.81237852
  Ewald energy   TEWEN  =    -41849.60423121
  -Hartree energ DENC   =    -25766.12940957
  -exchange      EXHF   =         0.00000000
  -V(xc)+E(xc)   XCENC  =      3605.90825204
  PAW double counting   =     55594.23204139   -59034.67079123
  entropy T*S    EENTRO =        -0.00000000
  eigenvalues    EBANDS =    -10291.88441874
  atomic energy  EATOM  =     73862.19814772
  Solvation  Ediel_sol  =         0.00000000
  ---------------------------------------------------
  free energy    TOTEN  =     -1227.13803108 eV

  energy without entropy =    -1227.13803108  energy(sigma->0) =    -1227.13803108


--------------------------------------------------------------------------------------------------------




--------------------------------------- Iteration      1(   8)  ---------------------------------------


    EDDIAG:  cpu time    4.4043: real time    4.7795
  RMM-DIIS:  cpu time    9.0423: real time    9.0631
    ORTHCH:  cpu time    1.2203: real time    1.3136
       DOS:  cpu time    0.0019: real time    0.0019
    --------------------------------------------
      LOOP:  cpu time   14.6688: real time   15.1581

 eigenvalue-minimisations  :  7680
 total energy-change (2. order) : 0.4982333E+01  (-0.2985073E+02)
 number of electron     672.0000000 magnetization      48.0000000
 augmentation part      672.0000000 magnetization      48.0000000

 Free energy of the ion-electron system (eV)
  ---------------------------------------------------
  alpha Z        PSCENC =      2652.81237852
  Ewald energy   TEWEN  =    -41849.60423121
  -Hartree energ DENC   =    -25766.12940957
  -exchange      EXHF   =         0.00000000
  -V(xc)+E(xc)   XCENC  =      3605.90825204
  PAW double counting   =     55594.23204139   -59034.67079123
  entropy T*S    EENTRO =        -0.00000000
  eigenvalues    EBANDS =    -10286.90208618
  atomic energy  EATOM  =     73862.19814772
  Solvation  Ediel_sol  =         0.00000000
  ---------------------------------------------------
  free energy    TOTEN  =     -1222.15569852 eV

  energy without entropy =    -1222.15569852  energy(sigma->0) =    -1222.15569852


--------------------------------------------------------------------------------------------------------




--------------------------------------- Iteration      1(   9)  ---------------------------------------


    EDDIAG:  cpu time    4.4949: real time    4.8628
  RMM-DIIS:  cpu time   18.8980: real time   18.9066
    ORTHCH:  cpu time    1.1846: real time    1.2641
       DOS:  cpu time    0.0012: real time    0.0012
    --------------------------------------------
      LOOP:  cpu time   24.5786: real time   25.0346

 eigenvalue-minimisations  : 21801
 total energy-change (2. order) : 0.9193575E+01  (-0.1316363E+02)
 number of electron     672.0000000 magnetization      48.0000000
 augmentation part      672.0000000 magnetization      48.0000000

 Free energy of the ion-electron system (eV)
  ---------------------------------------------------
  alpha Z        PSCENC =      2652.81237852
  Ewald energy   TEWEN  =    -41849.60423121
  -Hartree energ DENC   =    -25766.12940957
  -exchange      EXHF   =         0.00000000
  -V(xc)+E(xc)   XCENC  =      3605.90825204
  PAW double counting   =     55594.23204139   -59034.67079123
  entropy T*S    EENTRO =        -0.00000000
  eigenvalues    EBANDS =    -10277.70851134
  atomic energy  EATOM  =     73862.19814772
  Solvation  Ediel_sol  =         0.00000000
  ---------------------------------------------------
  free energy    TOTEN  =     -1212.96212368 eV

  energy without entropy =    -1212.96212368  energy(sigma->0) =    -1212.96212368


--------------------------------------------------------------------------------------------------------




--------------------------------------- Iteration      1(  10)  ---------------------------------------


    EDDIAG:  cpu time    4.4582: real time    4.8181
  RMM-DIIS:  cpu time   17.9455: real time   17.9852
    ORTHCH:  cpu time    1.1596: real time    1.2419
       DOS:  cpu time    0.0017: real time    0.0017
    --------------------------------------------
      LOOP:  cpu time   23.5650: real time   24.0469

 eigenvalue-minimisations  : 19674
 total energy-change (2. order) :-0.1872684E+01  (-0.5258923E+00)
 number of electron     672.0000000 magnetization      48.0000000
 augmentation part      672.0000000 magnetization      48.0000000

 Free energy of the ion-electron system (eV)
  ---------------------------------------------------
  alpha Z        PSCENC =      2652.81237852
  Ewald energy   TEWEN  =    -41849.60423121
  -Hartree energ DENC   =    -25766.12940957
  -exchange      EXHF   =         0.00000000
  -V(xc)+E(xc)   XCENC  =      3605.90825204
  PAW double counting   =     55594.23204139   -59034.67079123
  entropy T*S    EENTRO =        -0.00000005
  eigenvalues    EBANDS =    -10279.58119528
  atomic energy  EATOM  =     73862.19814772
  Solvation  Ediel_sol  =         0.00000000
  ---------------------------------------------------
  free energy    TOTEN  =     -1214.83480767 eV

  energy without entropy =    -1214.83480762  energy(sigma->0) =    -1214.83480765


--------------------------------------------------------------------------------------------------------




--------------------------------------- Iteration      1(  11)  ---------------------------------------


    EDDIAG:  cpu time    4.4775: real time    4.8170
  RMM-DIIS:  cpu time   19.7266: real time   19.7757
    ORTHCH:  cpu time    1.1650: real time    1.2448
       DOS:  cpu time    0.0014: real time    0.0014
    --------------------------------------------
      LOOP:  cpu time   25.3705: real time   25.8388

 eigenvalue-minimisations  : 22642
 total energy-change (2. order) : 0.6919981E-01  (-0.4344829E-01)
 number of electron     672.0000000 magnetization      48.0000000
 augmentation part      672.0000000 magnetization      48.0000000

 Free energy of the ion-electron system (eV)
  ---------------------------------------------------
  alpha Z        PSCENC =      2652.81237852
  Ewald energy   TEWEN  =    -41849.60423121
  -Hartree energ DENC   =    -25766.12940957
  -exchange      EXHF   =         0.00000000
  -V(xc)+E(xc)   XCENC  =      3605.90825204
  PAW double counting   =     55594.23204139   -59034.67079123
  entropy T*S    EENTRO =        -0.00000004
  eigenvalues    EBANDS =    -10279.51199549
  atomic energy  EATOM  =     73862.19814772
  Solvation  Ediel_sol  =         0.00000000
  ---------------------------------------------------
  free energy    TOTEN  =     -1214.76560786 eV

  energy without entropy =    -1214.76560783  energy(sigma->0) =    -1214.76560784


--------------------------------------------------------------------------------------------------------




--------------------------------------- Iteration      1(  12)  ---------------------------------------


    EDDIAG:  cpu time    4.5187: real time    4.8721
  RMM-DIIS:  cpu time   21.7485: real time   21.8027
    ORTHCH:  cpu time    1.1656: real time    1.2418
       DOS:  cpu time    0.0014: real time    0.0014
    CHARGE:  cpu time    1.7903: real time    1.7928
    MIXING:  cpu time    0.0014: real time    0.0016
    --------------------------------------------
      LOOP:  cpu time   29.2260: real time   29.7127

 eigenvalue-minimisations  : 24332
 total energy-change (2. order) :-0.6459010E-03  (-0.4205289E-02)
 number of electron     672.0000295 magnetization      47.9999990
 augmentation part      239.0396934 magnetization      29.0367375

 Broyden mixing:
  rms(total) = 0.12527E+02    rms(broyden)= 0.12518E+02
  rms(prec ) = 0.14385E+02
  weight for this iteration     100.00

 Free energy of the ion-electron system (eV)
  ---------------------------------------------------
  alpha Z        PSCENC =      2652.81237852
  Ewald energy   TEWEN  =    -41849.60423121
  -Hartree energ DENC   =    -25766.12940957
  -exchange      EXHF   =         0.00000000
  -V(xc)+E(xc)   XCENC  =      3605.90825204
  PAW double counting   =     55594.23204139   -59034.67079123
  entropy T*S    EENTRO =        -0.00000004
  eigenvalues    EBANDS =    -10279.51264139
  atomic energy  EATOM  =     73862.19814772
  Solvation  Ediel_sol  =         0.00000000
  ---------------------------------------------------
  free energy    TOTEN  =     -1214.76625377 eV

  energy without entropy =    -1214.76625373  energy(sigma->0) =    -1214.76625375


--------------------------------------------------------------------------------------------------------




--------------------------------------- Iteration      1(  13)  ---------------------------------------


    POTLOK:  cpu time    0.1755: real time    0.1783
    SETDIJ:  cpu time    5.0163: real time    5.0184
    EDDIAG:  cpu time    4.4831: real time    4.8172
  RMM-DIIS:  cpu time   17.5154: real time   17.5894
    ORTHCH:  cpu time    1.1560: real time    1.2372
       DOS:  cpu time    0.0023: real time    0.0023
    CHARGE:  cpu time    1.8023: real time    1.8045
    MIXING:  cpu time    0.0009: real time    0.0010
    --------------------------------------------
      LOOP:  cpu time   30.1518: real time   30.6479

 eigenvalue-minimisations  : 18780
 total energy-change (2. order) : 0.2280108E+03  (-0.1220931E+03)
 number of electron     672.0000293 magnetization      47.9999992
 augmentation part      269.0890516 magnetization      26.3857175

 Broyden mixing:
  rms(total) = 0.13964E+02    rms(broyden)= 0.13961E+02
  rms(prec ) = 0.15724E+02
  weight for this iteration     100.00

 eigenvalues of (default mixing * dielectric matrix)
  average eigenvalue GAMMA=   0.3177
  0.3177

 Free energy of the ion-electron system (eV)
  ---------------------------------------------------
  alpha Z        PSCENC =      2652.81237852
  Ewald energy   TEWEN  =    -41849.60423121
  -Hartree energ DENC   =    -25093.14005138
  -exchange      EXHF   =         0.00000000
  -V(xc)+E(xc)   XCENC  =      3696.00993698
  PAW double counting   =     59866.05409868   -63290.94910223
  entropy T*S    EENTRO =        -0.09099669
  eigenvalues    EBANDS =    -10830.04559447
  atomic energy  EATOM  =     73862.19814772
  Solvation  Ediel_sol  =         0.00000000
  ---------------------------------------------------
  free energy    TOTEN  =      -986.75541407 eV

  energy without entropy =     -986.66441738  energy(sigma->0) =     -986.70991573


--------------------------------------------------------------------------------------------------------




--------------------------------------- Iteration      1(  14)  ---------------------------------------


    POTLOK:  cpu time    0.1747: real time    0.1748
    SETDIJ:  cpu time    5.0151: real time    5.0171
    EDDIAG:  cpu time    4.5190: real time    4.8531
  RMM-DIIS:  cpu time   17.9118: real time   17.9721
    ORTHCH:  cpu time    1.1597: real time    1.2386
       DOS:  cpu time    0.0011: real time    0.0011
    CHARGE:  cpu time    1.8074: real time    1.8112
    MIXING:  cpu time    0.0009: real time    0.0009
    --------------------------------------------
      LOOP:  cpu time   30.5898: real time   31.0689

 eigenvalue-minimisations  : 19382
 total energy-change (2. order) : 0.7031958E+02  (-0.1796039E+02)
 number of electron     672.0000302 magnetization      47.9999987
 augmentation part      246.5312068 magnetization      32.1677217

 Broyden mixing:
  rms(total) = 0.52659E+01    rms(broyden)= 0.52616E+01
  rms(prec ) = 0.57003E+01
  weight for this iteration     100.00

 eigenvalues of (default mixing * dielectric matrix)
  average eigenvalue GAMMA=   0.7293
  1.1017  0.3570

 Free energy of the ion-electron system (eV)
  ---------------------------------------------------
  alpha Z        PSCENC =      2652.81237852
  Ewald energy   TEWEN  =    -41849.60423121
  -Hartree energ DENC   =    -25705.76652045
  -exchange      EXHF   =         0.00000000
  -V(xc)+E(xc)   XCENC  =      3673.10946600
  PAW double counting   =     63245.59632624   -66727.68729464
  entropy T*S    EENTRO =        -0.00000000
  eigenvalues    EBANDS =    -10067.09411066
  atomic energy  EATOM  =     73862.19814772
  Solvation  Ediel_sol  =         0.00000000
  ---------------------------------------------------
  free energy    TOTEN  =      -916.43583847 eV

  energy without entropy =     -916.43583847  energy(sigma->0) =     -916.43583847


--------------------------------------------------------------------------------------------------------




--------------------------------------- Iteration      1(  15)  ---------------------------------------


    POTLOK:  cpu time    0.1751: real time    0.1763
    SETDIJ:  cpu time    5.0135: real time    5.0180
    EDDIAG:  cpu time    4.5239: real time    4.8648
  RMM-DIIS:  cpu time   18.2284: real time   18.2676
    ORTHCH:  cpu time    1.1589: real time    1.2394
       DOS:  cpu time    0.0011: real time    0.0011
    CHARGE:  cpu time    1.8013: real time    1.8078
    MIXING:  cpu time    0.0015: real time    0.0015
    --------------------------------------------
      LOOP:  cpu time   30.9036: real time   31.3764

 eigenvalue-minimisations  : 20259
 total energy-change (2. order) : 0.1448397E+02  (-0.2023941E+01)
 number of electron     672.0000301 magnetization      47.9999982
 augmentation part      249.6891911 magnetization      33.8286027

 Broyden mixing:
  rms(total) = 0.21531E+01    rms(broyden)= 0.21527E+01
  rms(prec ) = 0.22313E+01
  weight for this iteration     100.00

 eigenvalues of (default mixing * dielectric matrix)
  average eigenvalue GAMMA=   0.9484
  0.3815  0.7553  1.7084

 Free energy of the ion-electron system (eV)
  ---------------------------------------------------
  alpha Z        PSCENC =      2652.81237852
  Ewald energy   TEWEN  =    -41849.60423121
  -Hartree energ DENC   =    -25624.36304380
  -exchange      EXHF   =         0.00000000
  -V(xc)+E(xc)   XCENC  =      3706.42068228
  PAW double counting   =     67312.60367065   -70834.84981062
  entropy T*S    EENTRO =        -0.00000000
  eigenvalues    EBANDS =    -10127.16966546
  atomic energy  EATOM  =     73862.19814772
  Solvation  Ediel_sol  =         0.00000000
  ---------------------------------------------------
  free energy    TOTEN  =      -901.95187192 eV

  energy without entropy =     -901.95187192  energy(sigma->0) =     -901.95187192


--------------------------------------------------------------------------------------------------------




--------------------------------------- Iteration      1(  16)  ---------------------------------------


    POTLOK:  cpu time    0.1754: real time    0.1763
    SETDIJ:  cpu time    5.0794: real time    5.0831
    EDDIAG:  cpu time    4.5154: real time    4.8537
  RMM-DIIS:  cpu time   17.5563: real time   17.6033
    ORTHCH:  cpu time    1.1633: real time    1.2427
       DOS:  cpu time    0.0015: real time    0.0015
    CHARGE:  cpu time    1.8074: real time    1.8104
    MIXING:  cpu time    0.0010: real time    0.0010
    --------------------------------------------
      LOOP:  cpu time   30.2998: real time   30.7720

 eigenvalue-minimisations  : 19055
 total energy-change (2. order) :-0.1620718E+01  (-0.6448473E+00)
 number of electron     672.0000303 magnetization      47.9999981
 augmentation part      251.2006406 magnetization      33.9190121

 Broyden mixing:
  rms(total) = 0.14488E+01    rms(broyden)= 0.14483E+01
  rms(prec ) = 0.15389E+01
  weight for this iteration     100.00

 eigenvalues of (default mixing * dielectric matrix)
  average eigenvalue GAMMA=   0.9728
  2.0772  0.9027  0.3885  0.5227

 Free energy of the ion-electron system (eV)
  ---------------------------------------------------
  alpha Z        PSCENC =      2652.81237852
  Ewald energy   TEWEN  =    -41849.60423121
  -Hartree energ DENC   =    -25572.69070432
  -exchange      EXHF   =         0.00000000
  -V(xc)+E(xc)   XCENC  =      3707.41863598
  PAW double counting   =     70242.26361356   -73794.20073386
  entropy T*S    EENTRO =        -0.00000000
  eigenvalues    EBANDS =    -10151.76969585
  atomic energy  EATOM  =     73862.19814772
  Solvation  Ediel_sol  =         0.00000000
  ---------------------------------------------------
  free energy    TOTEN  =      -903.57258945 eV

  energy without entropy =     -903.57258945  energy(sigma->0) =     -903.57258945


--------------------------------------------------------------------------------------------------------




--------------------------------------- Iteration      1(  17)  ---------------------------------------


    POTLOK:  cpu time    0.1770: real time    0.1779
    SETDIJ:  cpu time    5.0862: real time    5.0877
    EDDIAG:  cpu time    4.5511: real time    4.8686
  RMM-DIIS:  cpu time   18.3212: real time   18.4329
    ORTHCH:  cpu time    1.1637: real time    1.2413
       DOS:  cpu time    0.0017: real time    0.0017
    CHARGE:  cpu time    1.7836: real time    1.7855
    MIXING:  cpu time    0.0021: real time    0.0021
    --------------------------------------------
      LOOP:  cpu time   31.0866: real time   31.5976

 eigenvalue-minimisations  : 20547
 total energy-change (2. order) : 0.1578469E+00  (-0.6176587E-01)
 number of electron     672.0000301 magnetization      47.9999980
 augmentation part      251.1189957 magnetization      33.9165829

 Broyden mixing:
  rms(total) = 0.77567E+00    rms(broyden)= 0.77556E+00
  rms(prec ) = 0.87565E+00
  weight for this iteration     100.00

 eigenvalues of (default mixing * dielectric matrix)
  average eigenvalue GAMMA=   0.9998
  2.2334  1.1307  0.3790  0.6938  0.5624

 Free energy of the ion-electron system (eV)
  ---------------------------------------------------
  alpha Z        PSCENC =      2652.81237852
  Ewald energy   TEWEN  =    -41849.60423121
  -Hartree energ DENC   =    -25564.61717371
  -exchange      EXHF   =         0.00000000
  -V(xc)+E(xc)   XCENC  =      3704.57726780
  PAW double counting   =     71099.15847681   -74659.41618607
  entropy T*S    EENTRO =        -0.00000000
  eigenvalues    EBANDS =    -10148.52342242
  atomic energy  EATOM  =     73862.19814772
  Solvation  Ediel_sol  =         0.00000000
  ---------------------------------------------------
  free energy    TOTEN  =      -903.41474255 eV

  energy without entropy =     -903.41474255  energy(sigma->0) =     -903.41474255


--------------------------------------------------------------------------------------------------------




--------------------------------------- Iteration      1(  18)  ---------------------------------------


    POTLOK:  cpu time    0.1723: real time    0.1727
    SETDIJ:  cpu time    5.0541: real time    5.0573
    EDDIAG:  cpu time    4.5144: real time    4.8516
  RMM-DIIS:  cpu time   17.7407: real time   17.7542
    ORTHCH:  cpu time    1.1618: real time    1.2405
       DOS:  cpu time    0.0011: real time    0.0011
    CHARGE:  cpu time    1.7817: real time    1.7826
    MIXING:  cpu time    0.0013: real time    0.0013
    --------------------------------------------
      LOOP:  cpu time   30.4276: real time   30.8613

 eigenvalue-minimisations  : 18977
 total energy-change (2. order) : 0.4115116E+00  (-0.6991987E-01)
 number of electron     672.0000302 magnetization      47.9999979
 augmentation part      250.5994948 magnetization      33.8768659

 Broyden mixing:
  rms(total) = 0.27678E+00    rms(broyden)= 0.27649E+00
  rms(prec ) = 0.29084E+00
  weight for this iteration     100.00

 eigenvalues of (default mixing * dielectric matrix)
  average eigenvalue GAMMA=   1.0191
[...]
   4      -0.689    -0.798     1.487     0.190    -0.015     0.009
   5      -0.910    -0.567     1.477     0.071    -0.015    -0.008
   6      -0.631    -0.751     1.383    -0.192     0.051    -0.062
   7      -0.881    -0.551     1.432     0.002     0.117     0.033
   8      -0.966    -1.038     2.004     0.148     0.008    -0.056
   9      -0.972    -0.807     1.780     0.093    -0.029     0.021
  10      -0.593    -1.204     1.797     0.054    -0.001    -0.181
  11      -0.880    -1.052     1.932     0.182     0.025     0.032
  12      -0.602    -0.693     1.295    -0.123     0.075     0.013
  13      -0.852    -0.954     1.806    -0.098    -0.030     0.066
  14      -0.700    -1.120     1.820     0.106     0.038    -0.002
  15      -0.611    -0.759     1.370    -0.183     0.032     0.097
  16      -0.736    -0.916     1.652     0.299    -0.020     0.000
  17       1.411     1.440    -2.851     0.028     0.029    -0.028
  18       1.595     1.261    -2.856     0.033    -0.136    -0.008
  19       1.490     1.582    -3.072     0.027    -0.066    -0.141
  20       1.458     1.489    -2.947     0.070     0.172     0.032
  21       1.553     1.424    -2.977    -0.052    -0.045     0.065
  22       1.336     1.594    -2.930    -0.032    -0.002     0.023
  23       1.413     1.440    -2.852    -0.122     0.109     0.034
  24       1.532     1.396    -2.929    -0.174    -0.052    -0.043
  25       0.732    -1.515     0.783     0.463     0.572     0.258
  26       0.262    -1.528     1.266    -0.197     0.932     0.405
  27       1.308    -1.000    -0.308     0.525    -0.794     0.516
  28      -0.477    -0.901     1.378     1.218     0.113    -0.093
  29      -1.832     0.738     1.094    -0.031    -0.460     0.093
  30      -1.406     0.496     0.910    -1.129    -1.666     0.313
  31      -1.580     0.329     1.251     1.033     0.169    -0.103
  32      -0.552    -0.825     1.377     0.337    -0.276     1.601
  33      -1.445     0.068     1.377     0.385    -0.614    -0.302
  34      -0.349     0.466    -0.116    -0.313     0.272     0.160
  35       1.504    -0.285    -1.219     0.703    -0.982     0.276
  36      -0.052     0.689    -0.637    -0.311    -0.208    -0.868
  37      -1.037     0.613     0.424    -0.520     0.252    -0.454
  38      -1.629     0.782     0.847     0.588    -0.235     0.181
  39      -1.145    -0.085     1.230    -0.041     0.311     0.724
  40       0.390    -0.026    -0.365    -0.767    -0.002    -1.210
  41      -3.158     0.668     2.490    -5.265     2.733    -3.929
  42      -4.136     2.744     1.392     4.769     4.021     3.777
  43       5.809    -6.336     0.527    -2.465    -5.843    -0.492
  44      -1.984     1.961     0.022    -4.483    -1.774     3.764
  45       5.907    -6.431     0.523    -1.375     4.588     1.379
  46      -4.275     2.800     1.475     2.675    -2.818    -5.273
  47      -2.143     2.315    -0.172    -4.475     3.575    -3.296
  48       5.184    -6.327     1.142    -1.053    -4.895     2.248
  49      -1.522     2.339    -0.817     4.301     1.418     3.486
  50      -2.494     0.672     1.822    -4.077    -2.444     3.671
  51      -4.792     3.041     1.752     6.587    -0.971    -5.663
  52       5.385    -5.810     0.426     0.843     5.499    -1.251
  53      -3.272     4.445    -1.172    -4.632     2.009    -4.520
  54      -2.777     1.847     0.930     5.173     1.290     6.059
  55       5.182    -6.533     1.352    -0.029    -4.387     0.718
  56      -2.985     2.884     0.101    -5.646    -3.017     3.209
  57       4.672    -4.976     0.304     2.566     5.954     0.865
  58      -4.667     3.090     1.577     5.245    -3.546    -3.156
  59      -4.074     3.734     0.340    -3.674     0.236    -3.712
  60       4.116    -5.196     1.079    -0.708    -5.630    -2.254
  61      -4.848     1.984     2.864     4.031     2.299     5.053
  62      -2.544     1.736     0.808    -5.497    -1.887     5.414
  63      -2.680     1.380     1.300     3.146    -2.037    -4.325
  64       5.467    -6.991     1.523     1.077     3.850     1.337
  65      -5.091     5.443    -0.352    -4.283     1.632    -4.638
  66      -3.032     2.315     0.717     5.106     2.367     4.154
  67       4.316    -5.820     1.504    -0.058    -3.998    -0.391
  68      -1.969     1.253     0.716    -5.386    -1.410     5.604
  69       6.706    -6.994     0.288    -0.303     3.639    -0.330
  70      -3.591     3.859    -0.267     4.444    -1.279    -3.230
  71      -4.359     3.320     1.039    -4.299     1.762    -4.386
  72       4.742    -4.084    -0.658     0.501    -3.356    -0.038
  73      -2.372     1.772     0.600     5.019     2.075     4.072
  74      -2.849     3.138    -0.289    -4.664    -3.189     2.287
  75      -5.334     6.502    -1.168     3.959    -1.879    -2.884
  76       4.143    -5.479     1.336    -0.296     5.243    -1.768
  77      -2.995     1.856     1.139    -4.411     3.404    -3.391
  78      -3.290     3.734    -0.444     5.236     2.141     3.539
  79       2.424    -6.119     3.695     0.173    -5.677     1.240
  80      -1.851     0.219     1.631    -5.326    -2.671     4.183
  81       5.992    -6.018     0.026    -0.135     3.620    -1.394
  82      -3.533     3.017     0.516     5.774    -4.362    -3.881
  83      -2.877     2.582     0.295    -4.869     3.218    -3.868
  84       4.596    -6.060     1.464    -1.462    -4.014     0.687
  85      -3.583     2.425     1.159     5.321     1.063     4.587
  86      -2.661     0.522     2.139    -5.019    -2.942     3.427
  87      -2.490     3.082    -0.592     5.041    -2.878    -2.401
  88       5.238    -5.352     0.114     1.777     5.105    -1.064
 ---------------------------------------------------------------------


 Total hyperfine coupling parameters after diagonalization (MHz)
 (convention: |A_zz| > |A_xx| > |A_yy|)
 ----------------------------------------------------------------------
  ion      A_xx      A_yy      A_zz     asymmetry (A_yy - A_xx)/ A_zz 
 ----------------------------------------------------------------------
   1       1.396     1.192     3.229      -0.063
   2       2.080     1.848     3.806      -0.061
   3       1.691     1.347     3.552      -0.097
   4       1.323     0.928     3.356      -0.118
   5       1.796     1.426     3.826      -0.097
   6       1.786     1.386     3.665      -0.109
   7       2.488     2.154     4.479      -0.075
   8      -0.427    -0.121     2.734       0.112
   9       0.749     0.501     3.295      -0.075
  10       0.890     0.259     3.287      -0.192
  11       0.368    -0.034     3.066      -0.131
  12       1.546     1.283     3.362      -0.078
  13       0.786     0.566     3.388      -0.065
  14       0.790     0.321     3.286      -0.143
  15       2.291     1.891     4.153      -0.096
  16       2.468     1.843     4.633      -0.135
  17      13.300     9.054    13.362      -0.318
  18      12.620     8.501    12.964      -0.318
  19      16.524    11.964    16.635      -0.274
  20      14.216     9.857    14.360      -0.304
  21      14.566    10.182    14.732      -0.298
  22      14.766    10.503    15.032      -0.284
  23      13.729     9.567    13.972      -0.298
  24      13.726     9.518    14.099      -0.298
  25      96.451    94.637    97.671      -0.019
  26      96.851    95.391    98.884      -0.015
  27      93.401    92.000    95.201      -0.015
  28      97.015    94.538    97.854      -0.025
  29      96.756    94.136    97.224      -0.027
  30      98.644    95.779   100.508      -0.029
  31     100.634    97.811   101.118      -0.028
  32      98.243    96.840   100.874      -0.014
  33      99.965    98.298   101.530      -0.016
  34      95.557    94.858    96.075      -0.007
  35      92.976    91.535    95.220      -0.015
  36      96.018    94.842    97.153      -0.012
  37      99.334    98.071   100.397      -0.013
  38      94.867    92.303    95.117      -0.027
  39      94.337    93.505    96.287      -0.009
  40      95.975    94.253    97.203      -0.018
  41       5.094    -0.300    14.846      -0.363
  42       6.213     0.859    16.873      -0.317
  43       5.140     0.352    17.424      -0.275
  44       5.071     2.302    14.557      -0.190
  45       6.849     1.105    16.806      -0.342
  46      -1.260     1.094    12.839       0.183
  47       4.017     0.986    14.295      -0.212
  48       6.657     1.497    17.220      -0.300
  49       4.731     2.590    14.016      -0.153
  50       6.540     3.098    15.511      -0.222
  51       8.252     0.600    19.860      -0.385
  52       3.646    -0.391    15.034      -0.269
  53       3.430     1.552    16.014      -0.117
  54       5.623     0.837    17.237      -0.278
  55       6.357     1.198    15.876      -0.325
  56       7.658     3.042    18.144      -0.254
  57       1.438    -0.748    14.302      -0.153
  58       7.982     1.172    17.464      -0.390
  59       6.808     2.296    15.170      -0.297
  60       4.684    -0.182    14.968      -0.325
  61       5.963     1.462    17.110      -0.263
  62       4.018    -0.270    15.683      -0.273
  63       1.763    -0.027    11.452      -0.156
  64       7.302     0.864    16.077      -0.400
  65       6.946     3.155    19.202      -0.197
  66       4.285     0.419    14.930      -0.259
  67       6.517     1.967    14.968      -0.304
  68       5.845     0.920    16.722      -0.295
  69       7.620     1.958    17.330      -0.327
  70       5.056     1.190    14.350      -0.269
  71       6.544     2.278    16.879      -0.253
  72       3.682     1.807    12.300      -0.152
  73       4.978     1.331    15.068      -0.242
  74       7.850     3.182    16.569      -0.282
  75       6.630     1.979    17.514      -0.266
  76       4.872     1.075    15.414      -0.246
  77       6.546     2.532    16.206      -0.248
  78       4.616     0.874    15.414      -0.243
  79      -2.184     1.812    13.037       0.306
  80       2.334    -1.997    12.583      -0.344
  81       7.342     2.353    16.454      -0.303
  82       6.535     1.375    18.621      -0.277
  83       6.133     2.806    17.170      -0.194
  84       5.521     0.527    14.313      -0.349
  85       5.732     0.139    15.509      -0.361
  86       6.219     1.303    15.446      -0.318
  87       4.423     0.341    13.782      -0.296
  88       5.287     0.915    15.784      -0.277
 ---------------------------------------------------------------------



--------------------------------------------------------------------------------------------------------


 stress matrix after NEB project (eV)
    -46.44582     -2.76405     -2.80035
     -2.75888    -47.36897      3.52778
     -2.79385      3.52869    -61.71216
  FORCES: max atom, RMS     2.709996    1.010732
  FORCE total and by dimension    9.481505    2.151439
  Stress total and by dimension   90.913254   61.712158
     LOOP+:  cpu time  736.2361: real time  749.8106
    4ORBIT:  cpu time    0.0000: real time    0.0000
 


 total charge     
 
# of ion       s       p       d       tot
------------------------------------------
    1        0.047   5.989   0.000   6.037
    2        0.046   5.988   0.000   6.033
    3        0.054   5.996   0.000   6.049
    4        0.049   5.990   0.000   6.040
    5        0.048   5.989   0.000   6.037
    6        0.047   5.989   0.000   6.036
    7        0.050   5.992   0.000   6.043
    8        0.057   6.003   0.000   6.059
    9        0.046   5.990   0.000   6.036
   10        0.050   5.994   0.000   6.044
   11        0.050   5.994   0.000   6.044
   12        0.049   5.992   0.000   6.041
   13        0.048   5.992   0.000   6.041
   14        0.052   5.996   0.000   6.049
   15        0.048   5.991   0.000   6.040
   16        0.053   5.995   0.000   6.048
   17        0.146   6.123   0.080   6.349
   18        0.149   6.128   0.083   6.360
   19        0.151   6.132   0.087   6.371
   20        0.147   6.124   0.081   6.352
   21        0.152   6.134   0.089   6.374
   22        0.147   6.125   0.082   6.354
   23        0.149   6.128   0.083   6.360
   24        0.149   6.128   0.084   6.362
   25        0.384   6.476   4.851  11.711
   26        0.372   6.447   4.821  11.639
   27        0.377   6.461   4.835  11.673
   28        0.375   6.452   4.830  11.656
   29        0.367   6.437   4.803  11.608
   30        0.365   6.432   4.806  11.602
   31        0.365   6.431   4.806  11.602
   32        0.361   6.426   4.797  11.584
   33        0.381   6.464   4.845  11.690
   34        0.386   6.479   4.853  11.717
   35        0.380   6.465   4.842  11.687
   36        0.377   6.454   4.847  11.678
   37        0.364   6.430   4.810  11.604
   38        0.394   6.493   4.869  11.756
   39        0.385   6.475   4.846  11.706
   40        0.375   6.452   4.832  11.659
   41        1.599   3.513   0.000   5.112
   42        1.601   3.496   0.000   5.097
   43        1.600   3.474   0.000   5.074
   44        1.600   3.495   0.000   5.095
   45        1.598   3.503   0.000   5.101
   46        1.594   3.478   0.000   5.072
   47        1.599   3.508   0.000   5.108
   48        1.600   3.523   0.000   5.123
   49        1.594   3.503   0.000   5.097
   50        1.599   3.510   0.000   5.109
   51        1.603   3.527   0.000   5.130
   52        1.602   3.496   0.000   5.098
   53        1.599   3.485   0.000   5.084
   54        1.598   3.484   0.000   5.082
   55        1.599   3.498   0.000   5.097
   56        1.599   3.518   0.000   5.117
   57        1.600   3.490   0.000   5.090
   58        1.602   3.479   0.000   5.081
   59        1.596   3.518   0.000   5.113
   60        1.598   3.486   0.000   5.083
   61        1.604   3.519   0.000   5.123
   62        1.598   3.474   0.000   5.072
   63        1.594   3.494   0.000   5.089
   64        1.599   3.505   0.000   5.103
   65        1.602   3.513   0.000   5.115
   66        1.598   3.483   0.000   5.081
   67        1.597   3.522   0.000   5.119
   68        1.600   3.506   0.000   5.105
   69        1.601   3.519   0.000   5.120
   70        1.599   3.528   0.000   5.128
   71        1.599   3.534   0.000   5.133
   72        1.597   3.521   0.000   5.119
   73        1.599   3.513   0.000   5.111
   74        1.599   3.522   0.000   5.121
   75        1.599   3.495   0.000   5.094
   76        1.599   3.493   0.000   5.093
   77        1.599   3.530   0.000   5.129
   78        1.599   3.512   0.000   5.111
   79        1.599   3.484   0.000   5.083
   80        1.598   3.510   0.000   5.108
   81        1.600   3.491   0.000   5.091
   82        1.601   3.487   0.000   5.088
   83        1.601   3.535   0.000   5.136
   84        1.597   3.504   0.000   5.101
   85        1.598   3.512   0.000   5.110
   86        1.596   3.534   0.000   5.131
   87        1.598   3.498   0.000   5.096
   88        1.599   3.499   0.000   5.098
--------------------------------------------------
tot         84.741 416.399  77.961 579.100
 


 magnetization (x)
 
# of ion       s       p       d       tot
------------------------------------------
    1        0.001  -0.000   0.000   0.001
    2        0.002   0.000   0.000   0.002
    3        0.002  -0.000   0.000   0.001
    4        0.001  -0.000   0.000   0.001
    5        0.002  -0.000   0.000   0.002
    6        0.002   0.000   0.000   0.002
    7        0.002   0.000   0.000   0.003
    8        0.000   0.000   0.000   0.001
    9        0.001   0.001   0.000   0.002
   10        0.001   0.000   0.000   0.002
   11        0.001   0.000   0.000   0.001
   12        0.002  -0.000   0.000   0.002
   13        0.001   0.001   0.000   0.002
   14        0.001   0.001   0.000   0.002
   15        0.002   0.000   0.000   0.002
   16        0.002   0.000   0.000   0.003
   17        0.007   0.002   0.001   0.010
   18        0.006   0.002   0.001   0.010
   19        0.008   0.003   0.001   0.012
   20        0.007   0.002   0.001   0.011
   21        0.007   0.002   0.001   0.010
   22        0.007   0.002   0.001   0.011
   23        0.007   0.002   0.001   0.010
   24        0.007   0.002   0.001   0.010
   25        0.015   0.031   2.736   2.782
   26        0.015   0.030   2.757   2.802
   27        0.015   0.029   2.747   2.791
   28        0.015   0.030   2.758   2.802
   29        0.015   0.029   2.779   2.824
   30        0.016   0.029   2.781   2.826
   31        0.016   0.030   2.784   2.830
   32        0.016   0.029   2.790   2.835
   33        0.016   0.032   2.739   2.787
   34        0.015   0.030   2.732   2.778
   35        0.014   0.029   2.738   2.782
   36        0.015   0.030   2.731   2.776
   37        0.016   0.029   2.784   2.829
   38        0.015   0.031   2.712   2.758
   39        0.015   0.031   2.734   2.780
   40        0.015   0.029   2.754   2.798
   41        0.002   0.032   0.000   0.034
   42        0.002   0.040   0.000   0.042
   43        0.002   0.028   0.000   0.030
   44        0.002   0.022   0.000   0.024
   45        0.002   0.041   0.000   0.043
   46        0.001   0.008   0.000   0.009
   47        0.002   0.025   0.000   0.027
   48        0.002   0.040   0.000   0.042
   49        0.002   0.025   0.000   0.027
   50        0.002   0.046   0.000   0.048
   51        0.002   0.065   0.000   0.067
   52        0.002   0.018   0.000   0.020
   53        0.002   0.023   0.000   0.025
   54        0.002   0.035   0.000   0.037
   55        0.002   0.031   0.000   0.034
   56        0.003   0.046   0.000   0.049
   57        0.002   0.008   0.000   0.010
   58        0.002   0.043   0.000   0.045
   59        0.002   0.039   0.000   0.041
   60        0.002   0.024   0.000   0.026
   61        0.002   0.039   0.000   0.041
   62        0.002   0.017   0.000   0.019
   63        0.001   0.003   0.000   0.005
   64        0.002   0.046   0.000   0.048
   65        0.002   0.053   0.000   0.055
   66        0.002   0.021   0.000   0.023
   67        0.002   0.044   0.000   0.046
   68        0.002   0.034   0.000   0.036
   69        0.002   0.049   0.000   0.051
   70        0.002   0.036   0.000   0.038
   71        0.002   0.048   0.000   0.050
   72        0.002   0.021   0.000   0.022
   73        0.002   0.031   0.000   0.033
   74        0.002   0.050   0.000   0.052
   75        0.002   0.034   0.000   0.037
   76        0.002   0.029   0.000   0.031
   77        0.002   0.047   0.000   0.049
   78        0.002   0.034   0.000   0.036
   79        0.001   0.008   0.000   0.009
   80        0.001   0.012   0.000   0.014
   81        0.002   0.039   0.000   0.042
   82        0.002   0.047   0.000   0.049
   83        0.002   0.047   0.000   0.049
   84        0.002   0.028   0.000   0.030
   85        0.002   0.037   0.000   0.039
   86        0.002   0.044   0.000   0.046
   87        0.002   0.022   0.000   0.024
   88        0.002   0.027   0.000   0.029
--------------------------------------------------
tot          0.419   2.088  44.066  46.573
 

 total amount of memory used by VASP MPI-rank0    94438. kBytes
=======================================================================

   base      :      30000. kBytes
   nonlr-proj:      13679. kBytes
   fftplans  :       1275. kBytes
   grid      :      22786. kBytes
   one-center:       2737. kBytes
   wavefun   :      23961. kBytes
 
  
  
 General timing and accounting informations for this job:
 ========================================================
  
                  Total CPU time used (sec):      756.939
                            User time (sec):      748.896
                          System time (sec):        8.044
                         Elapsed time (sec):      772.818
  
                   Maximum memory used (kb):      195704.
                   Average memory used (kb):           0.
  
                          Minor page faults:       287794
                          Major page faults:            0
                 Voluntary context switches:       246957
