 vasp.5.4.4.18Apr17-6-g9f103f2a35 (build Dec 02 2020 12:53:39) complex          
  
 executed on             LinuxIFC date 2021.08.04  10:25:02
 running on   96 total cores
 distrk:  each k-point on   96 cores,    1 groups
 distr:  one band on NCORES_PER_BAND=   1 cores,   96 groups


--------------------------------------------------------------------------------------------------------


 INCAR:
 POTCAR:    PAW_PBE Na_pv 19Sep2006               
 POTCAR:    PAW_PBE Mg_pv 13Apr2007               
 POTCAR:    PAW_PBE Mn_pv 02Aug2007               
 POTCAR:    PAW_PBE O 08Apr2002                   

 ----------------------------------------------------------------------------- 
|                                                                             |
|           W    W    AA    RRRRR   N    N  II  N    N   GGGG   !!!           |
|           W    W   A  A   R    R  NN   N  II  NN   N  G    G  !!!           |
|           W    W  A    A  R    R  N N  N  II  N N  N  G       !!!           |
|           W WW W  AAAAAA  RRRRR   N  N N  II  N  N N  G  GGG   !            |
|           WW  WW  A    A  R   R   N   NN  II  N   NN  G    G                |
|           W    W  A    A  R    R  N    N  II  N    N   GGGG   !!!           |
|                                                                             |
|      For optimal performance we recommend to set                            |
|        NCORE= 4 - approx SQRT( number of cores)                             |
|      NCORE specifies how many cores store one orbital (NPAR=cpu/NCORE).     |
|      This setting can  greatly improve the performance of VASP for DFT.     |
|      The default,   NCORE=1            might be grossly inefficient         |
|      on modern multi-core architectures or massively parallel machines.     |
|      Do your own testing !!!!                                               |
|      Unfortunately you need to use the default for GW and RPA calculations. |
|      (for HF NCORE is supported but not extensively tested yet)             |
|                                                                             |
 ----------------------------------------------------------------------------- 

 POTCAR:    PAW_PBE Na_pv 19Sep2006               
   VRHFIN =Na: p6s1                                                             
   LEXCH  = PE                                                                  
   EATOM  =   766.0439 eV,   56.3026 Ry                                         
                                                                                
   TITEL  = PAW_PBE Na_pv 19Sep2006                                             
   LULTRA =        F    use ultrasoft PP ?                                      
   IUNSCR =        1    unscreen: 0-lin 1-nonlin 2-no                           
   RPACOR =    1.800    partial core radius                                     
   POMASS =   22.990; ZVAL   =    7.000    mass and valenz                      
   RCORE  =    2.200    outmost cutoff radius                                   
   RWIGS  =    2.200; RWIGS  =    1.164    wigner-seitz radius (au A)           
   ENMAX  =  259.561; ENMIN  =  194.671 eV                                      
   ICORE  =        2    local potential                                         
   LCOR   =        T    correct aug charges                                     
   LPAW   =        T    paw PP                                                  
   EAUG   =  368.056                                                            
   DEXC   =    0.000                                                            
   RMAX   =    2.245    core radius for proj-oper                               
   RAUG   =    1.300    factor for augmentation sphere                          
   RDEP   =    2.259    radius for radial grids                                 
   RDEPT  =    1.738    core radius for aug-charge                              
                                                                                
   Atomic configuration                                                         
    5 entries                                                                   
     n  l   j            E        occ.                                          
     1  0  0.50     -1033.6933   2.0000                                         
     2  0  0.50       -56.7526   2.0000                                         
     2  1  1.50       -28.6721   6.0000                                         
     3  0  0.50        -2.7440   1.0000                                         
     3  2  1.50        -1.3606   0.0000                                         
   Description                                                                  
     l       E           TYP  RCUT    TYP  RCUT                                 
     1    -28.6720912     23  2.000                                             
     1      6.8029130     23  2.000                                             
     0     -2.7439560     23  2.200                                             
     0     34.0145650     23  2.200                                             
     2     -1.3605826     23  2.200                                             
  local pseudopotential read in
  partial core-charges read in
  partial kinetic energy density read in
  atomic valenz-charges read in
  non local Contribution for L=           1  read in
    real space projection operators read in
  non local Contribution for L=           1  read in
    real space projection operators read in
  non local Contribution for L=           0  read in
    real space projection operators read in
  non local Contribution for L=           0  read in
    real space projection operators read in
    PAW grid and wavefunctions read in
 
   number of l-projection  operators is LMAX  =           4
   number of lm-projection operators is LMMAX =           8
 
 POTCAR:    PAW_PBE Mg_pv 13Apr2007               
   VRHFIN =Mg: p6s2                                                             
   LEXCH  = PE                                                                  
   EATOM  =  1056.7344 eV,   77.6678 Ry                                         
                                                                                
   TITEL  = PAW_PBE Mg_pv 13Apr2007                                             
   LULTRA =        F    use ultrasoft PP ?                                      
   IUNSCR =        1    unscreen: 0-lin 1-nonlin 2-no                           
   RPACOR =    1.500    partial core radius                                     
   POMASS =   24.305; ZVAL   =    8.000    mass and valenz                      
   RCORE  =    2.000    outmost cutoff radius                                   
   RWIGS  =    2.000; RWIGS  =    1.058    wigner-seitz radius (au A)           
   ENMAX  =  403.929; ENMIN  =  302.947 eV                                      
   RCLOC  =    1.506    cutoff for local pot                                    
   LCOR   =        T    correct aug charges                                     
   LPAW   =        T    paw PP                                                  
   EAUG   =  758.780                                                            
   DEXC   =    0.000                                                            
   RMAX   =    2.045    core radius for proj-oper                               
   RAUG   =    1.300    factor for augmentation sphere                          
   RDEP   =    2.025    radius for radial grids                                 
   RDEPT  =    1.557    core radius for aug-charge                              
                                                                                
   Atomic configuration                                                         
    5 entries                                                                   
     n  l   j            E        occ.                                          
     1  0  0.50     -1259.6230   2.0000                                         
     2  0  0.50       -79.8442   2.0000                                         
     2  1  1.50       -46.6121   6.0000                                         
     3  0  0.50        -4.7055   2.0000                                         
     3  2  1.50        -1.3606   0.0000                                         
   Description                                                                  
     l       E           TYP  RCUT    TYP  RCUT                                 
     1    -46.6121073     23  1.600                                             
     1      2.7211652     23  1.600                                             
     0     -4.7054661     23  2.000                                             
     0     61.2262170     23  2.000                                             
     2     -1.3605826     23  2.000                                             
  local pseudopotential read in
  partial core-charges read in
  partial kinetic energy density read in
  atomic valenz-charges read in
  non local Contribution for L=           1  read in
    real space projection operators read in
  non local Contribution for L=           1  read in
    real space projection operators read in
  non local Contribution for L=           0  read in
    real space projection operators read in
  non local Contribution for L=           0  read in
    real space projection operators read in
  non local Contribution for L=           2  read in
    real space projection operators read in
    PAW grid and wavefunctions read in
 
   number of l-projection  operators is LMAX  =           5
   number of lm-projection operators is LMMAX =          13
 
 POTCAR:    PAW_PBE Mn_pv 02Aug2007               
   VRHFIN =Mn: 3p4s3d                                                           
   LEXCH  = PE                                                                  
   EATOM  =  2025.2664 eV,  148.8529 Ry                                         
                                                                                
   TITEL  = PAW_PBE Mn_pv 02Aug2007                                             
   LULTRA =        F    use ultrasoft PP ?                                      
   IUNSCR =        1    unscreen: 0-lin 1-nonlin 2-no                           
   RPACOR =    2.080    partial core radius                                     
   POMASS =   54.938; ZVAL   =   13.000    mass and valenz                      
   RCORE  =    2.300    outmost cutoff radius                                   
   RWIGS  =    2.500; RWIGS  =    1.323    wigner-seitz radius (au A)           
   ENMAX  =  269.864; ENMIN  =  202.398 eV                                      
   ICORE  =        3    local potential                                         
   LCOR   =        T    correct aug charges                                     
   LPAW   =        T    paw PP                                                  
   EAUG   =  569.085                                                            
   DEXC   =    0.000                                                            
   RMAX   =    2.343    core radius for proj-oper                               
   RAUG   =    1.300    factor for augmentation sphere                          
   RDEP   =    2.338    radius for radial grids                                 
   RDEPT  =    1.798    core radius for aug-charge                              
                                                                                
   Atomic configuration                                                         
    8 entries                                                                   
     n  l   j            E        occ.                                          
     1  0  0.50     -6424.8287   2.0000                                         
     2  0  0.50      -739.1154   2.0000                                         
     2  1  1.50      -625.3949   6.0000                                         
     3  0  0.50       -81.6100   2.0000                                         
     3  1  1.50       -50.4667   6.0000                                         
     3  2  2.50        -3.3745   6.0000                                         
     4  0  0.50        -4.1331   1.0000                                         
     4  3  2.50        -1.3606   0.0000                                         
   Description                                                                  
     l       E           TYP  RCUT    TYP  RCUT                                 
     1    -50.4666628     23  2.000                                             
     1     -1.3605826     23  2.000                                             
     2     -3.3744729     23  2.300                                             
     2     -4.7350555     23  2.300                                             
     0     -4.1331431     23  2.300                                             
     0      7.6656591     23  2.300                                             
     3      9.5240782     23  2.300                                             
  local pseudopotential read in
  partial core-charges read in
  partial kinetic energy density read in
  atomic valenz-charges read in
  non local Contribution for L=           1  read in
    real space projection operators read in
  non local Contribution for L=           1  read in
    real space projection operators read in
  non local Contribution for L=           2  read in
    real space projection operators read in
  non local Contribution for L=           2  read in
    real space projection operators read in
  non local Contribution for L=           0  read in
    real space projection operators read in
  non local Contribution for L=           0  read in
    real space projection operators read in
    PAW grid and wavefunctions read in
 
   number of l-projection  operators is LMAX  =           6
   number of lm-projection operators is LMMAX =          18
 
 POTCAR:    PAW_PBE O 08Apr2002                   
   VRHFIN =O: s2p4                                                              
   LEXCH  = PE                                                                  
   EATOM  =   432.3788 eV,   31.7789 Ry                                         
                                                                                
   TITEL  = PAW_PBE O 08Apr2002                                                 
   LULTRA =        F    use ultrasoft PP ?                                      
   IUNSCR =        1    unscreen: 0-lin 1-nonlin 2-no                           
   RPACOR =    1.200    partial core radius                                     
   POMASS =   16.000; ZVAL   =    6.000    mass and valenz                      
   RCORE  =    1.520    outmost cutoff radius                                   
   RWIGS  =    1.550; RWIGS  =    0.820    wigner-seitz radius (au A)           
   ENMAX  =  400.000; ENMIN  =  300.000 eV                                      
   ICORE  =        2    local potential                                         
   LCOR   =        T    correct aug charges                                     
   LPAW   =        T    paw PP                                                  
   EAUG   =  605.392                                                            
   DEXC   =    0.000                                                            
   RMAX   =    1.553    core radius for proj-oper                               
   RAUG   =    1.300    factor for augmentation sphere                          
   RDEP   =    1.550    radius for radial grids                                 
   RDEPT  =    1.329    core radius for aug-charge                              
                                                                                
   Atomic configuration                                                         
    4 entries                                                                   
     n  l   j            E        occ.                                          
     1  0  0.50      -514.6923   2.0000                                         
     2  0  0.50       -23.9615   2.0000                                         
     2  1  0.50        -9.0305   4.0000                                         
     3  2  1.50        -9.5241   0.0000                                         
   Description                                                                  
     l       E           TYP  RCUT    TYP  RCUT                                 
     0    -23.9615318     23  1.200                                             
     0     -9.5240782     23  1.200                                             
     1     -9.0304911     23  1.520                                             
     1      8.1634956     23  1.520                                             
     2     -9.5240782      7  1.500                                             
  local pseudopotential read in
  partial core-charges read in
  partial kinetic energy density read in
  kinetic energy density of atom read in
  atomic valenz-charges read in
  non local Contribution for L=           0  read in
    real space projection operators read in
  non local Contribution for L=           0  read in
    real space projection operators read in
  non local Contribution for L=           1  read in
    real space projection operators read in
  non local Contribution for L=           1  read in
    real space projection operators read in
    PAW grid and wavefunctions read in
 
   number of l-projection  operators is LMAX  =           4
   number of lm-projection operators is LMMAX =           8
 
 Optimization of the real space projectors (new method)

 maximal supplied QI-value         = 17.01
 optimisation between [QCUT,QGAM] = [ 10.20, 20.41] = [ 29.16,116.64] Ry 
 Optimized for a Real-space Cutoff    1.30 Angstroem

   l    n(q)    QCUT    max X(q) W(low)/X(q) W(high)/X(q)  e(spline) 
   1      7    10.205     4.940    0.23E-03    0.84E-03    0.11E-06
   1      7    10.205     6.253    0.40E-03    0.13E-02    0.18E-06
   0      8    10.205    37.438    0.23E-03    0.37E-03    0.42E-07
   0      8    10.205     9.606    0.16E-03    0.26E-03    0.31E-07
 Optimization of the real space projectors (new method)

 maximal supplied QI-value         = 18.90
 optimisation between [QCUT,QGAM] = [ 10.20, 20.41] = [ 29.16,116.64] Ry 
 Optimized for a Real-space Cutoff    1.26 Angstroem

   l    n(q)    QCUT    max X(q) W(low)/X(q) W(high)/X(q)  e(spline) 
   1      7    10.205     2.974    0.63E-04    0.14E-03    0.13E-06
   1      7    10.205     4.279    0.11E-03    0.45E-03    0.24E-06
   0      8    10.205    16.381    0.44E-03    0.15E-03    0.55E-07
   0      8    10.205     5.611    0.31E-03    0.11E-03    0.40E-07
   2      7    10.205     4.652    0.50E-03    0.47E-03    0.57E-07
 Optimization of the real space projectors (new method)

 maximal supplied QI-value         = 16.25
 optimisation between [QCUT,QGAM] = [ 10.24, 20.48] = [ 29.35,117.42] Ry 
 Optimized for a Real-space Cutoff    1.34 Angstroem

   l    n(q)    QCUT    max X(q) W(low)/X(q) W(high)/X(q)  e(spline) 
   1      8    10.239     3.658    0.23E-03    0.30E-03    0.98E-07
   1      8    10.239     5.612    0.32E-03    0.65E-03    0.21E-06
   2      7    10.239    55.373    0.42E-03    0.45E-03    0.65E-07
   2      7    10.239    50.863    0.43E-03    0.48E-03    0.67E-07
   0      8    10.239    79.536    0.11E-03    0.21E-03    0.56E-07
   0      8    10.239    38.668    0.96E-04    0.19E-03    0.52E-07
 Optimization of the real space projectors (new method)

 maximal supplied QI-value         = 24.76
 optimisation between [QCUT,QGAM] = [ 10.15, 20.30] = [ 28.85,115.39] Ry 
 Optimized for a Real-space Cutoff    1.38 Angstroem

   l    n(q)    QCUT    max X(q) W(low)/X(q) W(high)/X(q)  e(spline) 
   0      8    10.150    20.381    0.22E-03    0.32E-03    0.29E-06
   0      8    10.150    15.268    0.23E-03    0.35E-03    0.30E-06
   1      8    10.150     5.964    0.46E-03    0.53E-03    0.21E-06
   1      8    10.150     5.382    0.38E-03    0.45E-03    0.19E-06
  PAW_PBE Na_pv 19Sep2006               :
 energy of atom  1       EATOM= -766.0439
 kinetic energy error for atom=    0.0103 (will be added to EATOM!!)
  PAW_PBE Mg_pv 13Apr2007               :
 energy of atom  2       EATOM=-1056.7344
 kinetic energy error for atom=    0.0820 (will be added to EATOM!!)
  PAW_PBE Mn_pv 02Aug2007               :
 energy of atom  3       EATOM=-2025.2664
 kinetic energy error for atom=    0.0284 (will be added to EATOM!!)
  PAW_PBE O 08Apr2002                   :
 energy of atom  4       EATOM= -432.3788
 kinetic energy error for atom=    0.1156 (will be added to EATOM!!)
 
 
 POSCAR: Na Mg Mn  O                             
  positions in cartesian coordinates
  No initial velocities read in

 METAGGA = SCAN     LMAXTAU =  6    LMIXTAU =  F

 exchange correlation table for  LEXCH =        8
   RHO(1)=    0.500       N(1)  =     2000
   RHO(2)=  100.500       N(2)  =     4000

 VTST: version 3.2, (02/03/18)

 CHAIN: initializing optimizer
 
 OPT: Using VASP Dynamics algorithm
 CHAIN: Read ICHAIN            0
 
 POSCAR: Na Mg Mn  O                             
  positions in cartesian coordinates
  No initial velocities read in
 


--------------------------------------------------------------------------------------------------------


 ion  position               nearest neighbor table
   1  0.055  0.489  0.245-  66 2.28  64 2.33  55 2.36  37 2.82  39 2.94
   2  0.595  0.888  0.750-  84 2.27  81 2.29  59 2.35
   3  0.944  0.194  0.749-  60 2.28  61 2.30  58 2.32  32 2.75  30 2.90
   4  0.905  0.481  0.742-  57 2.16  68 2.37
   5  0.408  0.760  0.254-  86 2.22  88 2.32  79 2.34  40 2.94
   6  0.611  0.188  0.247-  53 2.33  62 2.33
   7  0.459  0.196  0.740-  46 2.20  45 2.29  49 2.32  28 2.81  26 2.86
   8  0.263  0.707  0.752-  84 2.31  73 2.34  80 2.37
   9  0.233  0.991  0.246-  41 2.34  67 2.36
  10  0.904  0.668  0.252-  65 2.34  34 2.91  36 2.97
  11  0.546  0.486  0.249-  78 2.20  52 2.28  87 2.35  35 2.90  33 2.93
  12  0.391  0.483  0.751-  83 2.26  80 2.37
  13  0.753  0.662  0.753-  68 2.20  71 2.22
  14  0.078  0.971  0.764-  72 2.18  69 2.27  47 2.30  25 2.75
  15  0.123  0.219  0.256-  50 2.30
  16  0.763  0.988  0.249-  63 2.24  54 2.30  53 2.36
  17  0.745  0.321  0.995-  43 1.93  60 2.01  49 2.02  66 2.08  53 2.12  71 2.16  26 2.79  29 2.81
                            30 2.85
  18  0.760  0.356  0.492-  75 1.95  62 1.97  57 2.01  52 2.02  46 2.05  68 2.10  35 2.82
  19  0.245  0.337  0.994-  83 2.03  48 2.04  55 2.05  61 2.12  78 2.12  41 2.14  38 2.79  37 2.80
                            30 2.85
  20  0.258  0.356  0.498-  87 2.00  58 2.08  64 2.09  50 2.12  45 2.13  80 2.17
  21  0.246  0.823  0.996-  73 1.92  77 2.00  47 2.01  67 2.04  84 2.08  42 2.13  37 2.82  34 2.83

  22  0.251  0.852  0.502-  76 2.01  44 2.01  70 2.03  86 2.06  81 2.07  51 2.07  27 2.84  36 2.85

  23  0.755  0.831  0.006-  65 2.01  59 2.01  79 2.03  72 2.03  85 2.10  54 2.10
  24  0.756  0.849  0.503-  88 2.02  82 2.03  74 2.03  63 2.06  69 2.06  56 2.18  36 2.85
  25  0.088  0.001  0.008-  41 1.88  54 1.90  47 1.91  61 1.95  72 1.98  67 2.02  14 2.75  30 2.90
                            26 2.93  34 2.95
  26  0.424  0.157  0.992-  49 1.88  47 1.89  43 1.93  42 1.94  48 1.97  41 2.05  17 2.79  29 2.82
                             7 2.86  33 2.92  25 2.93
  27  0.087  0.016  0.498-  50 1.83  76 1.87  44 1.92  58 1.92  69 2.02  63 2.03  22 2.84  36 2.85
                            28 2.90  32 2.92
  28  0.421  0.187  0.491-  50 1.92  45 1.93  46 1.94  44 1.94  51 1.96  52 1.98   7 2.81  31 2.85
                            35 2.86  27 2.90
  29  0.589  0.997  0.002-  59 1.84  42 1.86  53 1.89  79 1.91  84 1.93  49 1.96  17 2.81  26 2.82
                            30 2.85  38 2.94
  30  0.917  0.165  0.007-  55 1.90  61 1.91  53 1.91  59 1.93  60 1.95  54 1.97  17 2.85  19 2.85
                            29 2.85  37 2.89   3 2.90  25 2.90
  31  0.587  0.024  0.497-  46 1.86  62 1.88  51 1.88  56 1.91  81 1.94  88 1.99  28 2.85  32 2.89
                            40 2.93
  32  0.921  0.187  0.505-  56 1.82  57 1.94  63 1.96  64 1.96  62 1.97  58 1.98   3 2.75  31 2.89
                            39 2.90  27 2.92
  33  0.588  0.494  0.990-  71 1.86  78 1.88  43 1.90  48 1.93  65 1.96  85 2.02  34 2.88  38 2.91
                            26 2.92  11 2.93
  34  0.920  0.662  0.993-  65 1.88  66 1.90  72 1.92  71 1.92  73 1.94  67 1.95  21 2.83  37 2.85
                            33 2.88  10 2.91  25 2.95
  35  0.595  0.516  0.505-  74 1.85  68 1.89  87 1.95  52 1.95  45 1.96  82 1.98  18 2.82  36 2.85
                            28 2.86  11 2.90  40 2.99
  36  0.923  0.688  0.517-  70 1.85  69 1.86  68 1.90  76 1.91  74 1.97  75 2.00  22 2.85  35 2.85
                            24 2.85  27 2.85  39 2.92  10 2.97
  37  0.084  0.498  0.995-  77 1.86  66 1.87  55 1.89  60 1.93  73 1.94  83 1.94  19 2.80  21 2.82
                             1 2.82  34 2.85  38 2.88  30 2.89
  38  0.416  0.658  0.993-  85 1.88  78 1.91  77 1.94  84 1.94  83 1.94  79 1.95  19 2.79  37 2.88
                            33 2.91  29 2.94
  39  0.092  0.521  0.506-  80 1.89  64 1.90  86 1.91  75 1.94  57 1.94  70 1.98  40 2.85  32 2.90
                            36 2.92   1 2.94
  40  0.420  0.687  0.506-  87 1.90  86 1.91  82 1.91  80 1.96  88 1.98  81 1.98  39 2.85  31 2.93
                             5 2.94  35 2.99
  41  0.253  0.158  0.093-  25 1.88  26 2.05  19 2.14   9 2.34
  42  0.434  0.003  0.090-  29 1.86  26 1.94  21 2.13
  43  0.583  0.331  0.080-  33 1.90  17 1.93  26 1.93
  44  0.256  0.031  0.588-  27 1.92  28 1.94  22 2.01
  45  0.434  0.345  0.597-  28 1.93  35 1.96  20 2.13   7 2.29
  46  0.581  0.180  0.583-  31 1.86  28 1.94  18 2.05   7 2.20
  47  0.247  0.002  0.914-  26 1.89  25 1.91  21 2.01  14 2.30
  48  0.419  0.326  0.907-  33 1.93  26 1.97  19 2.04
  49  0.575  0.148  0.900-  26 1.88  29 1.96  17 2.02   7 2.32
  50  0.243  0.164  0.407-  27 1.83  28 1.92  20 2.12  15 2.30
  51  0.430  0.022  0.404-  31 1.88  28 1.96  22 2.07
  52  0.587  0.358  0.400-  35 1.95  28 1.98  18 2.02  11 2.28
  53  0.748  0.146  0.099-  29 1.89  30 1.91  17 2.12   6 2.33  16 2.36
  54  0.935  0.010  0.103-  25 1.90  30 1.97  23 2.10  16 2.30
  55  0.072  0.338  0.091-  37 1.89  30 1.90  19 2.05   1 2.36
  56  0.756  0.044  0.590-  32 1.82  31 1.91  24 2.18
  57  0.925  0.354  0.593-  32 1.94  39 1.94  18 2.01   4 2.16
  58  0.085  0.175  0.593-  27 1.92  32 1.98  20 2.08   3 2.32
  59  0.749  0.003  0.919-  29 1.84  30 1.93  23 2.01   2 2.35
  60  0.924  0.328  0.906-  37 1.93  30 1.95  17 2.01   3 2.28
  61  0.062  0.146  0.907-  30 1.91  25 1.95  19 2.12   3 2.30
  62  0.752  0.179  0.409-  31 1.88  32 1.97  18 1.97   6 2.33
  63  0.920  0.028  0.403-  32 1.96  27 2.03  24 2.06  16 2.24
  64  0.076  0.358  0.409-  39 1.90  32 1.96  20 2.09   1 2.33
  65  0.758  0.653  0.085-  34 1.88  33 1.96  23 2.01  10 2.34
  66  0.927  0.504  0.082-  37 1.87  34 1.90  17 2.08   1 2.28
  67  0.075  0.819  0.097-  34 1.95  25 2.02  21 2.04   9 2.36
  68  0.755  0.525  0.600-  35 1.89  36 1.90  18 2.10  13 2.20   4 2.37
  69  0.928  0.849  0.603-  36 1.86  27 2.02  24 2.06  14 2.27
  70  0.080  0.682  0.599-  36 1.85  39 1.98  22 2.03
  71  0.751  0.511  0.899-  33 1.86  34 1.92  17 2.16  13 2.22
  72  0.928  0.833  0.910-  34 1.92  25 1.98  23 2.03  14 2.18
  73  0.085  0.662  0.903-  21 1.92  37 1.94  34 1.94   8 2.34
  74  0.753  0.670  0.417-  35 1.85  36 1.97  24 2.03
  75  0.933  0.530  0.414-  39 1.94  18 1.95  36 2.00
  76  0.072  0.846  0.416-  27 1.87  36 1.91  22 2.01
  77  0.247  0.649  0.083-  37 1.86  38 1.94  21 2.00
  78  0.442  0.511  0.084-  33 1.88  38 1.91  19 2.12  11 2.20
  79  0.573  0.826  0.089-  29 1.91  38 1.95  23 2.03   5 2.34
  80  0.251  0.533  0.604-  39 1.89  40 1.96  20 2.17   8 2.37  12 2.37
  81  0.433  0.862  0.597-  31 1.94  40 1.98  22 2.07   2 2.29
  82  0.579  0.678  0.595-  40 1.91  35 1.98  24 2.03
  83  0.247  0.508  0.895-  37 1.94  38 1.94  19 2.03  12 2.26
  84  0.433  0.834  0.907-  29 1.93  38 1.94  21 2.08   2 2.27   8 2.31
  85  0.576  0.663  0.901-  38 1.88  33 2.02  23 2.10
  86  0.256  0.676  0.413-  39 1.91  40 1.91  22 2.06   5 2.22
  87  0.437  0.534  0.418-  40 1.90  35 1.95  20 2.00  11 2.35
  88  0.585  0.851  0.409-  40 1.98  31 1.99  24 2.02   5 2.32
 
  LATTYP: Found a hexagonal cell.
 ALAT       =    10.0190000534
 C/A-ratio  =     1.1196726572
  
  Lattice vectors:
  
 A1 = (  10.0190000534,   0.0000000000,   0.0000000000)
 A2 = (  -5.0095000267,   8.6767085668,   0.0000000000)
 A3 = (   0.0000000000,   0.0000000000,  11.2180004120)


Analysis of symmetry for initial positions (statically):
=====================================================================
 Subroutine PRICEL returns:
 Original cell was already a primitive cell.
 

 Routine SETGRP: Setting up the symmetry group for a 
 hexagonal supercell.


 Subroutine GETGRP returns: Found  1 space group operations
 (whereof  1 operations were pure point group operations)
 out of a pool of 24 trial point group operations.


The static configuration has the point symmetry C_1 .


Analysis of symmetry for dynamics (positions and initial velocities):
=====================================================================
 Subroutine PRICEL returns:
 Original cell was already a primitive cell.
 

 Routine SETGRP: Setting up the symmetry group for a 
 hexagonal supercell.


 Subroutine GETGRP returns: Found  1 space group operations
 (whereof  1 operations were pure point group operations)
 out of a pool of 24 trial point group operations.


The dynamic configuration has the point symmetry C_1 .


Analysis of structural, dynamic, and magnetic symmetry:
=====================================================================
 Subroutine PRICEL returns:
 Original cell was already a primitive cell.
 

 Routine SETGRP: Setting up the symmetry group for a 
 hexagonal supercell.


 Subroutine GETGRP returns: Found  1 space group operations
 (whereof  1 operations were pure point group operations)
 out of a pool of 24 trial point group operations.


The magnetic configuration has the point symmetry C_1 .


 Subroutine INISYM returns: Found  1 space group operations
 (whereof  1 operations are pure point group operations),
 and found     1 'primitive' translations

 
 

Automatic generation of k-mesh.
 generate k-points for:    2    2    2
Space group operators:
 irot       det(A)        alpha          n_x          n_y          n_z        tau_x        tau_y        tau_z
    1     1.000000     0.000000     1.000000     0.000000     0.000000     0.000000     0.000000     0.000000
 
 Subroutine IBZKPT returns following result:
 ===========================================
 
 Found      8 irreducible k-points:
 
 Following reciprocal coordinates:
            Coordinates               Weight
  0.000000  0.000000  0.000000      1.000000
  0.500000 -0.000000 -0.000000      1.000000
  0.000000  0.500000  0.000000      1.000000
  0.500000  0.500000 -0.000000      1.000000
  0.000000  0.000000  0.500000      1.000000
  0.500000 -0.000000  0.500000      1.000000
  0.000000  0.500000  0.500000      1.000000
  0.500000  0.500000  0.500000      1.000000
 
 Following cartesian coordinates:
            Coordinates               Weight
  0.000000  0.000000  0.000000      1.000000
  0.049905  0.028813 -0.000000      1.000000
  0.000000  0.057626  0.000000      1.000000
  0.049905  0.086438 -0.000000      1.000000
  0.000000  0.000000  0.044571      1.000000
  0.049905  0.028813  0.044571      1.000000
  0.000000  0.057626  0.044571      1.000000
  0.049905  0.086438  0.044571      1.000000
 


--------------------------------------------------------------------------------------------------------




 Dimension of arrays:
   k-points           NKPTS =      8   k-points in BZ     NKDIM =      8   number of bands    NBANDS=    480
   number of dos      NEDOS =    301   number of ions     NIONS =     88
   non local maximal  LDIM  =      6   non local SUM 2l+1 LMDIM =     18
   total plane-waves  NPLWV = 140000
   max r-space proj   IRMAX =   1632   max aug-charges    IRDMAX=   4555
   dimension x,y,z NGX =    50 NGY =   50 NGZ =   56
   dimension x,y,z NGXF=   100 NGYF=  100 NGZF=  112
   support grid    NGXF=   100 NGYF=  100 NGZF=  112
   ions per type =              16   8  16  48
   NGX,Y,Z   is equivalent  to a cutoff of   8.30,  8.30,  8.30 a.u.
   NGXF,Y,Z  is equivalent  to a cutoff of  16.59, 16.59, 16.60 a.u.

 SYSTEM =  unknown system                          
 POSCAR =  Na Mg Mn  O                             

 Startparameter for this run:
   NWRITE =      2    write-flag & timer
   PREC   = normal    normal or accurate (medium, high low for compatibility)
   ISTART =      0    job   : 0-new  1-cont  2-samecut
   ICHARG =      1    charge: 1-file 2-atom 10-const
   ISPIN  =      2    spin polarized calculation?
   LNONCOLLINEAR =      F non collinear calculations
   LSORBIT =      F    spin-orbit coupling
   INIWAV =      1    electr: 0-lowe 1-rand  2-diag
   LASPH  =      T    aspherical Exc in radial PAW
   METAGGA=      F    non-selfconsistent MetaGGA calc.

 Electronic Relaxation 1
   ENCUT  =  400.0 eV  29.40 Ry    5.42 a.u.  16.34 16.34 18.29*2*pi/ulx,y,z
   ENINI  =  400.0     initial cutoff
   ENAUG  =  758.8 eV  augmentation charge cutoff
   NELM   =    200;   NELMIN=  6; NELMDL=-12     # of ELM steps 
   EDIFF  = 0.1E-04   stopping-criterion for ELM
   LREAL  =      T    real-space projection
   NLSPLINE    = F    spline interpolate recip. space projectors
   LCOMPAT=      F    compatible to vasp.4.4
   GGA_COMPAT  = T    GGA compatible to vasp.4.4-vasp.4.6
   LMAXPAW     = -100 max onsite density
   LMAXMIX     =    4 max onsite mixed and CHGCAR
   VOSKOWN=      0    Vosko Wilk Nusair interpolation
   ROPT   =   -0.00050  -0.00050  -0.00050  -0.00050
 Ionic relaxation
   EDIFFG = 0.1E-03   stopping-criterion for IOM
   NSW    =      1    number of steps for IOM
   NBLOCK =      1;   KBLOCK =      1    inner block; outer block 
   IBRION =     -1    ionic relax: 0-MD 1-quasi-New 2-CG
   NFREE  =      0    steps in history (QN), initial steepest desc. (CG)
   ISIF   =      2    stress and relaxation
   IWAVPR =     10    prediction:  0-non 1-charg 2-wave 3-comb
   ISYM   =      2    0-nonsym 1-usesym 2-fastsym
   LCORR  =      T    Harris-Foulkes like correction to forces

   POTIM  = 0.5000    time-step for ionic-motion
   TEIN   =    0.0    initial temperature
   TEBEG  =    0.0;   TEEND  =   0.0 temperature during run
   SMASS  =  -3.00    Nose mass-parameter (am)
   estimated Nose-frequenzy (Omega)   =  0.10E-29 period in steps =****** mass=  -0.229E-26a.u.
   SCALEE = 1.0000    scale energy and forces
   NPACO  =    256;   APACO  = 16.0  distance and # of slots for P.C.
   PSTRESS=    0.0 pullay stress

  Mass of Ions in am
   POMASS =  22.99 24.30 54.94 16.00
  Ionic Valenz
   ZVAL   =   7.00  8.00 13.00  6.00
  Atomic Wigner-Seitz radii
   RWIGS  =  -1.00 -1.00 -1.00 -1.00
  virtual crystal weights 
   VCA    =   1.00  1.00  1.00  1.00
   NELECT =     672.0000    total number of electrons
   NUPDOWN=      48.0000    fix difference up-down

 DOS related values:
   EMIN   =  10.00;   EMAX   =-10.00  energy-range for DOS
   EFERMI =   0.00
   ISMEAR =     0;   SIGMA  =   0.05  broadening in eV -4-tet -1-fermi 0-gaus

 Electronic relaxation 2 (details)
   IALGO  =     48    algorithm
   LDIAG  =      T    sub-space diagonalisation (order eigenvalues)
   LSUBROT=      F    optimize rotation matrix (better conditioning)
   TURBO    =      0    0=normal 1=particle mesh
   IRESTART =      0    0=no restart 2=restart with 2 vectors
   NREBOOT  =      0    no. of reboots
   NMIN     =      0    reboot dimension
   EREF     =   0.00    reference energy to select bands
   IMIX   =      4    mixing-type and parameters
     AMIX     =   0.40;   BMIX     =  1.00
     AMIX_MAG =   1.60;   BMIX_MAG =  1.00
     AMIN     =   0.10
     WC   =   100.;   INIMIX=   1;  MIXPRE=   1;  MAXMIX= -45

 Intra band minimization:
   WEIMIN = 0.0000     energy-eigenvalue tresh-hold
   EBREAK =  0.52E-08  absolut break condition
   DEPER  =   0.30     relativ break condition  

   TIME   =   0.40     timestep for ELM

  volume/ion in A,a.u.               =      11.08        74.78
  Fermi-wavevector in a.u.,A,eV,Ry     =   1.445993  2.732531 28.448379  2.090897
  Thomas-Fermi vector in A             =   2.564112
 
 Write flags
   LWAVE        =      F    write WAVECAR
   LDOWNSAMPLE  =      F    k-point downsampling of WAVECAR
   LCHARG       =      F    write CHGCAR
   LVTOT        =      F    write LOCPOT, total local potential
   LVHAR        =      F    write LOCPOT, Hartree potential only
   LELF         =      F    write electronic localiz. function (ELF)
   LORBIT       =     11    0 simple, 1 ext, 2 COOP (PROOUT), +10 PAW based schemes


 Dipole corrections
   LMONO  =      F    monopole corrections only (constant potential shift)
   LDIPOL =      F    correct potential (dipole corrections)
   IDIPOL =      0    1-x, 2-y, 3-z, 4-all directions 
   EPSILON=  1.0000000 bulk dielectric constant

 Exchange correlation treatment:
   GGA     =    --    GGA type
   LEXCH   =     8    internal setting for exchange type
   VOSKOWN=      0    Vosko Wilk Nusair interpolation
   LHFCALC =     F    Hartree Fock is set to
   LHFONE  =     F    Hartree Fock one center treatment
   AEXX    =    0.0000 exact exchange contribution

 Linear response parameters
   LEPSILON=     F    determine dielectric tensor
   LRPA    =     F    only Hartree local field effects (RPA)
   LNABLA  =     F    use nabla operator in PAW spheres
   LVEL    =     F    velocity operator in full k-point grid
   LINTERFAST=   F  fast interpolation
   KINTER  =     0    interpolate to denser k-point grid
   CSHIFT  =0.1000    complex shift for real part using Kramers Kronig
   OMEGAMAX=  -1.0    maximum frequency
   DEG_THRESHOLD= 0.2000000E-02 threshold for treating states as degnerate
   RTIME   =   -0.100 relaxation time in fs
  (WPLASMAI=    0.000 imaginary part of plasma frequency in eV, 0.658/RTIME)
   DFIELD  = 0.0000000 0.0000000 0.0000000 field for delta impulse in time
 
 Orbital magnetization related:
   ORBITALMAG=     F  switch on orbital magnetization
   LCHIMAG   =     F  perturbation theory with respect to B field
   DQ        =  0.001000  dq finite difference perturbation B field
   LLRAUG    =     F  two centre corrections for induced B field



--------------------------------------------------------------------------------------------------------


 Static calculation
 charge density and potential will be updated during run
 spin polarized calculation
 RMM-DIIS sequential band-by-band
 perform sub-space diagonalisation
    before iterative eigenvector-optimisation
 modified Broyden-mixing scheme, WC =      100.0
 initial mixing is a Kerker type mixing with AMIX =  0.4000 and BMIX =      1.0000
 Hartree-type preconditioning will be used
 using additional bands          144
 real space projection scheme for non local part
 use partial core corrections
 calculate Harris-corrections to forces 
   (improved forces if not selfconsistent)
 use gradient corrections 
 use of overlap-Matrix (Vanderbilt PP)
 Gauss-broadening in eV      SIGMA  =   0.05


--------------------------------------------------------------------------------------------------------


  energy-cutoff  :      400.00
  volume of cell :      975.20
      direct lattice vectors                 reciprocal lattice vectors
    10.019000053  0.000000000  0.000000000     0.099810360  0.057625538 -0.000000000
    -5.009500027  8.676708567  0.000000000     0.000000000  0.115251076  0.000000000
     0.000000000  0.000000000 11.218000412     0.000000000  0.000000000  0.089142446

  length of vectors
    10.019000053 10.019000053 11.218000412     0.115251076  0.115251076  0.089142446


 
 k-points in units of 2pi/SCALE and weight: read from INCAR                         
   0.00000000  0.00000000  0.00000000       0.125
   0.04990518  0.02881277 -0.00000000       0.125
   0.00000000  0.05762554  0.00000000       0.125
   0.04990518  0.08643831 -0.00000000       0.125
   0.00000000  0.00000000  0.04457122       0.125
   0.04990518  0.02881277  0.04457122       0.125
   0.00000000  0.05762554  0.04457122       0.125
   0.04990518  0.08643831  0.04457122       0.125
 
 k-points in reciprocal lattice and weights: read from INCAR                         
   0.00000000  0.00000000  0.00000000       0.125
   0.50000000 -0.00000000 -0.00000000       0.125
   0.00000000  0.50000000  0.00000000       0.125
   0.50000000  0.50000000 -0.00000000       0.125
   0.00000000  0.00000000  0.50000000       0.125
   0.50000000 -0.00000000  0.50000000       0.125
   0.00000000  0.50000000  0.50000000       0.125
   0.50000000  0.50000000  0.50000000       0.125
 
 position of ions in fractional coordinates (direct lattice) 
   0.05527753  0.48939525  0.24523889
   0.59467050  0.88836485  0.74995273
   0.94433634  0.19425207  0.74945620
   0.90450123  0.48071421  0.74213048
   0.40845471  0.76022112  0.25354875
   0.61053787  0.18763929  0.24721340
   0.45901227  0.19633581  0.73989835
   0.26282025  0.70705580  0.75207877
   0.23348993  0.99066483  0.24617132
   0.90420191  0.66783092  0.25226777
   0.54575506  0.48594069  0.24944107
   0.39122053  0.48326950  0.75103224
   0.75315196  0.66168870  0.75290512
   0.07758557  0.97070156  0.76438935
   0.12295945  0.21926155  0.25626581
   0.76329632  0.98763667  0.24852825
   0.74520329  0.32061121  0.99459870
   0.76003195  0.35616732  0.49233997
   0.24540344  0.33693883  0.99382221
   0.25848130  0.35581119  0.49801835
   0.24575118  0.82272903  0.99560524
   0.25061907  0.85206158  0.50207254
   0.75494008  0.83086230  0.00578579
   0.75587492  0.84933243  0.50327062
   0.08752425  0.00137050  0.00793813
   0.42410096  0.15737650  0.99244175
   0.08688501  0.01612955  0.49801121
   0.42117839  0.18682430  0.49114725
   0.58855879  0.99714194  0.00206807
   0.91740712  0.16530231  0.00657868
   0.58741178  0.02443570  0.49705026
   0.92059133  0.18665027  0.50466391
   0.58795044  0.49414821  0.99028187
   0.91950392  0.66186042  0.99338645
   0.59493325  0.51615655  0.50538597
   0.92302921  0.68807659  0.51664198
   0.08395124  0.49791346  0.99494984
   0.41607369  0.65797531  0.99259821
   0.09235318  0.52111120  0.50564181
   0.42049301  0.68672930  0.50607147
   0.25320590  0.15822935  0.09276876
   0.43422165  0.00320725  0.08988946
   0.58326578  0.33055392  0.07958807
   0.25642187  0.03087150  0.58813066
   0.43394342  0.34488654  0.59698696
   0.58134069  0.18015818  0.58303795
   0.24679232  0.00197070  0.91441430
   0.41895404  0.32598075  0.90692634
   0.57541981  0.14815872  0.89955425
   0.24327496  0.16352168  0.40722141
   0.43008062  0.02232713  0.40359510
   0.58740822  0.35755724  0.39980387
   0.74829119  0.14595857  0.09922267
   0.93480350  0.00997031  0.10289267
   0.07226350  0.33774789  0.09094936
   0.75614039  0.04390271  0.59027899
   0.92490331  0.35439591  0.59345960
   0.08480240  0.17470911  0.59335530
   0.74935312  0.00316977  0.91869314
   0.92383452  0.32790660  0.90638257
   0.06176561  0.14590671  0.90700656
   0.75177793  0.17869910  0.40881617
   0.92030083  0.02787785  0.40299606
   0.07617449  0.35776470  0.40908984
   0.75766187  0.65280054  0.08506507
   0.92720016  0.50399411  0.08179140
   0.07465170  0.81933834  0.09663576
   0.75532059  0.52476235  0.59999820
   0.92828830  0.84893712  0.60348723
   0.08003695  0.68169283  0.59917808
   0.75103978  0.51101059  0.89945620
   0.92822181  0.83316386  0.90992152
   0.08450441  0.66183046  0.90311995
   0.75251061  0.66969634  0.41687822
   0.93305627  0.53003509  0.41419681
   0.07178060  0.84647766  0.41648777
   0.24662214  0.64885203  0.08288518
   0.44172406  0.51101175  0.08396211
   0.57270306  0.82608283  0.08856953
   0.25118127  0.53283684  0.60406933
   0.43251349  0.86208612  0.59669547
   0.57887372  0.67802093  0.59534674
   0.24697740  0.50763143  0.89514170
   0.43272432  0.83378161  0.90666782
   0.57632393  0.66343936  0.90090031
   0.25596992  0.67569170  0.41261721
   0.43659902  0.53382685  0.41787126
   0.58527952  0.85142539  0.40856568
 
 position of ions in cartesian coordinates  (Angst):
  -1.89779995  4.24634000  2.75109000
   1.50774005  7.70808287  8.41297000
   8.48820013  1.68546857  8.40740000
   6.65406000  4.17101713  8.32522000
   0.28398005  6.59621713  2.84431000
   5.17699992  1.62809143  2.77324000
   3.61529976  1.70354857  8.30018000
  -0.90879995  6.13491713  8.43682000
  -2.62339989  8.59571000  2.76155000
   5.71369992  5.79457430  2.82994000
   3.03360011  4.21636573  2.79823000
   1.49869992  4.19318857  8.42508000
   4.23109995  5.74128000  8.44609000
  -4.08539965  8.42249457  8.57492000
   0.13354003  1.90246857  2.87479000
   2.69989992  8.56943557  2.78799000
   5.86009000  2.78185000 11.15740861
   5.83054000  3.09036000  5.52307000
   0.77080200  2.92352000 11.14869791
   0.80728800  3.08727000  5.58677000
  -1.65928000  7.13858000 11.16870000
  -1.75745000  7.39309000  5.63225000
   3.40154000  7.20915000  0.06490500
   3.31838000  7.36941000  5.64569000
   0.87003997  0.01189143  0.08905000
   3.46069000  1.36551000 11.13321191
   0.78969997  0.13995143  5.58669000
   3.28389000  1.62102000  5.50969000
   0.90158800  8.65191000  0.02319959
   8.36342000  1.43428000  0.07379959
   5.76286803  0.21202143  5.57591000
   8.28838000  1.61951000  5.66132000
   3.41524000  4.28758000 11.10898241
   5.89692000  5.74277000 11.14380961
   3.37495000  4.47854000  5.66942000
   5.80091000  5.97024000  5.79569000
  -1.65319005  4.32025000 11.16134771
   0.87251500  5.70906000 11.13496711
  -1.68522005  4.52153000  5.67229000
   0.77274900  5.95855000  5.67711000
   1.74422000  1.37291000  1.04068000
   4.33440000  0.02782840  1.00838000
   4.18783000  2.86812000  0.89281900
   2.41444000  0.26786300  6.59765000
   2.61997000  2.99248000  6.69700000
   4.92195000  1.56318000  6.54052000
   2.46274000  0.01709920 10.25790000
   2.56450000  2.82844000 10.17390000
   5.02293000  1.28553000 10.09120000
   1.61821000  1.41883000  4.56821000
   4.19713000  0.19372600  4.52753000
   4.09406000  3.10242000  4.48500000
   6.76595000  1.26644000  1.11308000
   9.31585000  0.08650950  1.15425000
  -0.96794005  2.93054000  1.02027000
   7.35584000  0.38093100  6.62175000
   7.49126000  3.07499000  6.65743000
  -0.02557005  1.51590000  6.65626000
   7.49189000  0.02750320 10.30590000
   7.61325000  2.84515000 10.16780000
  -0.11209005  1.26599000 10.17480000
   6.63687000  1.55052000  4.58610000
   9.08084000  0.24188800  4.52081000
  -1.02903005  3.10422000  4.58917000
   4.32081000  5.66416000  0.95426000
   6.76486000  4.37301000  0.91753600
  -3.35654005  7.10916000  1.08406000
   4.93876000  4.55321000  6.73078000
   5.04777000  7.36598000  6.76992000
  -2.61305005  5.91485000  6.72158000
   4.96476000  4.43389000 10.09010000
   5.12612000  7.22912000 10.20750000
  -2.46879005  5.74251000 10.13120000
   4.18456000  5.81076000  4.67654000
   6.69308000  4.59896000  4.64646000
  -3.52126005  7.34464000  4.67216000
  -0.77951700  5.62990000  0.92980600
   1.86572000  4.43390000  0.94188700
   1.59965000  7.16768000  0.99357300
  -0.15266100  4.62327000  6.77645000
   0.01473230  7.48007000  6.69373000
   2.40319000  5.88299000  6.67860000
  -0.06851310  4.40457000 10.04170000
   0.15863600  7.23448000 10.17100000
   2.45069000  5.75647000 10.10630000
  -0.82031500  5.86278000  4.62874000
   1.70008000  4.63186000  4.68768000
   1.59870000  7.38757000  4.58329000
 


--------------------------------------------------------------------------------------------------------


 k-point  1 :   0.0000 0.0000 0.0000  plane waves:   17725
 k-point  2 :   0.5000-0.0000-0.0000  plane waves:   17736
 k-point  3 :   0.0000 0.5000 0.0000  plane waves:   17736
 k-point  4 :   0.5000 0.5000-0.0000  plane waves:   17736
 k-point  5 :   0.0000 0.0000 0.5000  plane waves:   17676
 k-point  6 :   0.5000-0.0000 0.5000  plane waves:   17700
 k-point  7 :   0.0000 0.5000 0.5000  plane waves:   17700
 k-point  8 :   0.5000 0.5000 0.5000  plane waves:   17700

 maximum and minimum number of plane-waves per node :     17736    17676

 maximum number of plane-waves:     17736
 maximum index in each direction: 
   IXMAX=   16   IYMAX=   16   IZMAX=   18
   IXMIN=  -16   IYMIN=  -16   IZMIN=  -18


 serial   3D FFT for wavefunctions
 parallel 3D FFT for charge:
    minimum data exchange during FFTs selected (reduces bandwidth)


 total amount of memory used by VASP MPI-rank0    94431. kBytes
=======================================================================

   base      :      30000. kBytes
   nonlr-proj:      13672. kBytes
   fftplans  :       1275. kBytes
   grid      :      22786. kBytes
   one-center:       2737. kBytes
   wavefun   :      23961. kBytes
 
     INWAV:  cpu time    0.0000: real time    0.0002
 Broyden mixing: mesh for mixing (old mesh)
   NGX = 33   NGY = 33   NGZ = 37
  (NGX  =100   NGY  =100   NGZ  =112)
  gives a total of  40293 points

 initial charge density was supplied:
 charge density of overlapping atoms calculated
 number of electron     672.0000000 magnetization      48.0000000
 keeping initial charge density in first step


--------------------------------------------------------------------------------------------------------


 Maximum index for non-local projection operator         1548
 Maximum index for augmentation-charges          456 (set IRDMAX)


--------------------------------------------------------------------------------------------------------


 First call to EWALD:  gamma=   0.179
 Maximum number of real-space cells 3x 3x 2
 Maximum number of reciprocal cells 3x 3x 3

    FEWALD:  cpu time    0.0027: real time    0.0027


--------------------------------------- Iteration      1(   1)  ---------------------------------------


    POTLOK:  cpu time    0.1932: real time    0.1953
    SETDIJ:  cpu time    4.6021: real time    4.6674
    EDDIAG:  cpu time    4.4387: real time    4.8103
  RMM-DIIS:  cpu time    9.1417: real time    9.1512
    ORTHCH:  cpu time    1.1735: real time    1.2519
       DOS:  cpu time    0.0020: real time    0.0022
    --------------------------------------------
      LOOP:  cpu time   19.5513: real time   20.0783

 eigenvalue-minimisations  :  7680
 total energy-change (2. order) : 0.1599828E+04  (-0.3496600E+05)
 number of electron     672.0000000 magnetization      48.0000000
 augmentation part      672.0000000 magnetization      48.0000000

 Free energy of the ion-electron system (eV)
  ---------------------------------------------------
  alpha Z        PSCENC =      2652.81237852
  Ewald energy   TEWEN  =    -41719.39443429
  -Hartree energ DENC   =    -25888.68542626
  -exchange      EXHF   =         0.00000000
  -V(xc)+E(xc)   XCENC  =      3606.31926239
  PAW double counting   =     55594.23204139   -59034.67079123
  entropy T*S    EENTRO =        -0.05740911
  eigenvalues    EBANDS =     -7472.92575927
  atomic energy  EATOM  =     73862.19814772
  Solvation  Ediel_sol  =         0.00000000
  ---------------------------------------------------
  free energy    TOTEN  =      1599.82800986 eV

  energy without entropy =     1599.88541897  energy(sigma->0) =     1599.85671442


--------------------------------------------------------------------------------------------------------




--------------------------------------- Iteration      1(   2)  ---------------------------------------


    EDDIAG:  cpu time    4.4704: real time    4.8409
  RMM-DIIS:  cpu time    9.0664: real time    9.1277
    ORTHCH:  cpu time    1.2100: real time    1.2936
       DOS:  cpu time    0.0025: real time    0.0025
    --------------------------------------------
      LOOP:  cpu time   14.7493: real time   15.2646

 eigenvalue-minimisations  :  7680
 total energy-change (2. order) :-0.2321189E+04  (-0.8024576E+04)
 number of electron     672.0000000 magnetization      48.0000000
 augmentation part      672.0000000 magnetization      48.0000000

 Free energy of the ion-electron system (eV)
  ---------------------------------------------------
  alpha Z        PSCENC =      2652.81237852
  Ewald energy   TEWEN  =    -41719.39443429
  -Hartree energ DENC   =    -25888.68542626
  -exchange      EXHF   =         0.00000000
  -V(xc)+E(xc)   XCENC  =      3606.31926239
  PAW double counting   =     55594.23204139   -59034.67079123
  entropy T*S    EENTRO =        -0.04382553
  eigenvalues    EBANDS =     -9794.12786626
  atomic energy  EATOM  =     73862.19814772
  Solvation  Ediel_sol  =         0.00000000
  ---------------------------------------------------
  free energy    TOTEN  =      -721.36051355 eV

  energy without entropy =     -721.31668802  energy(sigma->0) =     -721.33860078


--------------------------------------------------------------------------------------------------------




--------------------------------------- Iteration      1(   3)  ---------------------------------------


    EDDIAG:  cpu time    4.4053: real time    4.8172
  RMM-DIIS:  cpu time    9.1160: real time    9.1256
    ORTHCH:  cpu time    1.1812: real time    1.2644
       DOS:  cpu time    0.0023: real time    0.0023
    --------------------------------------------
      LOOP:  cpu time   14.7048: real time   15.2096

 eigenvalue-minimisations  :  7680
 total energy-change (2. order) : 0.7543388E+02  (-0.1424885E+04)
 number of electron     672.0000000 magnetization      48.0000000
 augmentation part      672.0000000 magnetization      48.0000000

 Free energy of the ion-electron system (eV)
  ---------------------------------------------------
  alpha Z        PSCENC =      2652.81237852
  Ewald energy   TEWEN  =    -41719.39443429
  -Hartree energ DENC   =    -25888.68542626
  -exchange      EXHF   =         0.00000000
  -V(xc)+E(xc)   XCENC  =      3606.31926239
  PAW double counting   =     55594.23204139   -59034.67079123
  entropy T*S    EENTRO =        -0.04271398
  eigenvalues    EBANDS =     -9718.69509586
  atomic energy  EATOM  =     73862.19814772
  Solvation  Ediel_sol  =         0.00000000
  ---------------------------------------------------
  free energy    TOTEN  =      -645.92663159 eV

  energy without entropy =     -645.88391762  energy(sigma->0) =     -645.90527461


--------------------------------------------------------------------------------------------------------




--------------------------------------- Iteration      1(   4)  ---------------------------------------


    EDDIAG:  cpu time    4.4712: real time    4.8643
  RMM-DIIS:  cpu time    9.1257: real time    9.1500
    ORTHCH:  cpu time    1.2070: real time    1.2883
       DOS:  cpu time    0.0013: real time    0.0013
    --------------------------------------------
      LOOP:  cpu time   14.8052: real time   15.3038

 eigenvalue-minimisations  :  7680
 total energy-change (2. order) :-0.4666824E+03  (-0.4295447E+03)
 number of electron     672.0000000 magnetization      48.0000000
 augmentation part      672.0000000 magnetization      48.0000000

 Free energy of the ion-electron system (eV)
  ---------------------------------------------------
  alpha Z        PSCENC =      2652.81237852
  Ewald energy   TEWEN  =    -41719.39443429
  -Hartree energ DENC   =    -25888.68542626
  -exchange      EXHF   =         0.00000000
  -V(xc)+E(xc)   XCENC  =      3606.31926239
  PAW double counting   =     55594.23204139   -59034.67079123
  entropy T*S    EENTRO =        -0.00000000
  eigenvalues    EBANDS =    -10185.42023215
  atomic energy  EATOM  =     73862.19814772
  Solvation  Ediel_sol  =         0.00000000
  ---------------------------------------------------
  free energy    TOTEN  =     -1112.60905391 eV

  energy without entropy =    -1112.60905391  energy(sigma->0) =    -1112.60905391


--------------------------------------------------------------------------------------------------------




--------------------------------------- Iteration      1(   5)  ---------------------------------------


    EDDIAG:  cpu time    4.4283: real time    4.8221
  RMM-DIIS:  cpu time    9.1328: real time    9.1435
    ORTHCH:  cpu time    1.1684: real time    1.2520
       DOS:  cpu time    0.0022: real time    0.0022
    --------------------------------------------
      LOOP:  cpu time   14.7316: real time   15.2198

 eigenvalue-minimisations  :  7680
 total energy-change (2. order) :-0.1041362E+03  (-0.1598111E+03)
 number of electron     672.0000000 magnetization      48.0000000
 augmentation part      672.0000000 magnetization      48.0000000

 Free energy of the ion-electron system (eV)
  ---------------------------------------------------
  alpha Z        PSCENC =      2652.81237852
  Ewald energy   TEWEN  =    -41719.39443429
  -Hartree energ DENC   =    -25888.68542626
  -exchange      EXHF   =         0.00000000
  -V(xc)+E(xc)   XCENC  =      3606.31926239
  PAW double counting   =     55594.23204139   -59034.67079123
  entropy T*S    EENTRO =        -0.00000000
  eigenvalues    EBANDS =    -10289.55638834
  atomic energy  EATOM  =     73862.19814772
  Solvation  Ediel_sol  =         0.00000000
  ---------------------------------------------------
  free energy    TOTEN  =     -1216.74521010 eV

  energy without entropy =    -1216.74521010  energy(sigma->0) =    -1216.74521010


--------------------------------------------------------------------------------------------------------




--------------------------------------- Iteration      1(   6)  ---------------------------------------


    EDDIAG:  cpu time    4.4350: real time    4.8334
  RMM-DIIS:  cpu time    9.0701: real time    9.1381
    ORTHCH:  cpu time    1.1694: real time    1.2514
       DOS:  cpu time    0.0011: real time    0.0011
    --------------------------------------------
      LOOP:  cpu time   14.6755: real time   15.2240

 eigenvalue-minimisations  :  7680
 total energy-change (2. order) :-0.9011170E+01  (-0.7931996E+02)
 number of electron     672.0000000 magnetization      48.0000000
 augmentation part      672.0000000 magnetization      48.0000000

 Free energy of the ion-electron system (eV)
  ---------------------------------------------------
  alpha Z        PSCENC =      2652.81237852
  Ewald energy   TEWEN  =    -41719.39443429
  -Hartree energ DENC   =    -25888.68542626
  -exchange      EXHF   =         0.00000000
  -V(xc)+E(xc)   XCENC  =      3606.31926239
  PAW double counting   =     55594.23204139   -59034.67079123
  entropy T*S    EENTRO =        -0.00000000
  eigenvalues    EBANDS =    -10298.56755835
  atomic energy  EATOM  =     73862.19814772
  Solvation  Ediel_sol  =         0.00000000
  ---------------------------------------------------
  free energy    TOTEN  =     -1225.75638010 eV

  energy without entropy =    -1225.75638010  energy(sigma->0) =    -1225.75638010


--------------------------------------------------------------------------------------------------------




--------------------------------------- Iteration      1(   7)  ---------------------------------------


    EDDIAG:  cpu time    4.4077: real time    4.8159
  RMM-DIIS:  cpu time    9.1297: real time    9.1494
    ORTHCH:  cpu time    1.1746: real time    1.2539
       DOS:  cpu time    0.0017: real time    0.0017
    --------------------------------------------
      LOOP:  cpu time   14.7136: real time   15.2208

 eigenvalue-minimisations  :  7680
 total energy-change (2. order) :-0.1701971E+01  (-0.4829147E+02)
 number of electron     672.0000000 magnetization      48.0000000
 augmentation part      672.0000000 magnetization      48.0000000

 Free energy of the ion-electron system (eV)
  ---------------------------------------------------
  alpha Z        PSCENC =      2652.81237852
  Ewald energy   TEWEN  =    -41719.39443429
  -Hartree energ DENC   =    -25888.68542626
  -exchange      EXHF   =         0.00000000
  -V(xc)+E(xc)   XCENC  =      3606.31926239
  PAW double counting   =     55594.23204139   -59034.67079123
  entropy T*S    EENTRO =        -0.00000000
  eigenvalues    EBANDS =    -10300.26952897
  atomic energy  EATOM  =     73862.19814772
  Solvation  Ediel_sol  =         0.00000000
  ---------------------------------------------------
  free energy    TOTEN  =     -1227.45835073 eV

  energy without entropy =    -1227.45835073  energy(sigma->0) =    -1227.45835073


--------------------------------------------------------------------------------------------------------




--------------------------------------- Iteration      1(   8)  ---------------------------------------


    EDDIAG:  cpu time    4.4485: real time    4.8275
  RMM-DIIS:  cpu time    9.1447: real time    9.1813
    ORTHCH:  cpu time    1.1667: real time    1.2504
       DOS:  cpu time    0.0015: real time    0.0015
    --------------------------------------------
      LOOP:  cpu time   14.7613: real time   15.2607

 eigenvalue-minimisations  :  7680
 total energy-change (2. order) : 0.4967020E+01  (-0.2993699E+02)
 number of electron     672.0000000 magnetization      48.0000000
 augmentation part      672.0000000 magnetization      48.0000000

 Free energy of the ion-electron system (eV)
  ---------------------------------------------------
  alpha Z        PSCENC =      2652.81237852
  Ewald energy   TEWEN  =    -41719.39443429
  -Hartree energ DENC   =    -25888.68542626
  -exchange      EXHF   =         0.00000000
  -V(xc)+E(xc)   XCENC  =      3606.31926239
  PAW double counting   =     55594.23204139   -59034.67079123
  entropy T*S    EENTRO =        -0.00000000
  eigenvalues    EBANDS =    -10295.30250881
  atomic energy  EATOM  =     73862.19814772
  Solvation  Ediel_sol  =         0.00000000
  ---------------------------------------------------
  free energy    TOTEN  =     -1222.49133057 eV

  energy without entropy =    -1222.49133057  energy(sigma->0) =    -1222.49133057


--------------------------------------------------------------------------------------------------------




--------------------------------------- Iteration      1(   9)  ---------------------------------------


    EDDIAG:  cpu time    4.4329: real time    4.8143
  RMM-DIIS:  cpu time   19.2710: real time   19.3212
    ORTHCH:  cpu time    1.1828: real time    1.2669
       DOS:  cpu time    0.0017: real time    0.0017
    --------------------------------------------
      LOOP:  cpu time   24.8883: real time   25.4040

 eigenvalue-minimisations  : 21790
 total energy-change (2. order) : 0.9257067E+01  (-0.1319317E+02)
 number of electron     672.0000000 magnetization      48.0000000
 augmentation part      672.0000000 magnetization      48.0000000

 Free energy of the ion-electron system (eV)
  ---------------------------------------------------
  alpha Z        PSCENC =      2652.81237852
  Ewald energy   TEWEN  =    -41719.39443429
  -Hartree energ DENC   =    -25888.68542626
  -exchange      EXHF   =         0.00000000
  -V(xc)+E(xc)   XCENC  =      3606.31926239
  PAW double counting   =     55594.23204139   -59034.67079123
  entropy T*S    EENTRO =        -0.00000000
  eigenvalues    EBANDS =    -10286.04544138
  atomic energy  EATOM  =     73862.19814772
  Solvation  Ediel_sol  =         0.00000000
  ---------------------------------------------------
  free energy    TOTEN  =     -1213.23426313 eV

  energy without entropy =    -1213.23426313  energy(sigma->0) =    -1213.23426313


--------------------------------------------------------------------------------------------------------




--------------------------------------- Iteration      1(  10)  ---------------------------------------


    EDDIAG:  cpu time    4.4649: real time    4.8486
  RMM-DIIS:  cpu time   17.9276: real time   17.9684
    ORTHCH:  cpu time    1.1717: real time    1.2525
       DOS:  cpu time    0.0032: real time    0.0032
    --------------------------------------------
      LOOP:  cpu time   23.5674: real time   24.0726

 eigenvalue-minimisations  : 19816
 total energy-change (2. order) :-0.1869403E+01  (-0.5261968E+00)
 number of electron     672.0000000 magnetization      48.0000000
 augmentation part      672.0000000 magnetization      48.0000000

 Free energy of the ion-electron system (eV)
  ---------------------------------------------------
  alpha Z        PSCENC =      2652.81237852
  Ewald energy   TEWEN  =    -41719.39443429
  -Hartree energ DENC   =    -25888.68542626
  -exchange      EXHF   =         0.00000000
  -V(xc)+E(xc)   XCENC  =      3606.31926239
  PAW double counting   =     55594.23204139   -59034.67079123
  entropy T*S    EENTRO =        -0.00000000
  eigenvalues    EBANDS =    -10287.91484459
  atomic energy  EATOM  =     73862.19814772
  Solvation  Ediel_sol  =         0.00000000
  ---------------------------------------------------
  free energy    TOTEN  =     -1215.10366635 eV

  energy without entropy =    -1215.10366635  energy(sigma->0) =    -1215.10366635


--------------------------------------------------------------------------------------------------------




--------------------------------------- Iteration      1(  11)  ---------------------------------------


    EDDIAG:  cpu time    4.3943: real time    4.8250
  RMM-DIIS:  cpu time   19.8875: real time   19.9007
    ORTHCH:  cpu time    1.1668: real time    1.2502
       DOS:  cpu time    0.0032: real time    0.0032
    --------------------------------------------
      LOOP:  cpu time   25.4518: real time   25.9792

 eigenvalue-minimisations  : 22651
 total energy-change (2. order) : 0.6814139E-01  (-0.4356174E-01)
 number of electron     672.0000000 magnetization      48.0000000
 augmentation part      672.0000000 magnetization      48.0000000

 Free energy of the ion-electron system (eV)
  ---------------------------------------------------
  alpha Z        PSCENC =      2652.81237852
  Ewald energy   TEWEN  =    -41719.39443429
  -Hartree energ DENC   =    -25888.68542626
  -exchange      EXHF   =         0.00000000
  -V(xc)+E(xc)   XCENC  =      3606.31926239
  PAW double counting   =     55594.23204139   -59034.67079123
  entropy T*S    EENTRO =        -0.00000000
  eigenvalues    EBANDS =    -10287.84670320
  atomic energy  EATOM  =     73862.19814772
  Solvation  Ediel_sol  =         0.00000000
  ---------------------------------------------------
  free energy    TOTEN  =     -1215.03552496 eV

  energy without entropy =    -1215.03552496  energy(sigma->0) =    -1215.03552496


--------------------------------------------------------------------------------------------------------




--------------------------------------- Iteration      1(  12)  ---------------------------------------


    EDDIAG:  cpu time    4.5017: real time    4.9002
  RMM-DIIS:  cpu time   21.7109: real time   21.7576
    ORTHCH:  cpu time    1.2515: real time    1.3363
       DOS:  cpu time    0.0016: real time    0.0016
    CHARGE:  cpu time    1.7914: real time    1.7921
    MIXING:  cpu time    0.0010: real time    0.0011
    --------------------------------------------
      LOOP:  cpu time   29.2580: real time   29.7890

 eigenvalue-minimisations  : 24373
 total energy-change (2. order) :-0.4524540E-03  (-0.4175325E-02)
 number of electron     671.9999751 magnetization      47.9999990
 augmentation part      239.0877080 magnetization      29.0443066

 Broyden mixing:
  rms(total) = 0.12541E+02    rms(broyden)= 0.12532E+02
  rms(prec ) = 0.14396E+02
  weight for this iteration     100.00

 Free energy of the ion-electron system (eV)
  ---------------------------------------------------
  alpha Z        PSCENC =      2652.81237852
  Ewald energy   TEWEN  =    -41719.39443429
  -Hartree energ DENC   =    -25888.68542626
  -exchange      EXHF   =         0.00000000
  -V(xc)+E(xc)   XCENC  =      3606.31926239
  PAW double counting   =     55594.23204139   -59034.67079123
  entropy T*S    EENTRO =        -0.00000000
  eigenvalues    EBANDS =    -10287.84715565
  atomic energy  EATOM  =     73862.19814772
  Solvation  Ediel_sol  =         0.00000000
  ---------------------------------------------------
  free energy    TOTEN  =     -1215.03597741 eV

  energy without entropy =    -1215.03597741  energy(sigma->0) =    -1215.03597741


--------------------------------------------------------------------------------------------------------




--------------------------------------- Iteration      1(  13)  ---------------------------------------


    POTLOK:  cpu time    0.1693: real time    0.1703
    SETDIJ:  cpu time    5.0083: real time    5.0103
    EDDIAG:  cpu time    4.4692: real time    4.8705
  RMM-DIIS:  cpu time   17.3144: real time   17.3557
    ORTHCH:  cpu time    1.1702: real time    1.2515
       DOS:  cpu time    0.0020: real time    0.0020
    CHARGE:  cpu time    1.7830: real time    1.7875
    MIXING:  cpu time    0.0009: real time    0.0010
    --------------------------------------------
      LOOP:  cpu time   29.9173: real time   30.4488

 eigenvalue-minimisations  : 18797
 total energy-change (2. order) : 0.2291214E+03  (-0.1215533E+03)
 number of electron     671.9999790 magnetization      47.9999988
 augmentation part      268.9758263 magnetization      26.4813985

 Broyden mixing:
  rms(total) = 0.13890E+02    rms(broyden)= 0.13887E+02
  rms(prec ) = 0.15626E+02
  weight for this iteration     100.00

 eigenvalues of (default mixing * dielectric matrix)
  average eigenvalue GAMMA=   0.3192
  0.3192

 Free energy of the ion-electron system (eV)
  ---------------------------------------------------
  alpha Z        PSCENC =      2652.81237852
  Ewald energy   TEWEN  =    -41719.39443429
  -Hartree energ DENC   =    -25221.80339263
  -exchange      EXHF   =         0.00000000
  -V(xc)+E(xc)   XCENC  =      3696.46373957
  PAW double counting   =     59892.75791826   -63318.04460489
  entropy T*S    EENTRO =        -0.09332086
  eigenvalues    EBANDS =    -10830.81103185
  atomic energy  EATOM  =     73862.19814772
  Solvation  Ediel_sol  =         0.00000000
  ---------------------------------------------------
  free energy    TOTEN  =      -985.91460044 eV

  energy without entropy =     -985.82127959  energy(sigma->0) =     -985.86794002


--------------------------------------------------------------------------------------------------------




--------------------------------------- Iteration      1(  14)  ---------------------------------------


    POTLOK:  cpu time    0.1699: real time    0.1701
    SETDIJ:  cpu time    4.9940: real time    4.9979
    EDDIAG:  cpu time    4.4400: real time    4.8404
  RMM-DIIS:  cpu time   17.7043: real time   17.7346
    ORTHCH:  cpu time    1.1692: real time    1.2510
       DOS:  cpu time    0.0016: real time    0.0016
    CHARGE:  cpu time    1.7879: real time    1.7885
    MIXING:  cpu time    0.0009: real time    0.0009
    --------------------------------------------
      LOOP:  cpu time   30.2677: real time   30.7850

 eigenvalue-minimisations  : 19408
 total energy-change (2. order) : 0.6960891E+02  (-0.1772807E+02)
 number of electron     671.9999764 magnetization      47.9999980
 augmentation part      246.5696700 magnetization      32.1846088

 Broyden mixing:
  rms(total) = 0.52739E+01    rms(broyden)= 0.52697E+01
  rms(prec ) = 0.57007E+01
  weight for this iteration     100.00

 eigenvalues of (default mixing * dielectric matrix)
  average eigenvalue GAMMA=   0.7300
  1.1022  0.3579

 Free energy of the ion-electron system (eV)
  ---------------------------------------------------
  alpha Z        PSCENC =      2652.81237852
  Ewald energy   TEWEN  =    -41719.39443429
  -Hartree energ DENC   =    -25834.78882944
  -exchange      EXHF   =         0.00000000
  -V(xc)+E(xc)   XCENC  =      3673.96141671
  PAW double counting   =     63281.55979866   -66764.23322575
  entropy T*S    EENTRO =        -0.00000000
  eigenvalues    EBANDS =    -10068.42094030
  atomic energy  EATOM  =     73862.19814772
  Solvation  Ediel_sol  =         0.00000000
  ---------------------------------------------------
  free energy    TOTEN  =      -916.30568816 eV

  energy without entropy =     -916.30568816  energy(sigma->0) =     -916.30568816


--------------------------------------------------------------------------------------------------------




--------------------------------------- Iteration      1(  15)  ---------------------------------------


    POTLOK:  cpu time    0.1714: real time    0.1720
    SETDIJ:  cpu time    5.0049: real time    5.0063
    EDDIAG:  cpu time    4.4251: real time    4.8294
  RMM-DIIS:  cpu time   18.2506: real time   18.2873
    ORTHCH:  cpu time    1.1653: real time    1.2500
       DOS:  cpu time    0.0013: real time    0.0013
    CHARGE:  cpu time    1.7852: real time    1.7891
    MIXING:  cpu time    0.0014: real time    0.0013
    --------------------------------------------
      LOOP:  cpu time   30.8053: real time   31.3368

 eigenvalue-minimisations  : 20297
 total energy-change (2. order) : 0.1430001E+02  (-0.1937014E+01)
 number of electron     671.9999773 magnetization      47.9999975
 augmentation part      249.7128164 magnetization      33.8393574

 Broyden mixing:
  rms(total) = 0.21323E+01    rms(broyden)= 0.21320E+01
  rms(prec ) = 0.22087E+01
  weight for this iteration     100.00

 eigenvalues of (default mixing * dielectric matrix)
  average eigenvalue GAMMA=   0.9573
  0.3828  0.7594  1.7297

 Free energy of the ion-electron system (eV)
  ---------------------------------------------------
  alpha Z        PSCENC =      2652.81237852
  Ewald energy   TEWEN  =    -41719.39443429
  -Hartree energ DENC   =    -25756.82594106
  -exchange      EXHF   =         0.00000000
  -V(xc)+E(xc)   XCENC  =      3707.19436419
  PAW double counting   =     67363.06952419   -70886.04293383
  entropy T*S    EENTRO =        -0.00000000
  eigenvalues    EBANDS =    -10125.01678525
  atomic energy  EATOM  =     73862.19814772
  Solvation  Ediel_sol  =         0.00000000
  ---------------------------------------------------
  free energy    TOTEN  =      -902.00567979 eV

  energy without entropy =     -902.00567979  energy(sigma->0) =     -902.00567979


--------------------------------------------------------------------------------------------------------




--------------------------------------- Iteration      1(  16)  ---------------------------------------


    POTLOK:  cpu time    0.1707: real time    0.1722
    SETDIJ:  cpu time    5.0602: real time    5.0638
    EDDIAG:  cpu time    4.4903: real time    4.8920
  RMM-DIIS:  cpu time   17.3507: real time   17.3582
    ORTHCH:  cpu time    1.1702: real time    1.2534
       DOS:  cpu time    0.0019: real time    0.0019
    CHARGE:  cpu time    1.7876: real time    1.7894
    MIXING:  cpu time    0.0010: real time    0.0010
    --------------------------------------------
      LOOP:  cpu time   30.0325: real time   30.5318

 eigenvalue-minimisations  : 19013
 total energy-change (2. order) :-0.1658896E+01  (-0.6339770E+00)
 number of electron     671.9999774 magnetization      47.9999974
 augmentation part      251.2434154 magnetization      33.9337452

 Broyden mixing:
  rms(total) = 0.14156E+01    rms(broyden)= 0.14151E+01
  rms(prec ) = 0.15057E+01
  weight for this iteration     100.00

 eigenvalues of (default mixing * dielectric matrix)
  average eigenvalue GAMMA=   0.9772
  2.0833  0.9061  0.3900  0.5293

 Free energy of the ion-electron system (eV)
  ---------------------------------------------------
  alpha Z        PSCENC =      2652.81237852
  Ewald energy   TEWEN  =    -41719.39443429
  -Hartree energ DENC   =    -25706.34884765
  -exchange      EXHF   =         0.00000000
  -V(xc)+E(xc)   XCENC  =      3708.36004300
  PAW double counting   =     70341.10516740   -73894.13286763
  entropy T*S    EENTRO =        -0.00000000
  eigenvalues    EBANDS =    -10148.26416309
  atomic energy  EATOM  =     73862.19814772
  Solvation  Ediel_sol  =         0.00000000
  ---------------------------------------------------
  free energy    TOTEN  =      -903.66457600 eV

  energy without entropy =     -903.66457600  energy(sigma->0) =     -903.66457600


--------------------------------------------------------------------------------------------------------




--------------------------------------- Iteration      1(  17)  ---------------------------------------


    POTLOK:  cpu time    0.1748: real time    0.1754
    SETDIJ:  cpu time    5.0683: real time    5.0694
    EDDIAG:  cpu time    4.5237: real time    4.9314
  RMM-DIIS:  cpu time   18.4190: real time   18.4559
    ORTHCH:  cpu time    1.1979: real time    1.2785
       DOS:  cpu time    0.0011: real time    0.0011
    CHARGE:  cpu time    1.7880: real time    1.7922
    MIXING:  cpu time    0.0021: real time    0.0021
    --------------------------------------------
      LOOP:  cpu time   31.1749: real time   31.7059

 eigenvalue-minimisations  : 20553
 total energy-change (2. order) : 0.1678022E+00  (-0.5463022E-01)
 number of electron     671.9999775 magnetization      47.9999974
 augmentation part      251.1307314 magnetization      33.9267259

 Broyden mixing:
  rms(total) = 0.75842E+00    rms(broyden)= 0.75833E+00
  rms(prec ) = 0.85506E+00
  weight for this iteration     100.00

 eigenvalues of (default mixing * dielectric matrix)
  average eigenvalue GAMMA=   1.0082
  2.2430  1.1454  0.3808  0.7009  0.5708

 Free energy of the ion-electron system (eV)
  ---------------------------------------------------
  alpha Z        PSCENC =      2652.81237852
  Ewald energy   TEWEN  =    -41719.39443429
  -Hartree energ DENC   =    -25699.29759312
  -exchange      EXHF   =         0.00000000
  -V(xc)+E(xc)   XCENC  =      3705.37541471
  PAW double counting   =     71169.98977925   -74731.10078901
  entropy T*S    EENTRO =        -0.00000000
  eigenvalues    EBANDS =    -10144.07967759
  atomic energy  EATOM  =     73862.19814772
  Solvation  Ediel_sol  =         0.00000000
  ---------------------------------------------------
  free energy    TOTEN  =      -903.49677380 eV

  energy without entropy =     -903.49677380  energy(sigma->0) =     -903.49677380


--------------------------------------------------------------------------------------------------------




--------------------------------------- Iteration      1(  18)  ---------------------------------------


    POTLOK:  cpu time    0.1710: real time    0.1712
    SETDIJ:  cpu time    5.0062: real time    5.0320
    EDDIAG:  cpu time    4.4693: real time    4.8412
  RMM-DIIS:  cpu time   17.6891: real time   17.6979
    ORTHCH:  cpu time    1.1706: real time    1.2535
       DOS:  cpu time    0.0011: real time    0.0011
    CHARGE:  cpu time    1.7872: real time    1.7909
    MIXING:  cpu time    0.0014: real time    0.0014
    --------------------------------------------
      LOOP:  cpu time   30.2958: real time   30.7891

 eigenvalue-minimisations  : 19087
 total energy-change (2. order) : 0.3959660E+00  (-0.6834613E-01)
 number of electron     671.9999773 magnetization      47.9999974
 augmentation part      250.6049117 magnetization      33.8833752

 Broyden mixing:
  rms(total) = 0.25677E+00    rms(broyden)= 0.25645E+00
  rms(prec ) = 0.26946E+00
  weight for this iteration     100.00

 eigenvalues of (default mixing * dielectric matrix)
  average eigenvalue GAMMA=   1.0242
  2.4681  1.3688  0.8514  0.3820  0.5852  0.4898

 Free energy of the ion-electron system (eV)
[...]
   4      -0.590    -0.766     1.356    -0.168    -0.075    -0.079
   5      -1.141    -0.551     1.692     0.130    -0.022    -0.041
   6      -0.651    -0.880     1.532    -0.126    -0.092     0.007
   7      -1.079    -0.819     1.897    -0.139    -0.015    -0.026
   8      -0.590    -0.768     1.358     0.144     0.020     0.011
   9      -0.666    -0.913     1.579     0.167    -0.003     0.006
  10      -0.911    -0.869     1.780     0.081    -0.049     0.062
  11      -0.989    -0.785     1.774    -0.150     0.059    -0.094
  12      -0.553    -0.765     1.318    -0.147     0.051     0.031
  13      -0.757    -1.018     1.775     0.199    -0.016    -0.094
  14      -1.138    -0.744     1.882     0.072     0.096     0.095
  15      -0.586    -0.729     1.315    -0.157     0.098    -0.009
  16      -0.587    -0.812     1.399     0.111     0.055    -0.080
  17       1.687     1.363    -3.050     0.126     0.060    -0.059
  18       1.446     1.586    -3.033     0.056     0.042     0.186
  19       1.488     1.388    -2.875     0.061    -0.056    -0.167
  20       1.382     1.524    -2.906     0.018    -0.038     0.076
  21       1.277     1.804    -3.081     0.084     0.053     0.103
  22       1.556     1.440    -2.997     0.021    -0.060    -0.193
  23       1.504     1.483    -2.988    -0.184     0.099     0.149
  24       1.395     1.501    -2.896    -0.081     0.076    -0.102
  25      -1.141     0.580     0.560    -0.236    -0.352    -0.767
  26      -2.259    -0.526     2.785    -0.422     0.040    -0.406
  27       0.330    -1.035     0.704    -0.215     0.806    -0.374
  28      -1.100     0.407     0.693    -1.310     0.482    -1.077
  29      -1.270     0.952     0.318    -0.327     0.603     0.129
  30       0.426     0.067    -0.493    -0.240     0.949    -0.584
  31      -0.825    -0.510     1.335    -0.658     0.102    -0.205
  32      -1.185    -0.271     1.456    -1.185     1.512     0.117
  33      -2.123    -0.146     2.268    -0.439     0.991     0.423
  34      -1.487     0.383     1.104    -0.150     0.183     0.138
  35      -0.479    -0.003     0.482    -0.595     0.254     0.254
  36      -0.820    -0.365     1.185    -0.129    -0.067     0.105
  37      -0.001    -0.946     0.947    -1.161     0.300     0.522
  38      -1.451     0.586     0.866    -0.113    -0.101    -0.463
  39      -0.254     0.292    -0.038    -0.956    -0.711    -0.567
  40      -2.007     0.811     1.196     0.586     0.094     0.465
  41      -2.718     0.925     1.793    -5.259     1.662    -6.040
  42      -2.254     2.364    -0.111     4.442     1.076     4.986
  43       4.716    -5.362     0.646     1.677    -4.548     0.049
  44      -2.936     2.881     0.055    -4.815    -2.897     4.769
  45       5.708    -5.074    -0.634    -1.032     4.201    -1.977
  46      -3.124     2.246     0.878     5.702    -3.809    -5.107
  47      -4.912     2.772     2.140    -4.763     2.774    -4.734
  48       1.361    -5.776     4.415    -0.162    -5.065    -0.995
  49      -6.209     5.677     0.532     3.496     4.073     3.860
  50      -2.134     0.856     1.278    -5.619    -1.222     4.589
  51      -3.322     0.949     2.373     4.453    -2.875    -3.832
  52       5.349    -5.465     0.116    -1.628     4.663    -1.112
  53      -2.957     2.372     0.585    -5.872     2.373    -4.124
  54      -3.536     2.588     0.949     4.629     2.302     4.429
  55       5.187    -5.792     0.604    -0.245    -4.743     0.220
  56      -4.011     3.247     0.764    -5.864    -0.890     4.871
  57       3.022    -5.831     2.809    -0.381     5.444     0.663
  58      -4.631     3.806     0.825     3.703    -1.644    -4.136
  59      -4.062     2.817     1.245    -4.959     2.635    -4.957
  60       5.063    -5.405     0.341    -0.099    -3.876     0.740
  61      -2.466     4.722    -2.257     5.565     1.159     2.590
  62      -2.365     1.707     0.658    -4.686    -2.479     4.302
  63      -2.567     2.281     0.286     4.169    -1.188    -4.822
  64       6.152    -5.537    -0.615     0.650     3.565    -1.447
  65      -2.984     2.923     0.061    -3.953     3.346    -4.658
  66      -4.515     2.762     1.754     3.953     2.312     4.207
  67       4.601    -5.632     1.031     0.582    -4.030    -1.032
  68      -1.980     0.677     1.303    -5.942    -4.326     3.472
  69       4.151    -5.827     1.676     2.560     4.864    -0.788
  70      -5.368     2.614     2.754     4.682    -2.416    -4.101
  71      -2.700     1.806     0.895    -6.270     2.186    -3.131
  72       4.381    -5.061     0.680     1.295    -4.339     0.119
  73      -3.325     0.805     2.520     3.677     2.080     4.381
  74      -0.362     0.926    -0.564    -6.179    -1.561     4.387
  75      -3.281     2.879     0.402     3.286    -1.956    -3.703
  76       5.493    -5.844     0.352     1.289     4.429     0.924
  77      -3.704     2.380     1.324    -4.391     1.129    -4.704
  78      -3.733     4.247    -0.514     6.218     1.608     3.221
  79       4.794    -5.928     1.134     0.723    -4.015    -0.335
  80      -2.352     2.734    -0.382    -5.534    -2.598     3.592
  81       5.134    -5.525     0.391     0.812     3.944    -0.482
  82      -3.337     1.738     1.599     4.336    -2.640    -3.862
  83      -2.418     2.637    -0.219    -4.909     1.567    -4.036
  84       4.633    -5.796     1.162    -0.056    -3.886     0.370
  85      -3.512     2.397     1.115     3.752     3.744     4.787
  86      -2.698     2.416     0.282    -4.811    -2.835     4.201
  87      -3.790     2.513     1.277     4.581    -1.755    -4.807
  88       3.659    -5.277     1.618    -0.241     4.613     1.409
 ---------------------------------------------------------------------


 Total hyperfine coupling parameters after diagonalization (MHz)
 (convention: |A_zz| > |A_xx| > |A_yy|)
 ----------------------------------------------------------------------
  ion      A_xx      A_yy      A_zz     asymmetry (A_yy - A_xx)/ A_zz 
 ----------------------------------------------------------------------
   1       0.651     0.374     3.284      -0.084
   2       2.262     1.653     4.395      -0.139
   3      -0.704    -0.387     2.324       0.136
   4       1.676     1.292     3.526      -0.109
   5       1.548     0.904     3.765      -0.171
   6       1.985     1.647     4.119      -0.082
   7       0.222    -0.158     2.878      -0.132
   8       2.059     1.722     3.927      -0.086
   9       1.704     1.288     3.864      -0.108
  10       0.914     0.745     3.503      -0.048
  11       0.395     0.037     2.884      -0.124
  12       1.533     1.169     3.332      -0.109
  13       2.231     1.754     4.661      -0.102
  14       0.605     0.188     3.230      -0.129
  15       2.252     1.910     4.062      -0.084
  16       1.968     1.648     3.913      -0.082
  17      14.646    10.274    15.056      -0.290
  18      14.632    10.165    14.819      -0.301
  19      13.226     8.981    13.383      -0.317
  20      14.056     9.768    14.203      -0.302
  21      14.934    10.585    15.489      -0.281
  22      15.236    10.786    15.353      -0.290
  23      15.244    10.932    15.605      -0.276
  24      13.577     9.325    13.774      -0.309
  25      96.692    95.431    98.072      -0.013
  26     100.863    98.985   104.178      -0.018
  27      98.453    97.644   100.177      -0.008
  28     102.204   100.601   104.594      -0.015
  29      95.462    93.419    95.944      -0.021
  30      99.543    98.388   100.847      -0.011
  31      95.465    94.147    96.865      -0.014
  32      98.584    95.873   100.545      -0.027
  33      99.106    96.720   101.695      -0.023
  34      96.379    94.491    97.142      -0.019
  35      95.866    94.521    96.080      -0.014
  36      95.368    94.854    96.903      -0.005
  37      96.378    93.748    96.686      -0.027
  38      98.235    96.514    99.188      -0.017
  39      95.559    93.514    96.058      -0.021
  40      98.309    95.616    99.295      -0.027
  41       4.824    -0.214    16.407      -0.307
  42       6.920     3.426    17.177      -0.203
  43       4.997     1.275    14.850      -0.251
  44       2.642     0.370    15.088      -0.151
  45       6.857     3.190    17.101      -0.214
  46       4.325     0.938    17.930      -0.189
  47       6.103     0.921    17.398      -0.298
  48       3.895     0.192    14.364      -0.258
  49       9.633     2.373    20.081      -0.362
  50       6.484     0.665    15.715      -0.370
  51       6.376     1.968    16.009      -0.275
  52       5.075     1.932    16.043      -0.196
  53       6.348     1.725    17.356      -0.266
  54       5.272     1.634    16.072      -0.226
  55       5.603     2.174    16.145      -0.212
  56       6.044    -0.076    16.748      -0.365
  57       4.216     0.596    14.951      -0.242
  58       5.986     1.904    15.902      -0.257
  59       5.706     1.707    17.681      -0.226
  60       5.560     1.783    14.556      -0.260
  61       4.361     1.829    15.841      -0.160
  62       2.866     0.035    13.584      -0.208
  63       3.941     0.725    14.003      -0.230
  64       6.054     1.411    15.257      -0.304
  65       2.734     0.738    14.726      -0.136
  66       5.304     0.847    15.231      -0.293
  67       3.883    -0.384    12.714      -0.336
  68       7.623     2.848    19.028      -0.251
  69       7.329     1.490    16.572      -0.352
  70       7.288     0.790    16.959      -0.383
  71       8.327     2.316    17.635      -0.341
  72       4.438     1.065    13.749      -0.245
  73       5.209     1.769    14.861      -0.231
  74       6.666     2.013    17.196      -0.271
  75       1.983    -0.528    11.173      -0.225
  76       7.232     3.396    17.643      -0.217
  77       6.326     1.833    16.105      -0.279
  78       7.553     2.289    18.428      -0.286
  79       2.954    -1.578    11.822      -0.383
  80       6.878     3.538    17.944      -0.186
  81       5.218     1.170    14.266      -0.284
  82       3.004    -0.935    12.675      -0.311
  83       6.425     3.172    16.625      -0.196
  84       3.369    -1.109    11.868      -0.377
  85       3.676     0.902    15.564      -0.178
  86       5.205     2.432    16.489      -0.168
  87       3.078    -0.998    13.788      -0.296
  88       4.351     0.271    13.414      -0.304
 ---------------------------------------------------------------------



--------------------------------------------------------------------------------------------------------


 stress matrix after NEB project (eV)
    -42.26353      0.29631     -6.13171
      0.29162    -49.12812     -1.79719
     -6.12435     -1.79320    -56.32197
  FORCES: max atom, RMS     2.096384    1.002337
  FORCE total and by dimension    9.402752    1.710076
  Stress total and by dimension   86.334621   56.321972
     LOOP+:  cpu time  660.5917: real time  673.3222
    4ORBIT:  cpu time    0.0000: real time    0.0000
 


 total charge     
 
# of ion       s       p       d       tot
------------------------------------------
    1        0.050   5.993   0.000   6.044
    2        0.051   5.993   0.000   6.044
    3        0.052   5.995   0.000   6.047
    4        0.051   5.994   0.000   6.045
    5        0.050   5.992   0.000   6.043
    6        0.047   5.989   0.000   6.036
    7        0.052   5.997   0.000   6.049
    8        0.052   5.995   0.000   6.047
    9        0.045   5.987   0.000   6.032
   10        0.048   5.990   0.000   6.038
   11        0.049   5.992   0.000   6.041
   12        0.049   5.992   0.000   6.041
   13        0.055   5.999   0.000   6.054
   14        0.054   5.999   0.000   6.053
   15        0.046   5.987   0.000   6.034
   16        0.051   5.993   0.000   6.045
   17        0.152   6.134   0.089   6.375
   18        0.157   6.143   0.096   6.397
   19        0.144   6.120   0.078   6.342
   20        0.143   6.117   0.075   6.335
   21        0.155   6.140   0.094   6.389
   22        0.151   6.133   0.089   6.373
   23        0.150   6.130   0.086   6.366
   24        0.148   6.126   0.083   6.357
   25        0.369   6.441   4.818  11.628
   26        0.367   6.433   4.815  11.616
   27        0.376   6.453   4.835  11.664
   28        0.363   6.430   4.809  11.603
   29        0.393   6.496   4.870  11.760
   30        0.373   6.451   4.827  11.650
   31        0.383   6.471   4.839  11.693
   32        0.371   6.443   4.822  11.636
   33        0.376   6.456   4.830  11.662
   34        0.379   6.464   4.832  11.675
   35        0.374   6.452   4.829  11.656
   36        0.385   6.472   4.855  11.711
   37        0.389   6.485   4.860  11.735
   38        0.372   6.449   4.822  11.643
   39        0.376   6.456   4.827  11.659
   40        0.367   6.438   4.808  11.613
   41        1.597   3.481   0.000   5.078
   42        1.599   3.503   0.000   5.102
   43        1.599   3.523   0.000   5.123
   44        1.602   3.490   0.000   5.092
   45        1.598   3.491   0.000   5.090
   46        1.607   3.502   0.000   5.108
   47        1.600   3.518   0.000   5.118
   48        1.596   3.497   0.000   5.093
   49        1.603   3.492   0.000   5.095
   50        1.598   3.527   0.000   5.125
   51        1.597   3.503   0.000   5.100
   52        1.598   3.493   0.000   5.091
   53        1.599   3.515   0.000   5.114
   54        1.599   3.488   0.000   5.087
   55        1.598   3.528   0.000   5.126
   56        1.600   3.516   0.000   5.116
   57        1.599   3.519   0.000   5.119
   58        1.599   3.482   0.000   5.081
   59        1.602   3.530   0.000   5.132
   60        1.598   3.512   0.000   5.110
   61        1.599   3.490   0.000   5.090
   62        1.600   3.514   0.000   5.114
   63        1.598   3.475   0.000   5.073
   64        1.596   3.508   0.000   5.104
   65        1.600   3.509   0.000   5.109
   66        1.601   3.522   0.000   5.123
   67        1.596   3.487   0.000   5.083
   68        1.600   3.525   0.000   5.125
   69        1.598   3.507   0.000   5.105
   70        1.600   3.512   0.000   5.112
   71        1.599   3.522   0.000   5.121
   72        1.598   3.515   0.000   5.114
   73        1.599   3.526   0.000   5.125
   74        1.602   3.505   0.000   5.107
   75        1.597   3.514   0.000   5.112
   76        1.600   3.526   0.000   5.126
   77        1.599   3.528   0.000   5.127
   78        1.601   3.507   0.000   5.108
   79        1.598   3.508   0.000   5.107
   80        1.599   3.490   0.000   5.089
   81        1.597   3.498   0.000   5.095
   82        1.595   3.500   0.000   5.096
   83        1.598   3.505   0.000   5.103
   84        1.598   3.516   0.000   5.114
   85        1.597   3.492   0.000   5.089
   86        1.599   3.515   0.000   5.114
   87        1.599   3.508   0.000   5.107
   88        1.597   3.492   0.000   5.088
--------------------------------------------------
tot         84.768 416.548  77.988 579.304
 


 magnetization (x)
 
# of ion       s       p       d       tot
------------------------------------------
    1        0.001   0.001   0.000   0.002
    2        0.002   0.000   0.000   0.002
    3        0.000   0.000   0.000   0.000
    4        0.002  -0.000   0.000   0.001
    5        0.002   0.000   0.000   0.002
    6        0.002   0.000   0.000   0.002
    7        0.001   0.000   0.000   0.001
    8        0.002   0.000   0.000   0.002
    9        0.002  -0.000   0.000   0.002
   10        0.001   0.001   0.000   0.002
   11        0.001   0.000   0.000   0.001
   12        0.002  -0.000   0.000   0.001
   13        0.002   0.000   0.000   0.002
   14        0.001   0.001   0.000   0.001
   15        0.002   0.000   0.000   0.002
   16        0.002   0.000   0.000   0.002
   17        0.007   0.002   0.001   0.011
   18        0.007   0.003   0.001   0.011
   19        0.007   0.002   0.001   0.010
   20        0.007   0.002   0.001   0.011
   21        0.007   0.003   0.001   0.012
   22        0.007   0.003   0.001   0.011
   23        0.008   0.003   0.001   0.012
   24        0.007   0.002   0.001   0.010
   25        0.015   0.029   2.766   2.810
   26        0.017   0.029   2.770   2.816
   27        0.016   0.030   2.757   2.803
   28        0.017   0.031   2.788   2.836
   29        0.015   0.031   2.717   2.764
   30        0.016   0.031   2.759   2.807
   31        0.015   0.030   2.742   2.788
   32        0.015   0.030   2.762   2.807
   33        0.016   0.031   2.756   2.803
   34        0.015   0.030   2.754   2.800
   35        0.015   0.030   2.753   2.798
   36        0.015   0.030   2.728   2.773
   37        0.015   0.030   2.728   2.773
   38        0.016   0.031   2.761   2.808
   39        0.015   0.030   2.754   2.799
   40        0.015   0.030   2.781   2.826
   41        0.002   0.028   0.000   0.030
   42        0.002   0.049   0.000   0.051
   43        0.002   0.025   0.000   0.027
   44        0.002   0.009   0.000   0.011
   45        0.002   0.040   0.000   0.043
   46        0.002   0.027   0.000   0.030
   47        0.002   0.043   0.000   0.045
   48        0.002   0.025   0.000   0.027
   49        0.003   0.048   0.000   0.051
   50        0.002   0.044   0.000   0.046
   51        0.002   0.040   0.000   0.042
   52        0.002   0.027   0.000   0.030
   53        0.002   0.047   0.000   0.049
   54        0.002   0.032   0.000   0.034
   55        0.002   0.044   0.000   0.046
   56        0.002   0.051   0.000   0.053
   57        0.002   0.028   0.000   0.029
   58        0.002   0.029   0.000   0.031
   59        0.002   0.047   0.000   0.049
   60        0.002   0.031   0.000   0.033
   61        0.002   0.024   0.000   0.026
   62        0.002   0.017   0.000   0.019
   63        0.002   0.015   0.000   0.017
   64        0.002   0.034   0.000   0.036
   65        0.002   0.020   0.000   0.022
   66        0.002   0.039   0.000   0.041
   67        0.002   0.010   0.000   0.012
   68        0.002   0.054   0.000   0.056
   69        0.002   0.046   0.000   0.049
   70        0.002   0.044   0.000   0.046
   71        0.002   0.054   0.000   0.056
   72        0.002   0.026   0.000   0.027
   73        0.002   0.035   0.000   0.037
   74        0.002   0.041   0.000   0.043
   75        0.001   0.010   0.000   0.011
   76        0.002   0.048   0.000   0.051
   77        0.002   0.045   0.000   0.047
   78        0.002   0.050   0.000   0.052
   79        0.001   0.011   0.000   0.012
   80        0.003   0.042   0.000   0.044
   81        0.002   0.026   0.000   0.028
   82        0.001   0.015   0.000   0.016
   83        0.002   0.035   0.000   0.038
   84        0.001   0.019   0.000   0.020
   85        0.002   0.024   0.000   0.026
   86        0.002   0.042   0.000   0.044
   87        0.002   0.022   0.000   0.024
   88        0.002   0.015   0.000   0.017
--------------------------------------------------
tot          0.425   2.084  44.087  46.595
 

 total amount of memory used by VASP MPI-rank0    94431. kBytes
=======================================================================

   base      :      30000. kBytes
   nonlr-proj:      13672. kBytes
   fftplans  :       1275. kBytes
   grid      :      22786. kBytes
   one-center:       2737. kBytes
   wavefun   :      23961. kBytes
 
  
  
 General timing and accounting informations for this job:
 ========================================================
  
                  Total CPU time used (sec):      681.494
                            User time (sec):      674.308
                          System time (sec):        7.186
                         Elapsed time (sec):      696.760
  
                   Maximum memory used (kb):      195428.
                   Average memory used (kb):           0.
  
                          Minor page faults:       244935
                          Major page faults:            0
                 Voluntary context switches:       218746
