 vasp.5.4.4.18Apr17-6-g9f103f2a35 (build Dec 02 2020 12:53:39) complex          
  
 executed on             LinuxIFC date 2021.08.02  15:40:28
 running on   96 total cores
 distrk:  each k-point on   96 cores,    1 groups
 distr:  one band on NCORES_PER_BAND=   1 cores,   96 groups


--------------------------------------------------------------------------------------------------------


 INCAR:
 POTCAR:    PAW_PBE Na_pv 19Sep2006               
 POTCAR:    PAW_PBE Mg_pv 13Apr2007               
 POTCAR:    PAW_PBE Mn_pv 02Aug2007               
 POTCAR:    PAW_PBE O 08Apr2002                   

 ----------------------------------------------------------------------------- 
|                                                                             |
|           W    W    AA    RRRRR   N    N  II  N    N   GGGG   !!!           |
|           W    W   A  A   R    R  NN   N  II  NN   N  G    G  !!!           |
|           W    W  A    A  R    R  N N  N  II  N N  N  G       !!!           |
|           W WW W  AAAAAA  RRRRR   N  N N  II  N  N N  G  GGG   !            |
|           WW  WW  A    A  R   R   N   NN  II  N   NN  G    G                |
|           W    W  A    A  R    R  N    N  II  N    N   GGGG   !!!           |
|                                                                             |
|      For optimal performance we recommend to set                            |
|        NCORE= 4 - approx SQRT( number of cores)                             |
|      NCORE specifies how many cores store one orbital (NPAR=cpu/NCORE).     |
|      This setting can  greatly improve the performance of VASP for DFT.     |
|      The default,   NCORE=1            might be grossly inefficient         |
|      on modern multi-core architectures or massively parallel machines.     |
|      Do your own testing !!!!                                               |
|      Unfortunately you need to use the default for GW and RPA calculations. |
|      (for HF NCORE is supported but not extensively tested yet)             |
|                                                                             |
 ----------------------------------------------------------------------------- 

 POTCAR:    PAW_PBE Na_pv 19Sep2006               
   VRHFIN =Na: p6s1                                                             
   LEXCH  = PE                                                                  
   EATOM  =   766.0439 eV,   56.3026 Ry                                         
                                                                                
   TITEL  = PAW_PBE Na_pv 19Sep2006                                             
   LULTRA =        F    use ultrasoft PP ?                                      
   IUNSCR =        1    unscreen: 0-lin 1-nonlin 2-no                           
   RPACOR =    1.800    partial core radius                                     
   POMASS =   22.990; ZVAL   =    7.000    mass and valenz                      
   RCORE  =    2.200    outmost cutoff radius                                   
   RWIGS  =    2.200; RWIGS  =    1.164    wigner-seitz radius (au A)           
   ENMAX  =  259.561; ENMIN  =  194.671 eV                                      
   ICORE  =        2    local potential                                         
   LCOR   =        T    correct aug charges                                     
   LPAW   =        T    paw PP                                                  
   EAUG   =  368.056                                                            
   DEXC   =    0.000                                                            
   RMAX   =    2.245    core radius for proj-oper                               
   RAUG   =    1.300    factor for augmentation sphere                          
   RDEP   =    2.259    radius for radial grids                                 
   RDEPT  =    1.738    core radius for aug-charge                              
                                                                                
   Atomic configuration                                                         
    5 entries                                                                   
     n  l   j            E        occ.                                          
     1  0  0.50     -1033.6933   2.0000                                         
     2  0  0.50       -56.7526   2.0000                                         
     2  1  1.50       -28.6721   6.0000                                         
     3  0  0.50        -2.7440   1.0000                                         
     3  2  1.50        -1.3606   0.0000                                         
   Description                                                                  
     l       E           TYP  RCUT    TYP  RCUT                                 
     1    -28.6720912     23  2.000                                             
     1      6.8029130     23  2.000                                             
     0     -2.7439560     23  2.200                                             
     0     34.0145650     23  2.200                                             
     2     -1.3605826     23  2.200                                             
  local pseudopotential read in
  partial core-charges read in
  partial kinetic energy density read in
  atomic valenz-charges read in
  non local Contribution for L=           1  read in
    real space projection operators read in
  non local Contribution for L=           1  read in
    real space projection operators read in
  non local Contribution for L=           0  read in
    real space projection operators read in
  non local Contribution for L=           0  read in
    real space projection operators read in
    PAW grid and wavefunctions read in
 
   number of l-projection  operators is LMAX  =           4
   number of lm-projection operators is LMMAX =           8
 
 POTCAR:    PAW_PBE Mg_pv 13Apr2007               
   VRHFIN =Mg: p6s2                                                             
   LEXCH  = PE                                                                  
   EATOM  =  1056.7344 eV,   77.6678 Ry                                         
                                                                                
   TITEL  = PAW_PBE Mg_pv 13Apr2007                                             
   LULTRA =        F    use ultrasoft PP ?                                      
   IUNSCR =        1    unscreen: 0-lin 1-nonlin 2-no                           
   RPACOR =    1.500    partial core radius                                     
   POMASS =   24.305; ZVAL   =    8.000    mass and valenz                      
   RCORE  =    2.000    outmost cutoff radius                                   
   RWIGS  =    2.000; RWIGS  =    1.058    wigner-seitz radius (au A)           
   ENMAX  =  403.929; ENMIN  =  302.947 eV                                      
   RCLOC  =    1.506    cutoff for local pot                                    
   LCOR   =        T    correct aug charges                                     
   LPAW   =        T    paw PP                                                  
   EAUG   =  758.780                                                            
   DEXC   =    0.000                                                            
   RMAX   =    2.045    core radius for proj-oper                               
   RAUG   =    1.300    factor for augmentation sphere                          
   RDEP   =    2.025    radius for radial grids                                 
   RDEPT  =    1.557    core radius for aug-charge                              
                                                                                
   Atomic configuration                                                         
    5 entries                                                                   
     n  l   j            E        occ.                                          
     1  0  0.50     -1259.6230   2.0000                                         
     2  0  0.50       -79.8442   2.0000                                         
     2  1  1.50       -46.6121   6.0000                                         
     3  0  0.50        -4.7055   2.0000                                         
     3  2  1.50        -1.3606   0.0000                                         
   Description                                                                  
     l       E           TYP  RCUT    TYP  RCUT                                 
     1    -46.6121073     23  1.600                                             
     1      2.7211652     23  1.600                                             
     0     -4.7054661     23  2.000                                             
     0     61.2262170     23  2.000                                             
     2     -1.3605826     23  2.000                                             
  local pseudopotential read in
  partial core-charges read in
  partial kinetic energy density read in
  atomic valenz-charges read in
  non local Contribution for L=           1  read in
    real space projection operators read in
  non local Contribution for L=           1  read in
    real space projection operators read in
  non local Contribution for L=           0  read in
    real space projection operators read in
  non local Contribution for L=           0  read in
    real space projection operators read in
  non local Contribution for L=           2  read in
    real space projection operators read in
    PAW grid and wavefunctions read in
 
   number of l-projection  operators is LMAX  =           5
   number of lm-projection operators is LMMAX =          13
 
 POTCAR:    PAW_PBE Mn_pv 02Aug2007               
   VRHFIN =Mn: 3p4s3d                                                           
   LEXCH  = PE                                                                  
   EATOM  =  2025.2664 eV,  148.8529 Ry                                         
                                                                                
   TITEL  = PAW_PBE Mn_pv 02Aug2007                                             
   LULTRA =        F    use ultrasoft PP ?                                      
   IUNSCR =        1    unscreen: 0-lin 1-nonlin 2-no                           
   RPACOR =    2.080    partial core radius                                     
   POMASS =   54.938; ZVAL   =   13.000    mass and valenz                      
   RCORE  =    2.300    outmost cutoff radius                                   
   RWIGS  =    2.500; RWIGS  =    1.323    wigner-seitz radius (au A)           
   ENMAX  =  269.864; ENMIN  =  202.398 eV                                      
   ICORE  =        3    local potential                                         
   LCOR   =        T    correct aug charges                                     
   LPAW   =        T    paw PP                                                  
   EAUG   =  569.085                                                            
   DEXC   =    0.000                                                            
   RMAX   =    2.343    core radius for proj-oper                               
   RAUG   =    1.300    factor for augmentation sphere                          
   RDEP   =    2.338    radius for radial grids                                 
   RDEPT  =    1.798    core radius for aug-charge                              
                                                                                
   Atomic configuration                                                         
    8 entries                                                                   
     n  l   j            E        occ.                                          
     1  0  0.50     -6424.8287   2.0000                                         
     2  0  0.50      -739.1154   2.0000                                         
     2  1  1.50      -625.3949   6.0000                                         
     3  0  0.50       -81.6100   2.0000                                         
     3  1  1.50       -50.4667   6.0000                                         
     3  2  2.50        -3.3745   6.0000                                         
     4  0  0.50        -4.1331   1.0000                                         
     4  3  2.50        -1.3606   0.0000                                         
   Description                                                                  
     l       E           TYP  RCUT    TYP  RCUT                                 
     1    -50.4666628     23  2.000                                             
     1     -1.3605826     23  2.000                                             
     2     -3.3744729     23  2.300                                             
     2     -4.7350555     23  2.300                                             
     0     -4.1331431     23  2.300                                             
     0      7.6656591     23  2.300                                             
     3      9.5240782     23  2.300                                             
  local pseudopotential read in
  partial core-charges read in
  partial kinetic energy density read in
  atomic valenz-charges read in
  non local Contribution for L=           1  read in
    real space projection operators read in
  non local Contribution for L=           1  read in
    real space projection operators read in
  non local Contribution for L=           2  read in
    real space projection operators read in
  non local Contribution for L=           2  read in
    real space projection operators read in
  non local Contribution for L=           0  read in
    real space projection operators read in
  non local Contribution for L=           0  read in
    real space projection operators read in
    PAW grid and wavefunctions read in
 
   number of l-projection  operators is LMAX  =           6
   number of lm-projection operators is LMMAX =          18
 
 POTCAR:    PAW_PBE O 08Apr2002                   
   VRHFIN =O: s2p4                                                              
   LEXCH  = PE                                                                  
   EATOM  =   432.3788 eV,   31.7789 Ry                                         
                                                                                
   TITEL  = PAW_PBE O 08Apr2002                                                 
   LULTRA =        F    use ultrasoft PP ?                                      
   IUNSCR =        1    unscreen: 0-lin 1-nonlin 2-no                           
   RPACOR =    1.200    partial core radius                                     
   POMASS =   16.000; ZVAL   =    6.000    mass and valenz                      
   RCORE  =    1.520    outmost cutoff radius                                   
   RWIGS  =    1.550; RWIGS  =    0.820    wigner-seitz radius (au A)           
   ENMAX  =  400.000; ENMIN  =  300.000 eV                                      
   ICORE  =        2    local potential                                         
   LCOR   =        T    correct aug charges                                     
   LPAW   =        T    paw PP                                                  
   EAUG   =  605.392                                                            
   DEXC   =    0.000                                                            
   RMAX   =    1.553    core radius for proj-oper                               
   RAUG   =    1.300    factor for augmentation sphere                          
   RDEP   =    1.550    radius for radial grids                                 
   RDEPT  =    1.329    core radius for aug-charge                              
                                                                                
   Atomic configuration                                                         
    4 entries                                                                   
     n  l   j            E        occ.                                          
     1  0  0.50      -514.6923   2.0000                                         
     2  0  0.50       -23.9615   2.0000                                         
     2  1  0.50        -9.0305   4.0000                                         
     3  2  1.50        -9.5241   0.0000                                         
   Description                                                                  
     l       E           TYP  RCUT    TYP  RCUT                                 
     0    -23.9615318     23  1.200                                             
     0     -9.5240782     23  1.200                                             
     1     -9.0304911     23  1.520                                             
     1      8.1634956     23  1.520                                             
     2     -9.5240782      7  1.500                                             
  local pseudopotential read in
  partial core-charges read in
  partial kinetic energy density read in
  kinetic energy density of atom read in
  atomic valenz-charges read in
  non local Contribution for L=           0  read in
    real space projection operators read in
  non local Contribution for L=           0  read in
    real space projection operators read in
  non local Contribution for L=           1  read in
    real space projection operators read in
  non local Contribution for L=           1  read in
    real space projection operators read in
    PAW grid and wavefunctions read in
 
   number of l-projection  operators is LMAX  =           4
   number of lm-projection operators is LMMAX =           8
 
 Optimization of the real space projectors (new method)

 maximal supplied QI-value         = 17.01
 optimisation between [QCUT,QGAM] = [ 10.20, 20.41] = [ 29.16,116.64] Ry 
 Optimized for a Real-space Cutoff    1.30 Angstroem

   l    n(q)    QCUT    max X(q) W(low)/X(q) W(high)/X(q)  e(spline) 
   1      7    10.205     4.940    0.23E-03    0.84E-03    0.11E-06
   1      7    10.205     6.253    0.40E-03    0.13E-02    0.18E-06
   0      8    10.205    37.438    0.23E-03    0.37E-03    0.42E-07
   0      8    10.205     9.606    0.16E-03    0.26E-03    0.31E-07
 Optimization of the real space projectors (new method)

 maximal supplied QI-value         = 18.90
 optimisation between [QCUT,QGAM] = [ 10.20, 20.41] = [ 29.16,116.64] Ry 
 Optimized for a Real-space Cutoff    1.26 Angstroem

   l    n(q)    QCUT    max X(q) W(low)/X(q) W(high)/X(q)  e(spline) 
   1      7    10.205     2.974    0.63E-04    0.14E-03    0.13E-06
   1      7    10.205     4.279    0.11E-03    0.45E-03    0.24E-06
   0      8    10.205    16.381    0.44E-03    0.15E-03    0.55E-07
   0      8    10.205     5.611    0.31E-03    0.11E-03    0.40E-07
   2      7    10.205     4.652    0.50E-03    0.47E-03    0.57E-07
 Optimization of the real space projectors (new method)

 maximal supplied QI-value         = 16.25
 optimisation between [QCUT,QGAM] = [ 10.24, 20.48] = [ 29.35,117.42] Ry 
 Optimized for a Real-space Cutoff    1.34 Angstroem

   l    n(q)    QCUT    max X(q) W(low)/X(q) W(high)/X(q)  e(spline) 
   1      8    10.239     3.658    0.23E-03    0.30E-03    0.98E-07
   1      8    10.239     5.612    0.32E-03    0.65E-03    0.21E-06
   2      7    10.239    55.373    0.42E-03    0.45E-03    0.65E-07
   2      7    10.239    50.863    0.43E-03    0.48E-03    0.67E-07
   0      8    10.239    79.536    0.11E-03    0.21E-03    0.56E-07
   0      8    10.239    38.668    0.96E-04    0.19E-03    0.52E-07
 Optimization of the real space projectors (new method)

 maximal supplied QI-value         = 24.76
 optimisation between [QCUT,QGAM] = [ 10.15, 20.30] = [ 28.85,115.39] Ry 
 Optimized for a Real-space Cutoff    1.38 Angstroem

   l    n(q)    QCUT    max X(q) W(low)/X(q) W(high)/X(q)  e(spline) 
   0      8    10.150    20.381    0.22E-03    0.32E-03    0.29E-06
   0      8    10.150    15.268    0.23E-03    0.35E-03    0.30E-06
   1      8    10.150     5.964    0.46E-03    0.53E-03    0.21E-06
   1      8    10.150     5.382    0.38E-03    0.45E-03    0.19E-06
  PAW_PBE Na_pv 19Sep2006               :
 energy of atom  1       EATOM= -766.0439
 kinetic energy error for atom=    0.0103 (will be added to EATOM!!)
  PAW_PBE Mg_pv 13Apr2007               :
 energy of atom  2       EATOM=-1056.7344
 kinetic energy error for atom=    0.0820 (will be added to EATOM!!)
  PAW_PBE Mn_pv 02Aug2007               :
 energy of atom  3       EATOM=-2025.2664
 kinetic energy error for atom=    0.0284 (will be added to EATOM!!)
  PAW_PBE O 08Apr2002                   :
 energy of atom  4       EATOM= -432.3788
 kinetic energy error for atom=    0.1156 (will be added to EATOM!!)
 
 
 POSCAR: Na Mg Mn  O                             
  positions in cartesian coordinates
  No initial velocities read in

 METAGGA = SCAN     LMAXTAU =  6    LMIXTAU =  F

 exchange correlation table for  LEXCH =        8
   RHO(1)=    0.500       N(1)  =     2000
   RHO(2)=  100.500       N(2)  =     4000

 VTST: version 3.2, (02/03/18)

 CHAIN: initializing optimizer
 
 OPT: Using VASP Dynamics algorithm
 CHAIN: Read ICHAIN            0
 
 POSCAR: Na Mg Mn  O                             
  positions in cartesian coordinates
  No initial velocities read in
 


--------------------------------------------------------------------------------------------------------


 ion  position               nearest neighbor table
   1  0.523  0.936  0.245-  42 2.35  29 2.86  31 2.97
   2  0.674  0.119  0.763-  49 2.25
   3  0.384  0.625  0.749-  81 2.23  85 2.28  82 2.30  40 2.80  38 2.95
   4  0.201  0.121  0.749-  48 2.37
   5  0.716  0.424  0.258-  66 2.27  75 2.29
   6  0.349  0.131  0.239-  43 2.18  41 2.34  50 2.37  26 2.75  28 2.95
   7  0.526  0.431  0.753-  48 2.33  71 2.35  33 2.80  35 2.80
   8  0.878  0.583  0.743-  68 2.24  73 2.26  70 2.32  36 2.77  34 2.91
   9  0.851  0.188  0.256-  64 2.21  62 2.29  53 2.34  55 2.35  32 2.94
  10  0.542  0.620  0.251-  79 2.36
  11  0.186  0.425  0.248-  86 2.26
  12  0.291  0.869  0.749-  84 2.29  47 2.29  81 2.35  44 2.36
  13  0.830  0.894  0.748-  72 2.27  69 2.29
  14  0.032  0.302  0.748-  80 2.34  60 2.37
  15  0.077  0.650  0.253-  76 2.23  77 2.30  86 2.31
  16  0.974  0.896  0.235-  54 2.22  67 2.24  25 2.82
  17  0.690  0.265  0.006-  53 1.97  60 2.02  49 2.08  43 2.12  66 2.13  71 2.13  30 2.78  37 2.83

  18  0.683  0.272  0.504-  52 1.96  68 2.03  57 2.08  75 2.10  46 2.11  62 2.12  35 2.82  28 2.83

  19  0.190  0.271  0.999-  41 1.98  83 2.03  55 2.03  48 2.07  78 2.10  61 2.10
  20  0.194  0.265  0.491-  80 1.98  64 2.02  50 2.02  87 2.08  45 2.08  58 2.14  39 2.81  27 2.81
                            28 2.84
  21  0.188  0.767  0.005-  77 1.99  84 2.00  67 2.02  42 2.06  73 2.10  47 2.13
  22  0.202  0.763  0.484-  51 1.96  76 2.03  70 2.04  86 2.04  81 2.07  44 2.24  40 2.83  31 2.84

  23  0.690  0.763  0.003-  54 1.98  79 2.04  72 2.06  65 2.07  59 2.10  85 2.11  34 2.84
  24  0.705  0.774  0.510-  63 1.95  69 2.04  74 2.06  88 2.07  82 2.10  56 2.12  32 2.83  27 2.83

  25  0.029  0.941  0.988-  41 1.84  47 1.89  61 1.89  67 1.96  72 1.97  54 2.01  26 2.82  16 2.82
                            34 2.92  30 2.97
  26  0.353  0.098  0.995-  49 1.85  47 1.89  41 1.90  42 1.92  48 1.96  43 1.97   6 2.75  25 2.82
                            33 2.87  29 2.90
  27  0.032  0.941  0.502-  44 1.84  50 1.84  63 1.88  58 1.93  69 1.99  76 2.03  20 2.81  28 2.82
                            24 2.83  36 2.88  32 2.92
  28  0.357  0.100  0.500-  46 1.89  51 1.91  44 1.93  45 1.93  50 1.98  52 1.98  27 2.82  18 2.83
                            20 2.84  31 2.91   6 2.95  35 2.98
  29  0.522  0.933  0.990-  84 1.86  59 1.89  49 1.91  42 1.98  53 1.98  79 2.04  30 2.84   1 2.86
                            38 2.88  26 2.90
  30  0.849  0.103  0.000-  53 1.83  54 1.91  55 1.92  59 1.93  60 2.01  61 2.04  17 2.78  29 2.84
                            37 2.88  25 2.97
  31  0.527  0.935  0.510-  56 1.85  62 1.89  88 1.93  51 1.95  46 1.98  81 1.99  22 2.84  32 2.84
                            28 2.91  40 2.95   1 2.97
  32  0.854  0.099  0.506-  57 1.81  56 1.85  62 1.90  58 1.90  63 1.96  64 1.97  24 2.83  39 2.84
                            31 2.84  27 2.92   9 2.94
  33  0.520  0.429  0.002-  43 1.86  48 1.89  78 1.91  71 1.93  85 1.98  65 2.00   7 2.80  26 2.87
                            34 2.94  38 2.96
  34  0.859  0.605  0.001-  67 1.85  73 1.86  72 1.93  71 1.94  65 1.95  66 1.99  23 2.84  37 2.84
                             8 2.91  25 2.92  33 2.94
  35  0.530  0.443  0.503-  74 1.83  82 1.86  45 1.93  52 1.98  87 1.99  68 2.03  40 2.80   7 2.80
                            18 2.82  36 2.95  28 2.98
  36  0.869  0.609  0.498-  75 1.90  69 1.92  70 1.92  68 1.97  76 1.98  74 2.01   8 2.77  27 2.88
                            35 2.95  39 2.99
  37  0.016  0.435  0.003-  60 1.87  73 1.88  66 1.89  55 1.90  77 1.90  83 2.03  17 2.83  34 2.84
                            30 2.88  38 2.92
  38  0.352  0.602  0.011-  83 1.85  79 1.87  78 1.88  77 1.91  85 2.01  84 2.04  29 2.88  37 2.92
                             3 2.95  33 2.96
  39  0.032  0.426  0.499-  64 1.88  80 1.89  57 1.91  75 1.94  70 1.94  86 1.97  20 2.81  32 2.84
                            40 2.85  36 2.99
  40  0.359  0.596  0.500-  87 1.87  80 1.92  81 1.92  82 1.95  88 1.95  86 1.95  35 2.80   3 2.80
                            22 2.83  39 2.85  31 2.95
  41  0.185  0.092  0.078-  25 1.84  26 1.90  19 1.98   6 2.34
  42  0.370  0.949  0.092-  26 1.92  29 1.98  21 2.06   1 2.35
  43  0.506  0.269  0.095-  33 1.86  26 1.97  17 2.12   6 2.18
  44  0.187  0.944  0.591-  27 1.84  28 1.93  22 2.24  12 2.36
  45  0.373  0.271  0.591-  35 1.93  28 1.93  20 2.08
  46  0.503  0.091  0.601-  28 1.89  31 1.98  18 2.11
  47  0.193  0.947  0.901-  25 1.89  26 1.89  21 2.13  12 2.29
  48  0.369  0.272  0.905-  33 1.89  26 1.96  19 2.07   7 2.33   4 2.37
  49  0.508  0.093  0.909-  26 1.85  29 1.91  17 2.08   2 2.25
  50  0.184  0.083  0.404-  27 1.84  28 1.98  20 2.02   6 2.37
  51  0.373  0.947  0.411-  28 1.91  31 1.95  22 1.96
  52  0.519  0.272  0.407-  18 1.96  28 1.98  35 1.98
  53  0.691  0.092  0.089-  30 1.83  17 1.97  29 1.98   9 2.34
  54  0.861  0.944  0.084-  30 1.91  23 1.98  25 2.01  16 2.22
  55  0.012  0.269  0.088-  37 1.90  30 1.92  19 2.03   9 2.35
  56  0.692  0.955  0.597-  31 1.85  32 1.85  24 2.12
  57  0.865  0.263  0.584-  32 1.81  39 1.91  18 2.08
  58  0.011  0.092  0.596-  32 1.90  27 1.93  20 2.14
  59  0.689  0.942  0.905-  29 1.89  30 1.93  23 2.10
  60  0.866  0.281  0.906-  37 1.87  30 2.01  17 2.02  14 2.37
  61  0.013  0.093  0.899-  25 1.89  30 2.04  19 2.10
  62  0.688  0.087  0.415-  31 1.89  32 1.90  18 2.12   9 2.29
  63  0.869  0.939  0.417-  27 1.88  24 1.95  32 1.96
  64  0.016  0.262  0.406-  39 1.88  32 1.97  20 2.02   9 2.21
  65  0.692  0.589  0.100-  34 1.95  33 2.00  23 2.07
  66  0.871  0.449  0.102-  37 1.89  34 1.99  17 2.13   5 2.27
  67  0.009  0.770  0.085-  34 1.85  25 1.96  21 2.02  16 2.24
  68  0.705  0.453  0.600-  36 1.97  18 2.03  35 2.03   8 2.24
  69  0.878  0.766  0.600-  36 1.92  27 1.99  24 2.04  13 2.29
  70  0.029  0.595  0.582-  36 1.92  39 1.94  22 2.04   8 2.32
  71  0.690  0.447  0.908-  33 1.93  34 1.94  17 2.13   7 2.35
  72  0.863  0.765  0.902-  34 1.93  25 1.97  23 2.06  13 2.27
  73  0.004  0.586  0.912-  34 1.86  37 1.88  21 2.10   8 2.26
  74  0.685  0.590  0.412-  35 1.83  36 2.01  24 2.06
  75  0.874  0.447  0.414-  36 1.90  39 1.94  18 2.10   5 2.29
  76  0.029  0.774  0.398-  36 1.98  22 2.03  27 2.03  15 2.23
  77  0.181  0.591  0.093-  37 1.90  38 1.91  21 1.99  15 2.30
  78  0.371  0.450  0.094-  38 1.88  33 1.91  19 2.10
  79  0.514  0.762  0.095-  38 1.87  23 2.04  29 2.04  10 2.36
  80  0.195  0.431  0.588-  39 1.89  40 1.92  20 1.98  14 2.34
  81  0.361  0.755  0.596-  40 1.92  31 1.99  22 2.07   3 2.23  12 2.35
  82  0.518  0.591  0.597-  35 1.86  40 1.95  24 2.10   3 2.30
  83  0.200  0.454  0.913-  38 1.85  19 2.03  37 2.03
  84  0.358  0.774  0.909-  29 1.86  21 2.00  38 2.04  12 2.29
  85  0.506  0.587  0.905-  33 1.98  38 2.01  23 2.11   3 2.28
  86  0.196  0.581  0.397-  40 1.95  39 1.97  22 2.04  11 2.26  15 2.31
  87  0.370  0.451  0.401-  40 1.87  35 1.99  20 2.08
  88  0.525  0.772  0.417-  31 1.93  40 1.95  24 2.07
 
  LATTYP: Found a hexagonal cell.
 ALAT       =    10.0190000534
 C/A-ratio  =     1.1196726572
  
  Lattice vectors:
  
 A1 = (  10.0190000534,   0.0000000000,   0.0000000000)
 A2 = (  -5.0095000267,   8.6767085668,   0.0000000000)
 A3 = (   0.0000000000,   0.0000000000,  11.2180004120)


Analysis of symmetry for initial positions (statically):
=====================================================================
 Subroutine PRICEL returns:
 Original cell was already a primitive cell.
 

 Routine SETGRP: Setting up the symmetry group for a 
 hexagonal supercell.


 Subroutine GETGRP returns: Found  1 space group operations
 (whereof  1 operations were pure point group operations)
 out of a pool of 24 trial point group operations.


The static configuration has the point symmetry C_1 .


Analysis of symmetry for dynamics (positions and initial velocities):
=====================================================================
 Subroutine PRICEL returns:
 Original cell was already a primitive cell.
 

 Routine SETGRP: Setting up the symmetry group for a 
 hexagonal supercell.


 Subroutine GETGRP returns: Found  1 space group operations
 (whereof  1 operations were pure point group operations)
 out of a pool of 24 trial point group operations.


The dynamic configuration has the point symmetry C_1 .


Analysis of structural, dynamic, and magnetic symmetry:
=====================================================================
 Subroutine PRICEL returns:
 Original cell was already a primitive cell.
 

 Routine SETGRP: Setting up the symmetry group for a 
 hexagonal supercell.


 Subroutine GETGRP returns: Found  1 space group operations
 (whereof  1 operations were pure point group operations)
 out of a pool of 24 trial point group operations.


The magnetic configuration has the point symmetry C_1 .


 Subroutine INISYM returns: Found  1 space group operations
 (whereof  1 operations are pure point group operations),
 and found     1 'primitive' translations

 
 

Automatic generation of k-mesh.
 generate k-points for:    2    2    2
Space group operators:
 irot       det(A)        alpha          n_x          n_y          n_z        tau_x        tau_y        tau_z
    1     1.000000     0.000000     1.000000     0.000000     0.000000     0.000000     0.000000     0.000000
 
 Subroutine IBZKPT returns following result:
 ===========================================
 
 Found      8 irreducible k-points:
 
 Following reciprocal coordinates:
            Coordinates               Weight
  0.000000  0.000000  0.000000      1.000000
  0.500000 -0.000000 -0.000000      1.000000
  0.000000  0.500000  0.000000      1.000000
  0.500000  0.500000 -0.000000      1.000000
  0.000000  0.000000  0.500000      1.000000
  0.500000 -0.000000  0.500000      1.000000
  0.000000  0.500000  0.500000      1.000000
  0.500000  0.500000  0.500000      1.000000
 
 Following cartesian coordinates:
            Coordinates               Weight
  0.000000  0.000000  0.000000      1.000000
  0.049905  0.028813 -0.000000      1.000000
  0.000000  0.057626  0.000000      1.000000
  0.049905  0.086438 -0.000000      1.000000
  0.000000  0.000000  0.044571      1.000000
  0.049905  0.028813  0.044571      1.000000
  0.000000  0.057626  0.044571      1.000000
  0.049905  0.086438  0.044571      1.000000
 


--------------------------------------------------------------------------------------------------------




 Dimension of arrays:
   k-points           NKPTS =      8   k-points in BZ     NKDIM =      8   number of bands    NBANDS=    480
   number of dos      NEDOS =    301   number of ions     NIONS =     88
   non local maximal  LDIM  =      6   non local SUM 2l+1 LMDIM =     18
   total plane-waves  NPLWV = 140000
   max r-space proj   IRMAX =   1632   max aug-charges    IRDMAX=   4555
   dimension x,y,z NGX =    50 NGY =   50 NGZ =   56
   dimension x,y,z NGXF=   100 NGYF=  100 NGZF=  112
   support grid    NGXF=   100 NGYF=  100 NGZF=  112
   ions per type =              16   8  16  48
   NGX,Y,Z   is equivalent  to a cutoff of   8.30,  8.30,  8.30 a.u.
   NGXF,Y,Z  is equivalent  to a cutoff of  16.59, 16.59, 16.60 a.u.

 SYSTEM =  unknown system                          
 POSCAR =  Na Mg Mn  O                             

 Startparameter for this run:
   NWRITE =      2    write-flag & timer
   PREC   = normal    normal or accurate (medium, high low for compatibility)
   ISTART =      0    job   : 0-new  1-cont  2-samecut
   ICHARG =      1    charge: 1-file 2-atom 10-const
   ISPIN  =      2    spin polarized calculation?
   LNONCOLLINEAR =      F non collinear calculations
   LSORBIT =      F    spin-orbit coupling
   INIWAV =      1    electr: 0-lowe 1-rand  2-diag
   LASPH  =      T    aspherical Exc in radial PAW
   METAGGA=      F    non-selfconsistent MetaGGA calc.

 Electronic Relaxation 1
   ENCUT  =  400.0 eV  29.40 Ry    5.42 a.u.  16.34 16.34 18.29*2*pi/ulx,y,z
   ENINI  =  400.0     initial cutoff
   ENAUG  =  758.8 eV  augmentation charge cutoff
   NELM   =    200;   NELMIN=  6; NELMDL=-12     # of ELM steps 
   EDIFF  = 0.1E-04   stopping-criterion for ELM
   LREAL  =      T    real-space projection
   NLSPLINE    = F    spline interpolate recip. space projectors
   LCOMPAT=      F    compatible to vasp.4.4
   GGA_COMPAT  = T    GGA compatible to vasp.4.4-vasp.4.6
   LMAXPAW     = -100 max onsite density
   LMAXMIX     =    4 max onsite mixed and CHGCAR
   VOSKOWN=      0    Vosko Wilk Nusair interpolation
   ROPT   =   -0.00050  -0.00050  -0.00050  -0.00050
 Ionic relaxation
   EDIFFG = 0.1E-03   stopping-criterion for IOM
   NSW    =      1    number of steps for IOM
   NBLOCK =      1;   KBLOCK =      1    inner block; outer block 
   IBRION =     -1    ionic relax: 0-MD 1-quasi-New 2-CG
   NFREE  =      0    steps in history (QN), initial steepest desc. (CG)
   ISIF   =      2    stress and relaxation
   IWAVPR =     10    prediction:  0-non 1-charg 2-wave 3-comb
   ISYM   =      2    0-nonsym 1-usesym 2-fastsym
   LCORR  =      T    Harris-Foulkes like correction to forces

   POTIM  = 0.5000    time-step for ionic-motion
   TEIN   =    0.0    initial temperature
   TEBEG  =    0.0;   TEEND  =   0.0 temperature during run
   SMASS  =  -3.00    Nose mass-parameter (am)
   estimated Nose-frequenzy (Omega)   =  0.10E-29 period in steps =****** mass=  -0.229E-26a.u.
   SCALEE = 1.0000    scale energy and forces
   NPACO  =    256;   APACO  = 16.0  distance and # of slots for P.C.
   PSTRESS=    0.0 pullay stress

  Mass of Ions in am
   POMASS =  22.99 24.30 54.94 16.00
  Ionic Valenz
   ZVAL   =   7.00  8.00 13.00  6.00
  Atomic Wigner-Seitz radii
   RWIGS  =  -1.00 -1.00 -1.00 -1.00
  virtual crystal weights 
   VCA    =   1.00  1.00  1.00  1.00
   NELECT =     672.0000    total number of electrons
   NUPDOWN=      48.0000    fix difference up-down

 DOS related values:
   EMIN   =  10.00;   EMAX   =-10.00  energy-range for DOS
   EFERMI =   0.00
   ISMEAR =     0;   SIGMA  =   0.05  broadening in eV -4-tet -1-fermi 0-gaus

 Electronic relaxation 2 (details)
   IALGO  =     48    algorithm
   LDIAG  =      T    sub-space diagonalisation (order eigenvalues)
   LSUBROT=      F    optimize rotation matrix (better conditioning)
   TURBO    =      0    0=normal 1=particle mesh
   IRESTART =      0    0=no restart 2=restart with 2 vectors
   NREBOOT  =      0    no. of reboots
   NMIN     =      0    reboot dimension
   EREF     =   0.00    reference energy to select bands
   IMIX   =      4    mixing-type and parameters
     AMIX     =   0.40;   BMIX     =  1.00
     AMIX_MAG =   1.60;   BMIX_MAG =  1.00
     AMIN     =   0.10
     WC   =   100.;   INIMIX=   1;  MIXPRE=   1;  MAXMIX= -45

 Intra band minimization:
   WEIMIN = 0.0000     energy-eigenvalue tresh-hold
   EBREAK =  0.52E-08  absolut break condition
   DEPER  =   0.30     relativ break condition  

   TIME   =   0.40     timestep for ELM

  volume/ion in A,a.u.               =      11.08        74.78
  Fermi-wavevector in a.u.,A,eV,Ry     =   1.445993  2.732531 28.448379  2.090897
  Thomas-Fermi vector in A             =   2.564112
 
 Write flags
   LWAVE        =      F    write WAVECAR
   LDOWNSAMPLE  =      F    k-point downsampling of WAVECAR
   LCHARG       =      F    write CHGCAR
   LVTOT        =      F    write LOCPOT, total local potential
   LVHAR        =      F    write LOCPOT, Hartree potential only
   LELF         =      F    write electronic localiz. function (ELF)
   LORBIT       =     11    0 simple, 1 ext, 2 COOP (PROOUT), +10 PAW based schemes


 Dipole corrections
   LMONO  =      F    monopole corrections only (constant potential shift)
   LDIPOL =      F    correct potential (dipole corrections)
   IDIPOL =      0    1-x, 2-y, 3-z, 4-all directions 
   EPSILON=  1.0000000 bulk dielectric constant

 Exchange correlation treatment:
   GGA     =    --    GGA type
   LEXCH   =     8    internal setting for exchange type
   VOSKOWN=      0    Vosko Wilk Nusair interpolation
   LHFCALC =     F    Hartree Fock is set to
   LHFONE  =     F    Hartree Fock one center treatment
   AEXX    =    0.0000 exact exchange contribution

 Linear response parameters
   LEPSILON=     F    determine dielectric tensor
   LRPA    =     F    only Hartree local field effects (RPA)
   LNABLA  =     F    use nabla operator in PAW spheres
   LVEL    =     F    velocity operator in full k-point grid
   LINTERFAST=   F  fast interpolation
   KINTER  =     0    interpolate to denser k-point grid
   CSHIFT  =0.1000    complex shift for real part using Kramers Kronig
   OMEGAMAX=  -1.0    maximum frequency
   DEG_THRESHOLD= 0.2000000E-02 threshold for treating states as degnerate
   RTIME   =   -0.100 relaxation time in fs
  (WPLASMAI=    0.000 imaginary part of plasma frequency in eV, 0.658/RTIME)
   DFIELD  = 0.0000000 0.0000000 0.0000000 field for delta impulse in time
 
 Orbital magnetization related:
   ORBITALMAG=     F  switch on orbital magnetization
   LCHIMAG   =     F  perturbation theory with respect to B field
   DQ        =  0.001000  dq finite difference perturbation B field
   LLRAUG    =     F  two centre corrections for induced B field



--------------------------------------------------------------------------------------------------------


 Static calculation
 charge density and potential will be updated during run
 spin polarized calculation
 RMM-DIIS sequential band-by-band
 perform sub-space diagonalisation
    before iterative eigenvector-optimisation
 modified Broyden-mixing scheme, WC =      100.0
 initial mixing is a Kerker type mixing with AMIX =  0.4000 and BMIX =      1.0000
 Hartree-type preconditioning will be used
 using additional bands          144
 real space projection scheme for non local part
 use partial core corrections
 calculate Harris-corrections to forces 
   (improved forces if not selfconsistent)
 use gradient corrections 
 use of overlap-Matrix (Vanderbilt PP)
 Gauss-broadening in eV      SIGMA  =   0.05


--------------------------------------------------------------------------------------------------------


  energy-cutoff  :      400.00
  volume of cell :      975.20
      direct lattice vectors                 reciprocal lattice vectors
    10.019000053  0.000000000  0.000000000     0.099810360  0.057625538 -0.000000000
    -5.009500027  8.676708567  0.000000000     0.000000000  0.115251076  0.000000000
     0.000000000  0.000000000 11.218000412     0.000000000  0.000000000  0.089142446

  length of vectors
    10.019000053 10.019000053 11.218000412     0.115251076  0.115251076  0.089142446


 
 k-points in units of 2pi/SCALE and weight: read from INCAR                         
   0.00000000  0.00000000  0.00000000       0.125
   0.04990518  0.02881277 -0.00000000       0.125
   0.00000000  0.05762554  0.00000000       0.125
   0.04990518  0.08643831 -0.00000000       0.125
   0.00000000  0.00000000  0.04457122       0.125
   0.04990518  0.02881277  0.04457122       0.125
   0.00000000  0.05762554  0.04457122       0.125
   0.04990518  0.08643831  0.04457122       0.125
 
 k-points in reciprocal lattice and weights: read from INCAR                         
   0.00000000  0.00000000  0.00000000       0.125
   0.50000000 -0.00000000 -0.00000000       0.125
   0.00000000  0.50000000  0.00000000       0.125
   0.50000000  0.50000000 -0.00000000       0.125
   0.00000000  0.00000000  0.50000000       0.125
   0.50000000 -0.00000000  0.50000000       0.125
   0.00000000  0.50000000  0.50000000       0.125
   0.50000000  0.50000000  0.50000000       0.125
 
 position of ions in fractional coordinates (direct lattice) 
   0.52255264  0.93621215  0.24484667
   0.67351470  0.11942185  0.76286323
   0.38397197  0.62510932  0.74872791
   0.20052186  0.12077621  0.74902208
   0.71564219  0.42363892  0.25819129
   0.34927871  0.13148287  0.23856836
   0.52581832  0.43083618  0.75267781
   0.87844117  0.58291887  0.74349525
   0.85089597  0.18765081  0.25623372
   0.54167787  0.62022169  0.25132732
   0.18587835  0.42464062  0.24759404
   0.29117186  0.86896315  0.74878229
   0.83046812  0.89395551  0.74787393
   0.03224196  0.30155345  0.74795059
   0.07698098  0.65042867  0.25336601
   0.97377166  0.89630070  0.23548938
   0.68977789  0.26453234  0.00597658
   0.68253240  0.27171017  0.50355142
   0.18961932  0.27070864  0.99886508
   0.19419321  0.26467986  0.49100373
   0.18795545  0.76721143  0.00524154
   0.20150443  0.76312463  0.48392403
   0.68981553  0.76346577  0.00276760
   0.70517695  0.77403891  0.50951950
   0.02905536  0.94123479  0.98799893
   0.35334054  0.09833095  0.99519736
   0.03164177  0.94085216  0.50204937
   0.35664489  0.09960978  0.49995808
   0.52223636  0.93279611  0.99023887
   0.84899516  0.10300081  0.00040110
   0.52672693  0.93504005  0.50958814
   0.85421244  0.09942399  0.50606256
   0.51998673  0.42878471  0.00220714
   0.85860357  0.60546346  0.00073576
   0.52974603  0.44321300  0.50284719
   0.86927132  0.60852568  0.49827329
   0.01571840  0.43498407  0.00289048
   0.35164855  0.60158296  0.01054154
   0.03153796  0.42595645  0.49885985
   0.35949609  0.59557607  0.50010606
   0.18468209  0.09194327  0.07813942
   0.36981741  0.94927650  0.09162328
   0.50551343  0.26850965  0.09535746
   0.18693997  0.94375517  0.59126224
   0.37255587  0.27080891  0.59065963
   0.50306833  0.09082776  0.60076393
   0.19260862  0.94671839  0.90072202
   0.36870224  0.27240399  0.90470669
   0.50805161  0.09257393  0.90933318
   0.18372369  0.08315953  0.40356925
   0.37324402  0.94679745  0.41067390
   0.51940557  0.27203403  0.40684880
   0.69055672  0.09155361  0.08871430
   0.86121219  0.94353827  0.08381164
   0.01228878  0.26891534  0.08760376
   0.69177416  0.95458335  0.59722230
   0.86525213  0.26304445  0.58402654
   0.01144732  0.09162207  0.59586109
   0.68939098  0.94162856  0.90455515
   0.86573539  0.28137398  0.90609731
   0.01272318  0.09281238  0.89885003
   0.68770152  0.08685529  0.41529594
   0.86940532  0.93930971  0.41748795
   0.01560023  0.26230338  0.40630414
   0.69171066  0.58925224  0.10030665
   0.87052454  0.44899399  0.10231503
   0.00910468  0.77010078  0.08546015
   0.70529985  0.45293327  0.60011319
   0.87790732  0.76619492  0.60008645
   0.02871908  0.59456762  0.58228470
   0.69022416  0.44694598  0.90827239
   0.86269894  0.76536396  0.90155105
   0.00448750  0.58646778  0.91193614
   0.68481342  0.59049119  0.41186217
   0.87447282  0.44736664  0.41360401
   0.02861141  0.77359173  0.39757709
   0.18053598  0.59113084  0.09328311
   0.37103798  0.44968550  0.09379301
   0.51361191  0.76174623  0.09490729
   0.19489665  0.43100560  0.58754678
   0.36104393  0.75535325  0.59630681
   0.51843629  0.59055458  0.59677659
   0.20008299  0.45382762  0.91349613
   0.35849889  0.77386833  0.90864678
   0.50622920  0.58688499  0.90514349
   0.19579257  0.58125497  0.39685950
   0.37049555  0.45093021  0.40139150
   0.52460562  0.77156677  0.41702619
 
 position of ions in cartesian coordinates  (Angst):
   0.54550011  8.12324000  2.74669000
   6.14970003  1.03618857  8.55780000
   0.71552997  5.42389143  8.39923000
   1.40400005  1.04794000  8.40253000
   5.04779997  3.67579143  2.89639000
   2.84075997  1.14083857  2.67626000
   3.10989989  3.73824000  8.44354000
   5.88097005  5.05781713  8.34053000
   7.58509003  1.62819143  2.87443000
   2.32007000  5.38148287  2.81939000
  -0.26492200  3.68448287  2.77751000
  -1.43582000  7.53974000  8.39984000
   3.84219003  7.75659143  8.38965000
  -1.18759981  2.61649143  8.39051000
  -2.48705000  5.64358000  2.84226000
   5.26619995  7.77694000  2.64172000
   5.58571000  2.29527000  0.06704530
   5.47716000  2.35755000  5.64884000
   0.54368100  2.34886000 11.20526891
   0.61970800  2.29655000  5.50808000
  -1.96022000  6.65687000  0.05879959
  -1.80400000  6.62141000  5.42866000
   3.08668000  6.62437000  0.03104690
   3.18762000  6.71611000  5.71579000
  -4.42401005  8.16682000 11.08337241
   3.04753000  0.85318900 11.16412441
  -4.39618005  8.16350000  5.63199000
   3.07423000  0.86428500  5.60853000
   0.55944400  8.09360000 11.10850000
   7.99010000  0.89370800  0.00449959
   0.59319400  8.11307000  5.71656000
   8.06029000  0.86267300  5.67701000
   3.06175000  3.72044000  0.02475970
   5.56928000  5.25343000  0.00825379
   3.08725000  3.84563000  5.64094000
   5.66082000  5.28000000  5.58963000
  -2.02157005  3.77423000  0.03242540
   0.50953700  5.21976000  0.11825500
  -1.81785005  3.69590000  5.59621000
   0.61825300  5.16764000  5.61019000
   1.38974000  0.79776500  0.87656800
  -1.05020003  8.23659557  1.02783000
   3.71964000  2.32978000  1.06972000
  -2.85479003  8.18868857  6.63278000
   2.37602000  2.34973000  6.62602000
   4.58524000  0.78808600  6.73937000
  -2.81284003  8.21439957 10.10430000
   2.32942000  2.36357000 10.14900000
   4.62642000  0.80323700 10.20090000
   1.42414000  0.72155100  4.52724000
  -1.00345003  8.21508557  4.60694000
   3.84117000  2.36036000  4.56403000
   6.46005000  0.79438400  0.99519700
   3.90182997  8.18680657  0.94019900
  -1.22401005  2.33330000  0.98273900
   2.14889997  8.28264157  6.69964000
   7.35124000  2.28236000  6.55161000
  -0.34429005  0.79497800  6.68437000
   2.18991997  8.17023657 10.14730000
   7.26426000  2.44140000 10.16460000
  -0.33747005  0.80530600 10.08330000
   6.45498000  0.75361800  4.65879000
   4.00509997  8.15011657  4.68338000
  -1.15771005  2.27593000  4.55792000
   3.97839000  5.11277000  1.12524000
   6.47255000  3.89579000  1.14777000
  -3.76660005  6.68194000  0.95869200
   4.79743000  3.92997000  6.73207000
   4.95750000  6.64805000  6.73177000
  -2.69075005  5.15889000  6.53207000
   4.67638000  3.87802000 10.18900000
   4.80929000  6.64084000 10.11360000
  -2.89295005  5.08861000 10.23010000
   3.90308000  5.12352000  4.62027000
   6.52026000  3.88167000  4.63981000
  -3.58865005  6.71223000  4.46002000
  -1.15248000  5.12907000  1.04645000
   1.46473000  3.90179000  1.05217000
   1.32991000  6.60945000  1.06467000
  -0.20645300  3.73971000  6.59110000
  -0.16664300  6.55398000  6.68937000
   2.23583000  5.12407000  6.69464000
  -0.26881800  3.93773000 10.24760000
  -0.28489300  6.71463000 10.19320000
   2.13191000  5.09223000 10.15390000
  -0.95015100  5.04338000  4.45197000
   1.45306000  3.91259000  4.50281000
   1.39086000  6.69466000  4.67820000
 


--------------------------------------------------------------------------------------------------------


 k-point  1 :   0.0000 0.0000 0.0000  plane waves:   17725
 k-point  2 :   0.5000-0.0000-0.0000  plane waves:   17736
 k-point  3 :   0.0000 0.5000 0.0000  plane waves:   17736
 k-point  4 :   0.5000 0.5000-0.0000  plane waves:   17736
 k-point  5 :   0.0000 0.0000 0.5000  plane waves:   17676
 k-point  6 :   0.5000-0.0000 0.5000  plane waves:   17700
 k-point  7 :   0.0000 0.5000 0.5000  plane waves:   17700
 k-point  8 :   0.5000 0.5000 0.5000  plane waves:   17700

 maximum and minimum number of plane-waves per node :     17736    17676

 maximum number of plane-waves:     17736
 maximum index in each direction: 
   IXMAX=   16   IYMAX=   16   IZMAX=   18
   IXMIN=  -16   IYMIN=  -16   IZMIN=  -18


 serial   3D FFT for wavefunctions
 parallel 3D FFT for charge:
    minimum data exchange during FFTs selected (reduces bandwidth)


 total amount of memory used by VASP MPI-rank0    94479. kBytes
=======================================================================

   base      :      30000. kBytes
   nonlr-proj:      13720. kBytes
   fftplans  :       1275. kBytes
   grid      :      22786. kBytes
   one-center:       2737. kBytes
   wavefun   :      23961. kBytes
 
     INWAV:  cpu time    0.0000: real time    0.0001
 Broyden mixing: mesh for mixing (old mesh)
   NGX = 33   NGY = 33   NGZ = 37
  (NGX  =100   NGY  =100   NGZ  =112)
  gives a total of  40293 points

 initial charge density was supplied:
 charge density of overlapping atoms calculated
 number of electron     672.0000000 magnetization      48.0000000
 keeping initial charge density in first step


--------------------------------------------------------------------------------------------------------


 Maximum index for non-local projection operator         1572
 Maximum index for augmentation-charges          518 (set IRDMAX)


--------------------------------------------------------------------------------------------------------


 First call to EWALD:  gamma=   0.179
 Maximum number of real-space cells 3x 3x 2
 Maximum number of reciprocal cells 3x 3x 3

    FEWALD:  cpu time    0.0029: real time    0.0029


--------------------------------------- Iteration      1(   1)  ---------------------------------------


    POTLOK:  cpu time    0.1914: real time    0.1922
    SETDIJ:  cpu time    4.6070: real time    4.6087
    EDDIAG:  cpu time    4.3943: real time    4.7682
  RMM-DIIS:  cpu time    9.0541: real time    9.0647
    ORTHCH:  cpu time    1.1813: real time    1.2584
       DOS:  cpu time    0.0024: real time    0.0026
    --------------------------------------------
      LOOP:  cpu time   19.4306: real time   19.8947

 eigenvalue-minimisations  :  7680
 total energy-change (2. order) : 0.1589184E+04  (-0.3494998E+05)
 number of electron     672.0000000 magnetization      48.0000000
 augmentation part      672.0000000 magnetization      48.0000000

 Free energy of the ion-electron system (eV)
  ---------------------------------------------------
  alpha Z        PSCENC =      2652.81237852
  Ewald energy   TEWEN  =    -41810.77098145
  -Hartree energ DENC   =    -25800.35913621
  -exchange      EXHF   =         0.00000000
  -V(xc)+E(xc)   XCENC  =      3606.21437971
  PAW double counting   =     55594.23204139   -59034.67079123
  entropy T*S    EENTRO =        -0.04044690
  eigenvalues    EBANDS =     -7480.43133141
  atomic energy  EATOM  =     73862.19814772
  Solvation  Ediel_sol  =         0.00000000
  ---------------------------------------------------
  free energy    TOTEN  =      1589.18426015 eV

  energy without entropy =     1589.22470705  energy(sigma->0) =     1589.20448360


--------------------------------------------------------------------------------------------------------




--------------------------------------- Iteration      1(   2)  ---------------------------------------


    EDDIAG:  cpu time    4.4118: real time    4.8051
  RMM-DIIS:  cpu time    9.0272: real time    9.0358
    ORTHCH:  cpu time    1.1616: real time    1.2408
       DOS:  cpu time    0.0023: real time    0.0023
    --------------------------------------------
      LOOP:  cpu time   14.6029: real time   15.0840

 eigenvalue-minimisations  :  7680
 total energy-change (2. order) :-0.2312157E+04  (-0.8015664E+04)
 number of electron     672.0000000 magnetization      48.0000000
 augmentation part      672.0000000 magnetization      48.0000000

 Free energy of the ion-electron system (eV)
  ---------------------------------------------------
  alpha Z        PSCENC =      2652.81237852
  Ewald energy   TEWEN  =    -41810.77098145
  -Hartree energ DENC   =    -25800.35913621
  -exchange      EXHF   =         0.00000000
  -V(xc)+E(xc)   XCENC  =      3606.21437971
  PAW double counting   =     55594.23204139   -59034.67079123
  entropy T*S    EENTRO =        -0.03098117
  eigenvalues    EBANDS =     -9792.59815888
  atomic energy  EATOM  =     73862.19814772
  Solvation  Ediel_sol  =         0.00000000
  ---------------------------------------------------
  free energy    TOTEN  =      -722.97310160 eV

  energy without entropy =     -722.94212043  energy(sigma->0) =     -722.95761101


--------------------------------------------------------------------------------------------------------




--------------------------------------- Iteration      1(   3)  ---------------------------------------


    EDDIAG:  cpu time    4.4039: real time    4.7943
  RMM-DIIS:  cpu time    9.0002: real time    9.0076
    ORTHCH:  cpu time    1.1872: real time    1.2658
       DOS:  cpu time    0.0021: real time    0.0021
    --------------------------------------------
      LOOP:  cpu time   14.5935: real time   15.0698

 eigenvalue-minimisations  :  7680
 total energy-change (2. order) : 0.7768129E+02  (-0.1419199E+04)
 number of electron     672.0000000 magnetization      48.0000000
 augmentation part      672.0000000 magnetization      48.0000000

 Free energy of the ion-electron system (eV)
  ---------------------------------------------------
  alpha Z        PSCENC =      2652.81237852
  Ewald energy   TEWEN  =    -41810.77098145
  -Hartree energ DENC   =    -25800.35913621
  -exchange      EXHF   =         0.00000000
  -V(xc)+E(xc)   XCENC  =      3606.21437971
  PAW double counting   =     55594.23204139   -59034.67079123
  entropy T*S    EENTRO =        -0.04708964
  eigenvalues    EBANDS =     -9714.90075723
  atomic energy  EATOM  =     73862.19814772
  Solvation  Ediel_sol  =         0.00000000
  ---------------------------------------------------
  free energy    TOTEN  =      -645.29180842 eV

  energy without entropy =     -645.24471878  energy(sigma->0) =     -645.26826360


--------------------------------------------------------------------------------------------------------




--------------------------------------- Iteration      1(   4)  ---------------------------------------


    EDDIAG:  cpu time    4.3903: real time    4.7946
  RMM-DIIS:  cpu time    9.0011: real time    9.0224
    ORTHCH:  cpu time    1.1609: real time    1.2413
       DOS:  cpu time    0.0015: real time    0.0015
    --------------------------------------------
      LOOP:  cpu time   14.5538: real time   15.0598

 eigenvalue-minimisations  :  7680
 total energy-change (2. order) :-0.4664747E+03  (-0.4282496E+03)
 number of electron     672.0000000 magnetization      48.0000000
 augmentation part      672.0000000 magnetization      48.0000000

 Free energy of the ion-electron system (eV)
  ---------------------------------------------------
  alpha Z        PSCENC =      2652.81237852
  Ewald energy   TEWEN  =    -41810.77098145
  -Hartree energ DENC   =    -25800.35913621
  -exchange      EXHF   =         0.00000000
  -V(xc)+E(xc)   XCENC  =      3606.21437971
  PAW double counting   =     55594.23204139   -59034.67079123
  entropy T*S    EENTRO =        -0.00000000
  eigenvalues    EBANDS =    -10181.42257058
  atomic energy  EATOM  =     73862.19814772
  Solvation  Ediel_sol  =         0.00000000
  ---------------------------------------------------
  free energy    TOTEN  =     -1111.76653212 eV

  energy without entropy =    -1111.76653212  energy(sigma->0) =    -1111.76653212


--------------------------------------------------------------------------------------------------------




--------------------------------------- Iteration      1(   5)  ---------------------------------------


    EDDIAG:  cpu time    4.3903: real time    4.7752
  RMM-DIIS:  cpu time    9.0028: real time    9.0262
    ORTHCH:  cpu time    1.1730: real time    1.2540
       DOS:  cpu time    0.0011: real time    0.0011
    --------------------------------------------
      LOOP:  cpu time   14.5673: real time   15.0565

 eigenvalue-minimisations  :  7680
 total energy-change (2. order) :-0.1040144E+03  (-0.1592827E+03)
 number of electron     672.0000000 magnetization      48.0000000
 augmentation part      672.0000000 magnetization      48.0000000

 Free energy of the ion-electron system (eV)
  ---------------------------------------------------
  alpha Z        PSCENC =      2652.81237852
  Ewald energy   TEWEN  =    -41810.77098145
  -Hartree energ DENC   =    -25800.35913621
  -exchange      EXHF   =         0.00000000
  -V(xc)+E(xc)   XCENC  =      3606.21437971
  PAW double counting   =     55594.23204139   -59034.67079123
  entropy T*S    EENTRO =        -0.00000000
  eigenvalues    EBANDS =    -10285.43692793
  atomic energy  EATOM  =     73862.19814772
  Solvation  Ediel_sol  =         0.00000000
  ---------------------------------------------------
  free energy    TOTEN  =     -1215.78088948 eV

  energy without entropy =    -1215.78088948  energy(sigma->0) =    -1215.78088948


--------------------------------------------------------------------------------------------------------




--------------------------------------- Iteration      1(   6)  ---------------------------------------


    EDDIAG:  cpu time    4.3808: real time    4.7932
  RMM-DIIS:  cpu time    9.0084: real time    9.0229
    ORTHCH:  cpu time    1.1619: real time    1.2418
       DOS:  cpu time    0.0015: real time    0.0015
    --------------------------------------------
      LOOP:  cpu time   14.5525: real time   15.0594

 eigenvalue-minimisations  :  7680
 total energy-change (2. order) :-0.8946858E+01  (-0.7895555E+02)
 number of electron     672.0000000 magnetization      48.0000000
 augmentation part      672.0000000 magnetization      48.0000000

 Free energy of the ion-electron system (eV)
  ---------------------------------------------------
  alpha Z        PSCENC =      2652.81237852
  Ewald energy   TEWEN  =    -41810.77098145
  -Hartree energ DENC   =    -25800.35913621
  -exchange      EXHF   =         0.00000000
  -V(xc)+E(xc)   XCENC  =      3606.21437971
  PAW double counting   =     55594.23204139   -59034.67079123
  entropy T*S    EENTRO =        -0.00000000
  eigenvalues    EBANDS =    -10294.38378607
  atomic energy  EATOM  =     73862.19814772
  Solvation  Ediel_sol  =         0.00000000
  ---------------------------------------------------
  free energy    TOTEN  =     -1224.72774761 eV

  energy without entropy =    -1224.72774761  energy(sigma->0) =    -1224.72774761


--------------------------------------------------------------------------------------------------------




--------------------------------------- Iteration      1(   7)  ---------------------------------------


    EDDIAG:  cpu time    4.3760: real time    4.7717
  RMM-DIIS:  cpu time    9.0232: real time    9.0337
    ORTHCH:  cpu time    1.2380: real time    1.3176
       DOS:  cpu time    0.0017: real time    0.0017
    --------------------------------------------
      LOOP:  cpu time   14.6389: real time   15.1246

 eigenvalue-minimisations  :  7680
 total energy-change (2. order) :-0.1780059E+01  (-0.4806780E+02)
 number of electron     672.0000000 magnetization      48.0000000
 augmentation part      672.0000000 magnetization      48.0000000

 Free energy of the ion-electron system (eV)
  ---------------------------------------------------
  alpha Z        PSCENC =      2652.81237852
  Ewald energy   TEWEN  =    -41810.77098145
  -Hartree energ DENC   =    -25800.35913621
  -exchange      EXHF   =         0.00000000
  -V(xc)+E(xc)   XCENC  =      3606.21437971
  PAW double counting   =     55594.23204139   -59034.67079123
  entropy T*S    EENTRO =        -0.00000000
  eigenvalues    EBANDS =    -10296.16384518
  atomic energy  EATOM  =     73862.19814772
  Solvation  Ediel_sol  =         0.00000000
  ---------------------------------------------------
  free energy    TOTEN  =     -1226.50780672 eV

  energy without entropy =    -1226.50780672  energy(sigma->0) =    -1226.50780672


--------------------------------------------------------------------------------------------------------




--------------------------------------- Iteration      1(   8)  ---------------------------------------


    EDDIAG:  cpu time    4.4440: real time    4.8509
  RMM-DIIS:  cpu time    9.0040: real time    9.0322
    ORTHCH:  cpu time    1.1610: real time    1.2424
       DOS:  cpu time    0.0015: real time    0.0015
    --------------------------------------------
      LOOP:  cpu time   14.6105: real time   15.1271

 eigenvalue-minimisations  :  7680
 total energy-change (2. order) : 0.5020017E+01  (-0.2972398E+02)
 number of electron     672.0000000 magnetization      48.0000000
 augmentation part      672.0000000 magnetization      48.0000000

 Free energy of the ion-electron system (eV)
  ---------------------------------------------------
  alpha Z        PSCENC =      2652.81237852
  Ewald energy   TEWEN  =    -41810.77098145
  -Hartree energ DENC   =    -25800.35913621
  -exchange      EXHF   =         0.00000000
  -V(xc)+E(xc)   XCENC  =      3606.21437971
  PAW double counting   =     55594.23204139   -59034.67079123
  entropy T*S    EENTRO =        -0.00000000
  eigenvalues    EBANDS =    -10291.14382865
  atomic energy  EATOM  =     73862.19814772
  Solvation  Ediel_sol  =         0.00000000
  ---------------------------------------------------
  free energy    TOTEN  =     -1221.48779019 eV

  energy without entropy =    -1221.48779019  energy(sigma->0) =    -1221.48779019


--------------------------------------------------------------------------------------------------------




--------------------------------------- Iteration      1(   9)  ---------------------------------------


    EDDIAG:  cpu time    4.3877: real time    4.7747
  RMM-DIIS:  cpu time   18.7641: real time   18.8507
    ORTHCH:  cpu time    1.1818: real time    1.2605
       DOS:  cpu time    0.0016: real time    0.0016
    --------------------------------------------
      LOOP:  cpu time   24.3352: real time   24.8875

 eigenvalue-minimisations  : 21808
 total energy-change (2. order) : 0.9163650E+01  (-0.1310095E+02)
 number of electron     672.0000000 magnetization      48.0000000
 augmentation part      672.0000000 magnetization      48.0000000

 Free energy of the ion-electron system (eV)
  ---------------------------------------------------
  alpha Z        PSCENC =      2652.81237852
  Ewald energy   TEWEN  =    -41810.77098145
  -Hartree energ DENC   =    -25800.35913621
  -exchange      EXHF   =         0.00000000
  -V(xc)+E(xc)   XCENC  =      3606.21437971
  PAW double counting   =     55594.23204139   -59034.67079123
  entropy T*S    EENTRO =        -0.00000000
  eigenvalues    EBANDS =    -10281.98017896
  atomic energy  EATOM  =     73862.19814772
  Solvation  Ediel_sol  =         0.00000000
  ---------------------------------------------------
  free energy    TOTEN  =     -1212.32414050 eV

  energy without entropy =    -1212.32414050  energy(sigma->0) =    -1212.32414050


--------------------------------------------------------------------------------------------------------




--------------------------------------- Iteration      1(  10)  ---------------------------------------


    EDDIAG:  cpu time    4.4155: real time    4.8064
  RMM-DIIS:  cpu time   17.8112: real time   17.8333
    ORTHCH:  cpu time    1.1801: real time    1.2997
       DOS:  cpu time    0.0013: real time    0.0013
    --------------------------------------------
      LOOP:  cpu time   23.4080: real time   23.9407

 eigenvalue-minimisations  : 19732
 total energy-change (2. order) :-0.1884613E+01  (-0.5285932E+00)
 number of electron     672.0000000 magnetization      48.0000000
 augmentation part      672.0000000 magnetization      48.0000000

 Free energy of the ion-electron system (eV)
  ---------------------------------------------------
  alpha Z        PSCENC =      2652.81237852
  Ewald energy   TEWEN  =    -41810.77098145
  -Hartree energ DENC   =    -25800.35913621
  -exchange      EXHF   =         0.00000000
  -V(xc)+E(xc)   XCENC  =      3606.21437971
  PAW double counting   =     55594.23204139   -59034.67079123
  entropy T*S    EENTRO =        -0.00000000
  eigenvalues    EBANDS =    -10283.86479207
  atomic energy  EATOM  =     73862.19814772
  Solvation  Ediel_sol  =         0.00000000
  ---------------------------------------------------
  free energy    TOTEN  =     -1214.20875361 eV

  energy without entropy =    -1214.20875361  energy(sigma->0) =    -1214.20875361


--------------------------------------------------------------------------------------------------------




--------------------------------------- Iteration      1(  11)  ---------------------------------------


    EDDIAG:  cpu time    4.3947: real time    4.7833
  RMM-DIIS:  cpu time   19.9014: real time   19.9223
    ORTHCH:  cpu time    1.1816: real time    1.2608
       DOS:  cpu time    0.0015: real time    0.0015
    --------------------------------------------
      LOOP:  cpu time   25.4792: real time   25.9679

 eigenvalue-minimisations  : 22618
 total energy-change (2. order) : 0.7048911E-01  (-0.4336892E-01)
 number of electron     672.0000000 magnetization      48.0000000
 augmentation part      672.0000000 magnetization      48.0000000

 Free energy of the ion-electron system (eV)
  ---------------------------------------------------
  alpha Z        PSCENC =      2652.81237852
  Ewald energy   TEWEN  =    -41810.77098145
  -Hartree energ DENC   =    -25800.35913621
  -exchange      EXHF   =         0.00000000
  -V(xc)+E(xc)   XCENC  =      3606.21437971
  PAW double counting   =     55594.23204139   -59034.67079123
  entropy T*S    EENTRO =        -0.00000000
  eigenvalues    EBANDS =    -10283.79430296
  atomic energy  EATOM  =     73862.19814772
  Solvation  Ediel_sol  =         0.00000000
  ---------------------------------------------------
  free energy    TOTEN  =     -1214.13826450 eV

  energy without entropy =    -1214.13826450  energy(sigma->0) =    -1214.13826450


--------------------------------------------------------------------------------------------------------




--------------------------------------- Iteration      1(  12)  ---------------------------------------


    EDDIAG:  cpu time    4.4047: real time    4.8000
  RMM-DIIS:  cpu time   21.8790: real time   21.8985
    ORTHCH:  cpu time    1.2022: real time    1.2835
       DOS:  cpu time    0.0017: real time    0.0017
    CHARGE:  cpu time    1.7988: real time    1.7996
    MIXING:  cpu time    0.0010: real time    0.0011
    --------------------------------------------
      LOOP:  cpu time   29.2874: real time   29.7844

 eigenvalue-minimisations  : 24387
 total energy-change (2. order) :-0.7917015E-03  (-0.4267800E-02)
 number of electron     671.9999838 magnetization      47.9999971
 augmentation part      239.1005524 magnetization      29.0532610

 Broyden mixing:
  rms(total) = 0.12591E+02    rms(broyden)= 0.12581E+02
  rms(prec ) = 0.14434E+02
  weight for this iteration     100.00

 Free energy of the ion-electron system (eV)
  ---------------------------------------------------
  alpha Z        PSCENC =      2652.81237852
  Ewald energy   TEWEN  =    -41810.77098145
  -Hartree energ DENC   =    -25800.35913621
  -exchange      EXHF   =         0.00000000
  -V(xc)+E(xc)   XCENC  =      3606.21437971
  PAW double counting   =     55594.23204139   -59034.67079123
  entropy T*S    EENTRO =        -0.00000000
  eigenvalues    EBANDS =    -10283.79509466
  atomic energy  EATOM  =     73862.19814772
  Solvation  Ediel_sol  =         0.00000000
  ---------------------------------------------------
  free energy    TOTEN  =     -1214.13905620 eV

  energy without entropy =    -1214.13905620  energy(sigma->0) =    -1214.13905620


--------------------------------------------------------------------------------------------------------




--------------------------------------- Iteration      1(  13)  ---------------------------------------


    POTLOK:  cpu time    0.1787: real time    0.1790
    SETDIJ:  cpu time    4.9424: real time    4.9557
    EDDIAG:  cpu time    4.3942: real time    4.7739
  RMM-DIIS:  cpu time   17.4616: real time   17.4781
    ORTHCH:  cpu time    1.2272: real time    1.3084
       DOS:  cpu time    0.0018: real time    0.0018
    CHARGE:  cpu time    1.7819: real time    1.7830
    MIXING:  cpu time    0.0009: real time    0.0009
    --------------------------------------------
      LOOP:  cpu time   29.9887: real time   30.4809

 eigenvalue-minimisations  : 18795
 total energy-change (2. order) : 0.2288484E+03  (-0.1215951E+03)
 number of electron     671.9999857 magnetization      47.9999964
 augmentation part      268.8931073 magnetization      26.5165876

 Broyden mixing:
  rms(total) = 0.13890E+02    rms(broyden)= 0.13887E+02
  rms(prec ) = 0.15618E+02
  weight for this iteration     100.00

 eigenvalues of (default mixing * dielectric matrix)
  average eigenvalue GAMMA=   0.3195
  0.3195

 Free energy of the ion-electron system (eV)
  ---------------------------------------------------
  alpha Z        PSCENC =      2652.81237852
  Ewald energy   TEWEN  =    -41810.77098145
  -Hartree energ DENC   =    -25132.39205477
  -exchange      EXHF   =         0.00000000
  -V(xc)+E(xc)   XCENC  =      3696.55641976
  PAW double counting   =     59923.92464886   -63349.21725171
  entropy T*S    EENTRO =        -0.09105164
  eigenvalues    EBANDS =    -10828.31093022
  atomic energy  EATOM  =     73862.19814772
  Solvation  Ediel_sol  =         0.00000000
  ---------------------------------------------------
  free energy    TOTEN  =      -985.29067492 eV

  energy without entropy =     -985.19962328  energy(sigma->0) =     -985.24514910


--------------------------------------------------------------------------------------------------------




--------------------------------------- Iteration      1(  14)  ---------------------------------------


    POTLOK:  cpu time    0.1780: real time    0.1781
    SETDIJ:  cpu time    4.9276: real time    4.9413
    EDDIAG:  cpu time    4.3789: real time    4.7754
  RMM-DIIS:  cpu time   17.7358: real time   17.7551
    ORTHCH:  cpu time    1.2007: real time    1.2762
       DOS:  cpu time    0.0011: real time    0.0011
    CHARGE:  cpu time    1.7794: real time    1.7826
    MIXING:  cpu time    0.0011: real time    0.0011
    --------------------------------------------
      LOOP:  cpu time   30.2026: real time   30.7108

 eigenvalue-minimisations  : 19373
 total energy-change (2. order) : 0.6923070E+02  (-0.1773898E+02)
 number of electron     671.9999837 magnetization      47.9999942
 augmentation part      246.5798581 magnetization      32.1785386

 Broyden mixing:
  rms(total) = 0.52992E+01    rms(broyden)= 0.52950E+01
  rms(prec ) = 0.57245E+01
  weight for this iteration     100.00

 eigenvalues of (default mixing * dielectric matrix)
  average eigenvalue GAMMA=   0.7325
  1.1070  0.3580

 Free energy of the ion-electron system (eV)
  ---------------------------------------------------
  alpha Z        PSCENC =      2652.81237852
  Ewald energy   TEWEN  =    -41810.77098145
  -Hartree energ DENC   =    -25744.55011722
  -exchange      EXHF   =         0.00000000
  -V(xc)+E(xc)   XCENC  =      3673.87133494
  PAW double counting   =     63324.06812325   -66806.69559277
  entropy T*S    EENTRO =        -0.00000000
  eigenvalues    EBANDS =    -10066.99326718
  atomic energy  EATOM  =     73862.19814772
  Solvation  Ediel_sol  =         0.00000000
  ---------------------------------------------------
  free energy    TOTEN  =      -916.05997418 eV

  energy without entropy =     -916.05997418  energy(sigma->0) =     -916.05997418


--------------------------------------------------------------------------------------------------------




--------------------------------------- Iteration      1(  15)  ---------------------------------------


    POTLOK:  cpu time    0.1762: real time    0.1771
    SETDIJ:  cpu time    4.9441: real time    4.9547
    EDDIAG:  cpu time    4.3840: real time    4.7827
  RMM-DIIS:  cpu time   18.2736: real time   18.2857
    ORTHCH:  cpu time    1.1550: real time    1.2388
       DOS:  cpu time    0.0011: real time    0.0011
    CHARGE:  cpu time    1.7773: real time    1.7779
    MIXING:  cpu time    0.0014: real time    0.0014
    --------------------------------------------
      LOOP:  cpu time   30.7128: real time   31.2195

 eigenvalue-minimisations  : 20295
 total energy-change (2. order) : 0.1438724E+02  (-0.1938055E+01)
 number of electron     671.9999842 magnetization      47.9999928
 augmentation part      249.6789532 magnetization      33.8171050

 Broyden mixing:
  rms(total) = 0.21408E+01    rms(broyden)= 0.21405E+01
  rms(prec ) = 0.22207E+01
  weight for this iteration     100.00

 eigenvalues of (default mixing * dielectric matrix)
  average eigenvalue GAMMA=   0.9606
  0.3836  0.7592  1.7389

 Free energy of the ion-electron system (eV)
  ---------------------------------------------------
  alpha Z        PSCENC =      2652.81237852
  Ewald energy   TEWEN  =    -41810.77098145
  -Hartree energ DENC   =    -25666.06211711
  -exchange      EXHF   =         0.00000000
  -V(xc)+E(xc)   XCENC  =      3707.07606076
  PAW double counting   =     67432.46586020   -70955.41277853
  entropy T*S    EENTRO =        -0.00000000
  eigenvalues    EBANDS =    -10123.97930588
  atomic energy  EATOM  =     73862.19814772
  Solvation  Ediel_sol  =         0.00000000
  ---------------------------------------------------
  free energy    TOTEN  =      -901.67273576 eV

  energy without entropy =     -901.67273576  energy(sigma->0) =     -901.67273576


--------------------------------------------------------------------------------------------------------




--------------------------------------- Iteration      1(  16)  ---------------------------------------


    POTLOK:  cpu time    0.1721: real time    0.1730
    SETDIJ:  cpu time    4.9963: real time    5.0130
    EDDIAG:  cpu time    4.4375: real time    4.8271
  RMM-DIIS:  cpu time   17.3614: real time   17.3726
    ORTHCH:  cpu time    1.1614: real time    1.2402
       DOS:  cpu time    0.0013: real time    0.0013
    CHARGE:  cpu time    1.7781: real time    1.7786
    MIXING:  cpu time    0.0009: real time    0.0009
    --------------------------------------------
      LOOP:  cpu time   29.9091: real time   30.4069

 eigenvalue-minimisations  : 19005
 total energy-change (2. order) :-0.1609451E+01  (-0.6481568E+00)
 number of electron     671.9999846 magnetization      47.9999924
 augmentation part      251.2317440 magnetization      33.9000787

 Broyden mixing:
  rms(total) = 0.14038E+01    rms(broyden)= 0.14032E+01
  rms(prec ) = 0.14961E+01
  weight for this iteration     100.00

 eigenvalues of (default mixing * dielectric matrix)
  average eigenvalue GAMMA=   0.9796
  2.0883  0.9071  0.3907  0.5324

 Free energy of the ion-electron system (eV)
  ---------------------------------------------------
  alpha Z        PSCENC =      2652.81237852
  Ewald energy   TEWEN  =    -41810.77098145
  -Hartree energ DENC   =    -25613.71744148
  -exchange      EXHF   =         0.00000000
  -V(xc)+E(xc)   XCENC  =      3708.23848975
  PAW double counting   =     70432.16315663   -73985.24967516
  entropy T*S    EENTRO =        -0.00000000
  eigenvalues    EBANDS =    -10148.95626095
  atomic energy  EATOM  =     73862.19814772
  Solvation  Ediel_sol  =         0.00000000
  ---------------------------------------------------
  free energy    TOTEN  =      -903.28218641 eV

  energy without entropy =     -903.28218641  energy(sigma->0) =     -903.28218641


--------------------------------------------------------------------------------------------------------




--------------------------------------- Iteration      1(  17)  ---------------------------------------


    POTLOK:  cpu time    0.1766: real time    0.1770
    SETDIJ:  cpu time    5.0099: real time    5.0242
    EDDIAG:  cpu time    4.4019: real time    4.7967
  RMM-DIIS:  cpu time   18.4188: real time   18.4270
    ORTHCH:  cpu time    1.1555: real time    1.2384
       DOS:  cpu time    0.0014: real time    0.0014
    CHARGE:  cpu time    1.7448: real time    1.7770
    MIXING:  cpu time    0.0018: real time    0.0018
    --------------------------------------------
      LOOP:  cpu time   30.9107: real time   31.4434

 eigenvalue-minimisations  : 20589
 total energy-change (2. order) : 0.1859917E+00  (-0.5727517E-01)
 number of electron     671.9999845 magnetization      47.9999922
 augmentation part      251.1153031 magnetization      33.8937365

 Broyden mixing:
  rms(total) = 0.75618E+00    rms(broyden)= 0.75608E+00
  rms(prec ) = 0.85246E+00
  weight for this iteration     100.00

 eigenvalues of (default mixing * dielectric matrix)
  average eigenvalue GAMMA=   1.0082
  2.2434  1.1441  0.3816  0.7004  0.5713

 Free energy of the ion-electron system (eV)
  ---------------------------------------------------
  alpha Z        PSCENC =      2652.81237852
  Ewald energy   TEWEN  =    -41810.77098145
  -Hartree energ DENC   =    -25606.18271582
  -exchange      EXHF   =         0.00000000
  -V(xc)+E(xc)   XCENC  =      3705.14975296
  PAW double counting   =     71253.60786921   -74814.67103497
  entropy T*S    EENTRO =        -0.00000000
  eigenvalues    EBANDS =    -10145.23961087
  atomic energy  EATOM  =     73862.19814772
  Solvation  Ediel_sol  =         0.00000000
  ---------------------------------------------------
  free energy    TOTEN  =      -903.09619470 eV

  energy without entropy =     -903.09619470  energy(sigma->0) =     -903.09619470


--------------------------------------------------------------------------------------------------------




--------------------------------------- Iteration      1(  18)  ---------------------------------------


    POTLOK:  cpu time    0.1701: real time    0.1707
    SETDIJ:  cpu time    4.9914: real time    4.9957
    EDDIAG:  cpu time    4.3951: real time    4.7926
  RMM-DIIS:  cpu time   17.8621: real time   17.8712
    ORTHCH:  cpu time    1.1625: real time    1.2412
       DOS:  cpu time    0.0011: real time    0.0011
    CHARGE:  cpu time    1.7336: real time    1.7784
    MIXING:  cpu time    0.0011: real time    0.0011
    --------------------------------------------
      LOOP:  cpu time   30.3170: real time   30.8520

 eigenvalue-minimisations  : 19084
 total energy-change (2. order) : 0.3956859E+00  (-0.6967221E-01)
 number of electron     671.9999844 magnetization      47.9999922
 augmentation part      250.6000526 magnetization      33.8533964

 Broyden mixing:
  rms(total) = 0.26662E+00    rms(broyden)= 0.26631E+00
  rms(prec ) = 0.27980E+00
  weight for this iteration     100.00

 eigenvalues of (default mixing * dielectric matrix)
  average eigenvalue GAMMA=   1.0209
  2.4618  1.3675  0.8477  0.3828  0.5891  0.4767

 Free energy of the ion-electron system (eV)
  ---------------------------------------------------
  alpha Z        PSCENC =      2652.81237852
[...]
   4      -0.693    -0.839     1.532     0.153     0.025    -0.065
   5      -0.528    -0.810     1.338     0.100    -0.000     0.085
   6      -1.130    -0.816     1.946     0.103    -0.007    -0.058
   7      -1.024    -0.893     1.917     0.055     0.098    -0.121
   8      -0.851    -1.016     1.867    -0.177     0.057    -0.080
   9      -1.207    -0.630     1.837     0.130     0.123    -0.025
  10      -0.653    -0.878     1.531    -0.129     0.050    -0.049
  11      -0.715    -0.922     1.637     0.224     0.049    -0.034
  12      -0.456    -0.630     1.086    -0.116     0.018    -0.012
  13      -0.491    -0.751     1.242    -0.128     0.058    -0.009
  14      -1.017    -0.582     1.599     0.077    -0.033    -0.008
  15      -0.547    -0.674     1.220    -0.110    -0.044     0.028
  16      -1.071    -0.707     1.777    -0.124    -0.055     0.005
  17       1.531     1.390    -2.922    -0.027     0.034     0.049
  18       1.666     1.329    -2.994    -0.013     0.072    -0.113
  19       1.358     1.646    -3.004    -0.182    -0.039     0.094
  20       1.414     1.551    -2.965    -0.170    -0.012     0.043
  21       1.510     1.479    -2.989     0.072     0.043    -0.184
  22       1.366     1.490    -2.856     0.109     0.014    -0.022
  23       1.437     1.435    -2.872    -0.045    -0.071    -0.167
  24       1.437     1.610    -3.047     0.108    -0.059     0.038
  25      -0.867    -0.865     1.732    -0.405    -0.561    -0.135
  26      -1.571     1.047     0.524     0.557    -0.414    -0.867
  27      -1.787     2.383    -0.595     0.309     0.642     0.632
  28       0.245    -0.189    -0.056    -0.145    -0.971     0.057
  29      -2.397    -0.226     2.622    -0.557     0.292    -1.045
  30      -1.116    -0.980     2.097     0.040     0.632    -0.490
  31      -1.346     0.509     0.837    -0.072    -0.246     0.276
  32      -1.470    -0.186     1.656     0.113     0.353     0.065
  33       0.341     0.750    -1.091    -0.036    -0.273     0.335
  34       0.109     0.283    -0.392    -0.257     0.392     0.168
  35       0.743    -0.347    -0.396    -0.655     1.262    -0.290
  36      -1.492     0.226     1.266     1.254     1.409     0.224
  37      -0.024    -0.149     0.173     0.534    -0.693    -1.280
  38      -1.777     0.091     1.686     0.393    -1.889    -1.555
  39      -1.674    -1.101     2.775     0.476     0.174     0.104
  40       1.136    -0.681    -0.454    -0.427    -0.245    -1.395
  41      -3.312     2.182     1.130    -4.033     1.050    -5.314
  42      -1.575     3.566    -1.991     4.698     1.445     3.268
  43       6.137    -5.896    -0.241     0.764    -4.236     0.573
  44      -3.710     3.261     0.449    -5.365    -2.628     5.960
  45       5.834    -6.819     0.985     0.366     4.638    -1.111
  46      -3.346     3.519    -0.174     5.584    -3.420    -4.055
  47      -4.768     3.135     1.633    -4.543     2.268    -5.216
  48       5.257    -6.180     0.923     0.011    -4.856    -0.662
  49      -3.076     0.018     3.058     5.659     3.145     4.753
  50      -3.606     3.738    -0.132    -5.291    -0.486     4.665
  51      -2.639     2.805    -0.166     5.315    -1.787    -3.476
  52       5.172    -5.742     0.570     0.078     4.858     0.372
  53      -4.618     3.725     0.893    -3.058     3.842    -3.514
  54      -3.347     1.111     2.235     4.844     2.203     5.080
  55       2.794    -5.999     3.205    -0.788    -4.613    -0.180
  56      -3.381     1.635     1.745    -5.959    -2.174     4.022
  57       3.443    -7.241     3.799    -1.054     5.002    -0.792
  58      -3.816     2.947     0.869     4.827    -1.772    -4.821
  59      -4.679     2.376     2.303    -4.789     2.104    -5.356
  60       5.858    -5.007    -0.851    -0.440    -4.328    -0.011
  61      -2.661     1.812     0.849     4.677     0.806     3.682
  62      -2.491     3.044    -0.553    -4.616    -2.080     4.472
  63      -5.498     3.827     1.671     2.772    -1.722    -4.598
  64       4.918    -4.447    -0.471     0.292     4.418    -1.710
  65      -0.752     1.079    -0.328    -5.994     2.236    -3.166
  66      -1.866     2.669    -0.803     4.503     3.922     2.388
  67       5.541    -5.610     0.069    -1.358    -3.525     0.162
  68      -3.172     2.433     0.739    -3.523    -1.871     4.495
  69       4.799    -5.074     0.275     0.476     3.794    -1.608
  70      -3.823     1.637     2.186     5.279    -5.239    -4.726
  71      -2.481     3.159    -0.678    -6.180     2.840    -3.096
  72       4.258    -6.244     1.986    -0.186    -5.926     1.394
  73      -3.129     2.315     0.814     6.196     1.791     3.722
  74      -2.625     2.563     0.061    -5.558    -0.090     4.929
  75      -2.341     0.031     2.310     4.875    -2.677    -4.430
  76       4.493    -4.932     0.439    -0.830     3.957     1.190
  77      -4.857     1.727     3.130    -3.698     1.836    -4.584
  78      -1.826     0.928     0.898     6.700     0.604     3.754
  79       3.709    -4.815     1.106    -2.484    -4.719     1.921
  80      -3.040     1.971     1.069    -4.429    -2.801     3.324
  81       4.045    -6.097     2.053    -0.429     5.049    -0.666
  82      -3.437     2.700     0.737     4.437    -0.946    -4.027
  83      -3.293     3.098     0.195    -4.067     0.789    -5.393
  84       3.391    -5.854     2.463    -4.217    -4.666    -1.079
  85      -1.596     3.191    -1.595     4.083     2.886     2.862
  86      -1.710     2.145    -0.435    -3.506    -1.867     2.866
  87      -2.874     2.640     0.234     4.452    -1.629    -4.726
  88       5.089    -6.465     1.377    -0.833     5.721    -0.858
 ---------------------------------------------------------------------


 Total hyperfine coupling parameters after diagonalization (MHz)
 (convention: |A_zz| > |A_xx| > |A_yy|)
 ----------------------------------------------------------------------
  ion      A_xx      A_yy      A_zz     asymmetry (A_yy - A_xx)/ A_zz 
 ----------------------------------------------------------------------
   1       0.475     0.358     3.188      -0.037
   2       1.621     1.271     3.571      -0.098
   3       0.564     0.059     3.062      -0.165
   4       2.383     2.041     4.513      -0.076
   5       1.782     1.433     3.619      -0.096
   6      -0.665    -0.290     2.444       0.153
   7      -0.574    -0.398     2.402       0.073
   8       0.324    -0.065     2.935      -0.132
   9       1.601     0.962     4.045      -0.158
  10       2.379     2.038     4.508      -0.076
  11       2.647     2.152     4.858      -0.102
  12       1.856     1.567     3.341      -0.087
  13       1.830     1.467     3.514      -0.103
  14       1.642     1.181     3.811      -0.121
  15       2.208     1.956     3.914      -0.064
  16       0.735     0.294     3.182      -0.139
  17      14.316    10.008    14.467      -0.298
  18      14.119     9.790    14.456      -0.299
  19      15.445    11.170    15.911      -0.269
  20      14.056     9.792    14.423      -0.296
  21      15.322    10.898    15.465      -0.286
  22      13.229     9.071    13.480      -0.308
  23      12.949     8.672    13.035      -0.328
  24      15.230    10.795    15.505      -0.286
  25      97.611    96.755    99.956      -0.009
  26     100.135    98.543   102.088      -0.016
  27      92.143    90.563    95.186      -0.017
  28      97.756    97.067    99.053      -0.007
  29      99.971    97.910   103.445      -0.020
  30      97.251    96.932   100.520      -0.003
  31     100.841    99.113   101.509      -0.017
  32      99.663    98.326   101.543      -0.013
  33      95.142    93.576    95.596      -0.016
  34      95.183    94.296    95.463      -0.009
  35      94.106    93.440    96.462      -0.007
  36      97.526    94.638    99.306      -0.029
  37      95.174    94.346    97.363      -0.009
  38      93.510    91.531    97.470      -0.020
  39      98.217    97.112   101.844      -0.011
  40      96.937    94.093    97.370      -0.029
  41       7.360     3.609    17.805      -0.211
  42       3.953     2.624    14.775      -0.090
  43       5.821     1.877    16.244      -0.243
  44       5.519     2.538    19.645      -0.152
  45       5.975     0.481    16.200      -0.339
  46       5.065     1.150    17.316      -0.226
  47       7.239     2.941    19.160      -0.224
  48       5.404     1.293    15.973      -0.257
  49       6.708     1.302    18.141      -0.298
  50       7.683     2.526    18.163      -0.284
  51       5.384     1.502    15.342      -0.253
  52       3.404     0.116    14.137      -0.233
  53       7.705     2.112    16.738      -0.334
  54       2.878    -1.480    13.900      -0.314
  55       6.353     1.746    15.494      -0.297
  56       7.596     1.489    17.464      -0.350
  57       7.324     1.348    17.434      -0.343
  58       4.174     0.110    15.283      -0.266
  59       7.515     2.649    19.211      -0.253
  60       6.063     3.977    17.006      -0.123
  61       5.007     0.087    12.877      -0.382
  62       3.468     1.497    15.038      -0.131
  63       6.910     2.560    17.091      -0.254
  64       6.293     2.690    15.633      -0.230
  65       4.799     0.952    14.897      -0.258
  66       5.141     0.963    14.361      -0.291
  67       5.693     1.515    14.698      -0.284
  68       1.169    -1.034    11.447      -0.193
  69       6.534     1.959    14.696      -0.311
  70       3.148    -1.728    16.465      -0.296
  71       5.396     1.192    16.679      -0.252
  72       3.553    -0.345    15.442      -0.252
  73       7.912     2.016    17.771      -0.332
  74       8.123     1.950    17.574      -0.351
  75       2.774    -1.412    13.121      -0.319
  76       3.487    -0.649    11.788      -0.351
  77       4.910     0.061    14.778      -0.328
  78       6.750    -0.774    14.950      -0.503
  79       6.675     3.582    17.229      -0.180
  80       8.036     4.018    17.199      -0.234
  81       4.878     0.810    15.196      -0.268
  82       6.270     1.785    15.198      -0.295
  83       4.842     1.288    15.714      -0.226
  84       8.683     0.259    16.583      -0.508
  85      -1.705     0.367    10.252       0.202
  86       3.812     2.248    12.069      -0.130
  87       4.350     1.395    15.153      -0.195
  88       3.286    -0.507    15.391      -0.246
 ---------------------------------------------------------------------



--------------------------------------------------------------------------------------------------------


 stress matrix after NEB project (eV)
    -44.83787      1.10205      0.24327
      1.12154    -46.04559      2.68041
      0.23617      2.69043    -56.84695
  FORCES: max atom, RMS     2.554291    1.086744
  FORCE total and by dimension   10.194566    2.228951
  Stress total and by dimension   85.902365   56.846952
     LOOP+:  cpu time  784.4393: real time  799.9004
    4ORBIT:  cpu time    0.0000: real time    0.0000
 


 total charge     
 
# of ion       s       p       d       tot
------------------------------------------
    1        0.047   5.990   0.000   6.037
    2        0.045   5.988   0.000   6.034
    3        0.054   5.998   0.000   6.052
    4        0.048   5.990   0.000   6.038
    5        0.049   5.991   0.000   6.040
    6        0.050   5.995   0.000   6.045
    7        0.054   5.997   0.000   6.051
    8        0.052   5.997   0.000   6.049
    9        0.053   5.996   0.000   6.049
   10        0.047   5.989   0.000   6.037
   11        0.050   5.992   0.000   6.043
   12        0.048   5.991   0.000   6.039
   13        0.049   5.991   0.000   6.040
   14        0.046   5.987   0.000   6.033
   15        0.053   5.995   0.000   6.048
   16        0.050   5.994   0.000   6.044
   17        0.147   6.125   0.082   6.354
   18        0.147   6.125   0.082   6.355
   19        0.150   6.130   0.086   6.366
   20        0.151   6.132   0.087   6.369
   21        0.151   6.132   0.087   6.370
   22        0.152   6.131   0.085   6.368
   23        0.148   6.127   0.083   6.358
   24        0.150   6.130   0.086   6.366
   25        0.378   6.459   4.838  11.675
   26        0.383   6.471   4.851  11.705
   27        0.384   6.475   4.854  11.713
   28        0.371   6.444   4.818  11.632
   29        0.369   6.436   4.827  11.633
   30        0.373   6.443   4.828  11.644
   31        0.373   6.449   4.824  11.647
   32        0.393   6.490   4.872  11.755
   33        0.376   6.454   4.827  11.657
   34        0.381   6.467   4.842  11.690
   35        0.374   6.452   4.833  11.659
   36        0.364   6.428   4.803  11.595
   37        0.385   6.475   4.849  11.709
   38        0.379   6.461   4.841  11.681
   39        0.375   6.456   4.827  11.658
   40        0.375   6.456   4.829  11.659
   41        1.602   3.541   0.000   5.143
   42        1.598   3.493   0.000   5.091
   43        1.600   3.508   0.000   5.108
   44        1.603   3.500   0.000   5.103
   45        1.597   3.507   0.000   5.104
   46        1.600   3.478   0.000   5.078
   47        1.601   3.513   0.000   5.114
   48        1.599   3.508   0.000   5.107
   49        1.602   3.516   0.000   5.118
   50        1.601   3.507   0.000   5.108
   51        1.599   3.513   0.000   5.111
   52        1.596   3.498   0.000   5.093
   53        1.600   3.540   0.000   5.140
   54        1.601   3.496   0.000   5.097
   55        1.597   3.525   0.000   5.123
   56        1.601   3.526   0.000   5.127
   57        1.602   3.531   0.000   5.132
   58        1.596   3.503   0.000   5.099
   59        1.600   3.494   0.000   5.094
   60        1.599   3.510   0.000   5.108
   61        1.594   3.492   0.000   5.086
   62        1.599   3.514   0.000   5.113
   63        1.601   3.520   0.000   5.120
   64        1.599   3.528   0.000   5.127
   65        1.597   3.482   0.000   5.079
   66        1.598   3.491   0.000   5.089
   67        1.599   3.537   0.000   5.136
   68        1.598   3.481   0.000   5.079
   69        1.598   3.503   0.000   5.100
   70        1.602   3.487   0.000   5.089
   71        1.599   3.487   0.000   5.086
   72        1.598   3.489   0.000   5.088
   73        1.604   3.514   0.000   5.118
   74        1.600   3.505   0.000   5.106
   75        1.597   3.508   0.000   5.105
   76        1.596   3.486   0.000   5.082
   77        1.598   3.539   0.000   5.136
   78        1.599   3.509   0.000   5.108
   79        1.597   3.503   0.000   5.101
   80        1.600   3.522   0.000   5.122
   81        1.596   3.507   0.000   5.103
   82        1.600   3.511   0.000   5.111
   83        1.599   3.503   0.000   5.102
   84        1.599   3.512   0.000   5.111
   85        1.597   3.474   0.000   5.072
   86        1.597   3.505   0.000   5.103
   87        1.601   3.492   0.000   5.093
   88        1.600   3.485   0.000   5.085
--------------------------------------------------
tot         84.778 416.524  78.040 579.342
 


 magnetization (x)
 
# of ion       s       p       d       tot
------------------------------------------
    1        0.001   0.001   0.000   0.002
    2        0.002  -0.000   0.000   0.002
    3        0.001   0.000   0.000   0.001
    4        0.002   0.000   0.000   0.002
    5        0.002   0.000   0.000   0.002
    6        0.000   0.000   0.000   0.000
    7        0.000   0.000   0.000   0.000
    8        0.001   0.000   0.000   0.001
    9        0.002   0.000   0.000   0.002
   10        0.002   0.000   0.000   0.003
   11        0.002   0.000   0.000   0.003
   12        0.002   0.001   0.000   0.002
   13        0.002   0.000   0.000   0.002
   14        0.002   0.000   0.000   0.002
   15        0.002   0.000   0.000   0.002
   16        0.001   0.001   0.000   0.002
   17        0.007   0.002   0.001   0.011
   18        0.007   0.003   0.002   0.012
   19        0.008   0.003   0.001   0.012
   20        0.007   0.002   0.001   0.010
   21        0.008   0.003   0.001   0.011
   22        0.006   0.002   0.001   0.010
   23        0.007   0.002   0.001   0.010
   24        0.008   0.003   0.001   0.012
   25        0.016   0.030   2.751   2.797
   26        0.017   0.031   2.739   2.787
   27        0.014   0.029   2.722   2.766
   28        0.016   0.030   2.768   2.814
   29        0.016   0.029   2.762   2.807
   30        0.016   0.029   2.763   2.808
   31        0.017   0.031   2.764   2.812
   32        0.016   0.032   2.723   2.771
   33        0.015   0.030   2.748   2.793
   34        0.015   0.030   2.733   2.778
   35        0.015   0.029   2.749   2.793
   36        0.015   0.029   2.791   2.835
   37        0.015   0.031   2.741   2.787
   38        0.015   0.029   2.742   2.786
   39        0.016   0.031   2.763   2.809
   40        0.015   0.029   2.756   2.801
   41        0.002   0.054   0.000   0.056
   42        0.002   0.020   0.000   0.022
   43        0.002   0.037   0.000   0.039
   44        0.002   0.051   0.000   0.053
   45        0.002   0.043   0.000   0.044
   46        0.002   0.030   0.000   0.032
   47        0.003   0.049   0.000   0.052
   48        0.002   0.034   0.000   0.036
   49        0.002   0.047   0.000   0.049
   50        0.002   0.050   0.000   0.052
   51        0.002   0.034   0.000   0.036
   52        0.002   0.017   0.000   0.019
   53        0.002   0.047   0.000   0.049
   54        0.002   0.013   0.000   0.015
   55        0.002   0.044   0.000   0.046
   56        0.002   0.054   0.000   0.056
   57        0.002   0.054   0.000   0.056
   58        0.002   0.030   0.000   0.032
   59        0.003   0.048   0.000   0.051
   60        0.002   0.037   0.000   0.039
   61        0.002   0.025   0.000   0.027
   62        0.002   0.031   0.000   0.032
   63        0.002   0.049   0.000   0.051
   64        0.002   0.037   0.000   0.039
   65        0.002   0.024   0.000   0.026
   66        0.002   0.025   0.000   0.027
   67        0.002   0.036   0.000   0.038
   68        0.002  -0.006   0.000  -0.005
   69        0.002   0.036   0.000   0.038
   70        0.002   0.016   0.000   0.018
   71        0.002   0.034   0.000   0.036
   72        0.002   0.025   0.000   0.027
   73        0.002   0.054   0.000   0.057
   74        0.002   0.046   0.000   0.049
   75        0.001   0.023   0.000   0.024
   76        0.002   0.006   0.000   0.007
   77        0.002   0.037   0.000   0.039
   78        0.002   0.032   0.000   0.034
   79        0.002   0.044   0.000   0.046
   80        0.003   0.047   0.000   0.049
   81        0.002   0.035   0.000   0.037
   82        0.002   0.038   0.000   0.040
   83        0.002   0.029   0.000   0.031
   84        0.002   0.041   0.000   0.044
   85        0.001  -0.005   0.000  -0.004
   86        0.002   0.017   0.000   0.019
   87        0.002   0.028   0.000   0.029
   88        0.002   0.019   0.000   0.021
--------------------------------------------------
tot          0.424   2.120  44.026  46.570
 

 total amount of memory used by VASP MPI-rank0    94479. kBytes
=======================================================================

   base      :      30000. kBytes
   nonlr-proj:      13720. kBytes
   fftplans  :       1275. kBytes
   grid      :      22786. kBytes
   one-center:       2737. kBytes
   wavefun   :      23961. kBytes
 
  
  
 General timing and accounting informations for this job:
 ========================================================
  
                  Total CPU time used (sec):      805.123
                            User time (sec):      796.542
                          System time (sec):        8.581
                         Elapsed time (sec):      823.018
  
                   Maximum memory used (kb):      193108.
                   Average memory used (kb):           0.
  
                          Minor page faults:       326242
                          Major page faults:            0
                 Voluntary context switches:       277637
