 vasp.5.4.4.18Apr17-6-g9f103f2a35 (build Dec 02 2020 12:53:39) complex          
  
 executed on             LinuxIFC date 2021.07.31  14:03:59
 running on   64 total cores
 distrk:  each k-point on   64 cores,    1 groups
 distr:  one band on NCORES_PER_BAND=   1 cores,   64 groups


--------------------------------------------------------------------------------------------------------


 INCAR:
 POTCAR:    PAW_PBE Na_pv 19Sep2006               
 POTCAR:    PAW_PBE Mg_pv 13Apr2007               
 POTCAR:    PAW_PBE Mn_pv 02Aug2007               
 POTCAR:    PAW_PBE O 08Apr2002                   

 ----------------------------------------------------------------------------- 
|                                                                             |
|           W    W    AA    RRRRR   N    N  II  N    N   GGGG   !!!           |
|           W    W   A  A   R    R  NN   N  II  NN   N  G    G  !!!           |
|           W    W  A    A  R    R  N N  N  II  N N  N  G       !!!           |
|           W WW W  AAAAAA  RRRRR   N  N N  II  N  N N  G  GGG   !            |
|           WW  WW  A    A  R   R   N   NN  II  N   NN  G    G                |
|           W    W  A    A  R    R  N    N  II  N    N   GGGG   !!!           |
|                                                                             |
|      For optimal performance we recommend to set                            |
|        NCORE= 4 - approx SQRT( number of cores)                             |
|      NCORE specifies how many cores store one orbital (NPAR=cpu/NCORE).     |
|      This setting can  greatly improve the performance of VASP for DFT.     |
|      The default,   NCORE=1            might be grossly inefficient         |
|      on modern multi-core architectures or massively parallel machines.     |
|      Do your own testing !!!!                                               |
|      Unfortunately you need to use the default for GW and RPA calculations. |
|      (for HF NCORE is supported but not extensively tested yet)             |
|                                                                             |
 ----------------------------------------------------------------------------- 

 POTCAR:    PAW_PBE Na_pv 19Sep2006               
   VRHFIN =Na: p6s1                                                             
   LEXCH  = PE                                                                  
   EATOM  =   766.0439 eV,   56.3026 Ry                                         
                                                                                
   TITEL  = PAW_PBE Na_pv 19Sep2006                                             
   LULTRA =        F    use ultrasoft PP ?                                      
   IUNSCR =        1    unscreen: 0-lin 1-nonlin 2-no                           
   RPACOR =    1.800    partial core radius                                     
   POMASS =   22.990; ZVAL   =    7.000    mass and valenz                      
   RCORE  =    2.200    outmost cutoff radius                                   
   RWIGS  =    2.200; RWIGS  =    1.164    wigner-seitz radius (au A)           
   ENMAX  =  259.561; ENMIN  =  194.671 eV                                      
   ICORE  =        2    local potential                                         
   LCOR   =        T    correct aug charges                                     
   LPAW   =        T    paw PP                                                  
   EAUG   =  368.056                                                            
   DEXC   =    0.000                                                            
   RMAX   =    2.245    core radius for proj-oper                               
   RAUG   =    1.300    factor for augmentation sphere                          
   RDEP   =    2.259    radius for radial grids                                 
   RDEPT  =    1.738    core radius for aug-charge                              
                                                                                
   Atomic configuration                                                         
    5 entries                                                                   
     n  l   j            E        occ.                                          
     1  0  0.50     -1033.6933   2.0000                                         
     2  0  0.50       -56.7526   2.0000                                         
     2  1  1.50       -28.6721   6.0000                                         
     3  0  0.50        -2.7440   1.0000                                         
     3  2  1.50        -1.3606   0.0000                                         
   Description                                                                  
     l       E           TYP  RCUT    TYP  RCUT                                 
     1    -28.6720912     23  2.000                                             
     1      6.8029130     23  2.000                                             
     0     -2.7439560     23  2.200                                             
     0     34.0145650     23  2.200                                             
     2     -1.3605826     23  2.200                                             
  local pseudopotential read in
  partial core-charges read in
  partial kinetic energy density read in
  atomic valenz-charges read in
  non local Contribution for L=           1  read in
    real space projection operators read in
  non local Contribution for L=           1  read in
    real space projection operators read in
  non local Contribution for L=           0  read in
    real space projection operators read in
  non local Contribution for L=           0  read in
    real space projection operators read in
    PAW grid and wavefunctions read in
 
   number of l-projection  operators is LMAX  =           4
   number of lm-projection operators is LMMAX =           8
 
 POTCAR:    PAW_PBE Mg_pv 13Apr2007               
   VRHFIN =Mg: p6s2                                                             
   LEXCH  = PE                                                                  
   EATOM  =  1056.7344 eV,   77.6678 Ry                                         
                                                                                
   TITEL  = PAW_PBE Mg_pv 13Apr2007                                             
   LULTRA =        F    use ultrasoft PP ?                                      
   IUNSCR =        1    unscreen: 0-lin 1-nonlin 2-no                           
   RPACOR =    1.500    partial core radius                                     
   POMASS =   24.305; ZVAL   =    8.000    mass and valenz                      
   RCORE  =    2.000    outmost cutoff radius                                   
   RWIGS  =    2.000; RWIGS  =    1.058    wigner-seitz radius (au A)           
   ENMAX  =  403.929; ENMIN  =  302.947 eV                                      
   RCLOC  =    1.506    cutoff for local pot                                    
   LCOR   =        T    correct aug charges                                     
   LPAW   =        T    paw PP                                                  
   EAUG   =  758.780                                                            
   DEXC   =    0.000                                                            
   RMAX   =    2.045    core radius for proj-oper                               
   RAUG   =    1.300    factor for augmentation sphere                          
   RDEP   =    2.025    radius for radial grids                                 
   RDEPT  =    1.557    core radius for aug-charge                              
                                                                                
   Atomic configuration                                                         
    5 entries                                                                   
     n  l   j            E        occ.                                          
     1  0  0.50     -1259.6230   2.0000                                         
     2  0  0.50       -79.8442   2.0000                                         
     2  1  1.50       -46.6121   6.0000                                         
     3  0  0.50        -4.7055   2.0000                                         
     3  2  1.50        -1.3606   0.0000                                         
   Description                                                                  
     l       E           TYP  RCUT    TYP  RCUT                                 
     1    -46.6121073     23  1.600                                             
     1      2.7211652     23  1.600                                             
     0     -4.7054661     23  2.000                                             
     0     61.2262170     23  2.000                                             
     2     -1.3605826     23  2.000                                             
  local pseudopotential read in
  partial core-charges read in
  partial kinetic energy density read in
  atomic valenz-charges read in
  non local Contribution for L=           1  read in
    real space projection operators read in
  non local Contribution for L=           1  read in
    real space projection operators read in
  non local Contribution for L=           0  read in
    real space projection operators read in
  non local Contribution for L=           0  read in
    real space projection operators read in
  non local Contribution for L=           2  read in
    real space projection operators read in
    PAW grid and wavefunctions read in
 
   number of l-projection  operators is LMAX  =           5
   number of lm-projection operators is LMMAX =          13
 
 POTCAR:    PAW_PBE Mn_pv 02Aug2007               
   VRHFIN =Mn: 3p4s3d                                                           
   LEXCH  = PE                                                                  
   EATOM  =  2025.2664 eV,  148.8529 Ry                                         
                                                                                
   TITEL  = PAW_PBE Mn_pv 02Aug2007                                             
   LULTRA =        F    use ultrasoft PP ?                                      
   IUNSCR =        1    unscreen: 0-lin 1-nonlin 2-no                           
   RPACOR =    2.080    partial core radius                                     
   POMASS =   54.938; ZVAL   =   13.000    mass and valenz                      
   RCORE  =    2.300    outmost cutoff radius                                   
   RWIGS  =    2.500; RWIGS  =    1.323    wigner-seitz radius (au A)           
   ENMAX  =  269.864; ENMIN  =  202.398 eV                                      
   ICORE  =        3    local potential                                         
   LCOR   =        T    correct aug charges                                     
   LPAW   =        T    paw PP                                                  
   EAUG   =  569.085                                                            
   DEXC   =    0.000                                                            
   RMAX   =    2.343    core radius for proj-oper                               
   RAUG   =    1.300    factor for augmentation sphere                          
   RDEP   =    2.338    radius for radial grids                                 
   RDEPT  =    1.798    core radius for aug-charge                              
                                                                                
   Atomic configuration                                                         
    8 entries                                                                   
     n  l   j            E        occ.                                          
     1  0  0.50     -6424.8287   2.0000                                         
     2  0  0.50      -739.1154   2.0000                                         
     2  1  1.50      -625.3949   6.0000                                         
     3  0  0.50       -81.6100   2.0000                                         
     3  1  1.50       -50.4667   6.0000                                         
     3  2  2.50        -3.3745   6.0000                                         
     4  0  0.50        -4.1331   1.0000                                         
     4  3  2.50        -1.3606   0.0000                                         
   Description                                                                  
     l       E           TYP  RCUT    TYP  RCUT                                 
     1    -50.4666628     23  2.000                                             
     1     -1.3605826     23  2.000                                             
     2     -3.3744729     23  2.300                                             
     2     -4.7350555     23  2.300                                             
     0     -4.1331431     23  2.300                                             
     0      7.6656591     23  2.300                                             
     3      9.5240782     23  2.300                                             
  local pseudopotential read in
  partial core-charges read in
  partial kinetic energy density read in
  atomic valenz-charges read in
  non local Contribution for L=           1  read in
    real space projection operators read in
  non local Contribution for L=           1  read in
    real space projection operators read in
  non local Contribution for L=           2  read in
    real space projection operators read in
  non local Contribution for L=           2  read in
    real space projection operators read in
  non local Contribution for L=           0  read in
    real space projection operators read in
  non local Contribution for L=           0  read in
    real space projection operators read in
    PAW grid and wavefunctions read in
 
   number of l-projection  operators is LMAX  =           6
   number of lm-projection operators is LMMAX =          18
 
 POTCAR:    PAW_PBE O 08Apr2002                   
   VRHFIN =O: s2p4                                                              
   LEXCH  = PE                                                                  
   EATOM  =   432.3788 eV,   31.7789 Ry                                         
                                                                                
   TITEL  = PAW_PBE O 08Apr2002                                                 
   LULTRA =        F    use ultrasoft PP ?                                      
   IUNSCR =        1    unscreen: 0-lin 1-nonlin 2-no                           
   RPACOR =    1.200    partial core radius                                     
   POMASS =   16.000; ZVAL   =    6.000    mass and valenz                      
   RCORE  =    1.520    outmost cutoff radius                                   
   RWIGS  =    1.550; RWIGS  =    0.820    wigner-seitz radius (au A)           
   ENMAX  =  400.000; ENMIN  =  300.000 eV                                      
   ICORE  =        2    local potential                                         
   LCOR   =        T    correct aug charges                                     
   LPAW   =        T    paw PP                                                  
   EAUG   =  605.392                                                            
   DEXC   =    0.000                                                            
   RMAX   =    1.553    core radius for proj-oper                               
   RAUG   =    1.300    factor for augmentation sphere                          
   RDEP   =    1.550    radius for radial grids                                 
   RDEPT  =    1.329    core radius for aug-charge                              
                                                                                
   Atomic configuration                                                         
    4 entries                                                                   
     n  l   j            E        occ.                                          
     1  0  0.50      -514.6923   2.0000                                         
     2  0  0.50       -23.9615   2.0000                                         
     2  1  0.50        -9.0305   4.0000                                         
     3  2  1.50        -9.5241   0.0000                                         
   Description                                                                  
     l       E           TYP  RCUT    TYP  RCUT                                 
     0    -23.9615318     23  1.200                                             
     0     -9.5240782     23  1.200                                             
     1     -9.0304911     23  1.520                                             
     1      8.1634956     23  1.520                                             
     2     -9.5240782      7  1.500                                             
  local pseudopotential read in
  partial core-charges read in
  partial kinetic energy density read in
  kinetic energy density of atom read in
  atomic valenz-charges read in
  non local Contribution for L=           0  read in
    real space projection operators read in
  non local Contribution for L=           0  read in
    real space projection operators read in
  non local Contribution for L=           1  read in
    real space projection operators read in
  non local Contribution for L=           1  read in
    real space projection operators read in
    PAW grid and wavefunctions read in
 
   number of l-projection  operators is LMAX  =           4
   number of lm-projection operators is LMMAX =           8
 
 Optimization of the real space projectors (new method)

 maximal supplied QI-value         = 17.01
 optimisation between [QCUT,QGAM] = [ 10.20, 20.41] = [ 29.16,116.64] Ry 
 Optimized for a Real-space Cutoff    1.30 Angstroem

   l    n(q)    QCUT    max X(q) W(low)/X(q) W(high)/X(q)  e(spline) 
   1      7    10.205     4.940    0.23E-03    0.84E-03    0.11E-06
   1      7    10.205     6.253    0.40E-03    0.13E-02    0.18E-06
   0      8    10.205    37.438    0.23E-03    0.37E-03    0.42E-07
   0      8    10.205     9.606    0.16E-03    0.26E-03    0.31E-07
 Optimization of the real space projectors (new method)

 maximal supplied QI-value         = 18.90
 optimisation between [QCUT,QGAM] = [ 10.20, 20.41] = [ 29.16,116.64] Ry 
 Optimized for a Real-space Cutoff    1.26 Angstroem

   l    n(q)    QCUT    max X(q) W(low)/X(q) W(high)/X(q)  e(spline) 
   1      7    10.205     2.974    0.63E-04    0.14E-03    0.13E-06
   1      7    10.205     4.279    0.11E-03    0.45E-03    0.24E-06
   0      8    10.205    16.381    0.44E-03    0.15E-03    0.55E-07
   0      8    10.205     5.611    0.31E-03    0.11E-03    0.40E-07
   2      7    10.205     4.652    0.50E-03    0.47E-03    0.57E-07
 Optimization of the real space projectors (new method)

 maximal supplied QI-value         = 16.25
 optimisation between [QCUT,QGAM] = [ 10.24, 20.48] = [ 29.35,117.42] Ry 
 Optimized for a Real-space Cutoff    1.34 Angstroem

   l    n(q)    QCUT    max X(q) W(low)/X(q) W(high)/X(q)  e(spline) 
   1      8    10.239     3.658    0.23E-03    0.30E-03    0.98E-07
   1      8    10.239     5.612    0.32E-03    0.65E-03    0.21E-06
   2      7    10.239    55.373    0.42E-03    0.45E-03    0.65E-07
   2      7    10.239    50.863    0.43E-03    0.48E-03    0.67E-07
   0      8    10.239    79.536    0.11E-03    0.21E-03    0.56E-07
   0      8    10.239    38.668    0.96E-04    0.19E-03    0.52E-07
 Optimization of the real space projectors (new method)

 maximal supplied QI-value         = 24.76
 optimisation between [QCUT,QGAM] = [ 10.15, 20.30] = [ 28.85,115.39] Ry 
 Optimized for a Real-space Cutoff    1.38 Angstroem

   l    n(q)    QCUT    max X(q) W(low)/X(q) W(high)/X(q)  e(spline) 
   0      8    10.150    20.381    0.22E-03    0.32E-03    0.29E-06
   0      8    10.150    15.268    0.23E-03    0.35E-03    0.30E-06
   1      8    10.150     5.964    0.46E-03    0.53E-03    0.21E-06
   1      8    10.150     5.382    0.38E-03    0.45E-03    0.19E-06
  PAW_PBE Na_pv 19Sep2006               :
 energy of atom  1       EATOM= -766.0439
 kinetic energy error for atom=    0.0103 (will be added to EATOM!!)
  PAW_PBE Mg_pv 13Apr2007               :
 energy of atom  2       EATOM=-1056.7344
 kinetic energy error for atom=    0.0820 (will be added to EATOM!!)
  PAW_PBE Mn_pv 02Aug2007               :
 energy of atom  3       EATOM=-2025.2664
 kinetic energy error for atom=    0.0284 (will be added to EATOM!!)
  PAW_PBE O 08Apr2002                   :
 energy of atom  4       EATOM= -432.3788
 kinetic energy error for atom=    0.1156 (will be added to EATOM!!)
 
 
 POSCAR: Na Mg Mn  O                             
  positions in cartesian coordinates
  No initial velocities read in

 METAGGA = SCAN     LMAXTAU =  6    LMIXTAU =  F

 exchange correlation table for  LEXCH =        8
   RHO(1)=    0.500       N(1)  =     2000
   RHO(2)=  100.500       N(2)  =     4000

 VTST: version 3.2, (02/03/18)

 CHAIN: initializing optimizer
 
 OPT: Using VASP Dynamics algorithm
 CHAIN: Read ICHAIN            0
 
 POSCAR: Na Mg Mn  O                             
  positions in cartesian coordinates
  No initial velocities read in
 


--------------------------------------------------------------------------------------------------------


 ion  position               nearest neighbor table
   1  0.462  0.927  0.254-  88 2.16  62 2.16  79 2.23  53 2.32  29 2.78  31 2.80
   2  0.281  0.101  0.752-  46 2.21  48 2.30  26 2.79  28 2.81
   3  0.935  0.930  0.756-  61 2.28  47 2.35  44 2.37  25 2.70  27 2.85
   4  0.776  0.107  0.739-  58 2.21  57 2.38  32 2.72  30 2.91
   5  0.759  0.251  0.245-  53 2.24  64 2.27
   6  0.972  0.138  0.232-  55 2.24  41 2.31
   7  0.607  0.629  0.743-  69 2.31  72 2.33  82 2.35
   8  0.714  0.399  0.746-  68 2.22  71 2.38
   9  0.940  0.595  0.247-  66 2.30
  10  0.754  0.778  0.243-  54 2.33
  11  0.242  0.575  0.251-  87 2.27  77 2.38  40 2.85  38 2.86
  12  0.443  0.853  0.757-  84 2.17  56 2.24  59 2.27  29 2.93
  13  0.234  0.398  0.755-  48 2.25  45 2.32  83 2.33
  14  0.071  0.605  0.745-  73 2.18  70 2.29
  15  0.174  0.989  0.250-  51 2.16  42 2.18  50 2.28  41 2.32  26 2.94
  16  0.436  0.418  0.251-  52 2.24  43 2.36  33 2.87  35 2.92
  17  0.591  0.259  0.014-  49 1.98  43 2.00  60 2.08  53 2.09  66 2.09  71 2.12
  18  0.582  0.259  0.494-  57 2.02  75 2.04  52 2.04  62 2.05  46 2.07  68 2.15  28 2.79  31 2.85

  19  0.111  0.272  0.989-  83 1.91  48 2.00  78 2.05  55 2.12  41 2.16  61 2.18  33 2.80  38 2.80

  20  0.094  0.262  0.504-  45 2.00  58 2.04  80 2.11  50 2.15  87 2.16  64 2.17  28 2.85  27 2.86

  21  0.100  0.760  0.997-  47 2.00  42 2.04  77 2.05  67 2.07  84 2.13  73 2.24  26 2.82  34 2.85

  22  0.084  0.759  0.507-  70 2.00  81 2.01  86 2.02  44 2.06  76 2.06  51 2.16  40 2.84
  23  0.603  0.760  0.016-  59 1.96  65 2.02  54 2.07  79 2.08  72 2.15  85 2.21
  24  0.589  0.765  0.492-  63 2.04  74 2.04  88 2.06  56 2.11  69 2.11  82 2.12  35 2.85
  25  0.938  0.933  0.997-  41 1.86  61 1.89  47 1.90  67 1.92  54 1.92  72 2.05   3 2.70  26 2.78
                            30 2.90  34 2.94
  26  0.258  0.085  0.000-  41 1.85  42 1.85  47 1.88  43 1.90  49 2.03  48 2.07  25 2.78   2 2.79
                            21 2.82  29 2.89  15 2.94  33 2.99
  27  0.927  0.933  0.502-  69 1.89  76 1.91  50 1.92  44 1.92  63 1.92  58 1.92   3 2.85  20 2.86
                            28 2.90  32 2.94  36 2.97
  28  0.261  0.101  0.502-  46 1.80  51 1.87  52 1.89  44 1.94  45 1.95  50 2.00  18 2.79   2 2.81
                            31 2.84  20 2.85  27 2.90  35 2.92
  29  0.434  0.928  0.008-  59 1.91  79 1.92  49 1.95  42 1.96  53 2.01  84 2.02   1 2.78  30 2.88
                            38 2.89  26 2.89  12 2.93
  30  0.765  0.094  0.998-  54 1.87  60 1.89  53 1.89  55 1.89  61 1.93  59 1.93  37 2.87  29 2.88
                            25 2.90   4 2.91
  31  0.418  0.931  0.501-  56 1.86  81 1.87  51 1.91  88 1.93  46 1.95  62 1.96   1 2.80  28 2.84
                            18 2.85  32 2.91  40 2.92
  32  0.754  0.098  0.498-  63 1.85  57 1.92  56 1.95  64 1.95  62 1.99  58 2.00   4 2.72  39 2.84
                            31 2.91  27 2.94
  33  0.433  0.430  0.995-  71 1.85  85 1.89  43 1.92  78 1.92  65 1.97  48 1.97  19 2.80  16 2.87
                            38 2.87  34 2.94  26 2.99
  34  0.771  0.594  0.000-  71 1.86  72 1.91  65 1.95  67 1.96  66 1.97  73 1.97  37 2.83  21 2.85
                            33 2.94  25 2.94
  35  0.427  0.437  0.510-  82 1.89  74 1.90  68 1.92  45 1.96  87 1.96  52 2.01  36 2.82  24 2.85
                            28 2.92  16 2.92  40 2.93
  36  0.752  0.591  0.501-  68 1.87  74 1.87  70 1.88  75 1.88  69 1.91  76 2.02  35 2.82  39 2.90
                            27 2.97
  37  0.928  0.425  0.994-  66 1.88  60 1.88  83 1.92  77 1.92  55 1.92  73 1.94  34 2.83  30 2.87
                            38 2.95
  38  0.267  0.596  0.997-  84 1.84  83 1.95  77 1.95  85 1.96  78 2.01  79 2.02  19 2.80  11 2.86
                            33 2.87  29 2.89  37 2.95
  39  0.922  0.426  0.500-  75 1.87  86 1.92  57 1.92  64 1.96  80 1.99  70 2.05  40 2.83  32 2.84
                            36 2.90
  40  0.247  0.595  0.505-  80 1.82  81 1.89  86 1.90  87 2.01  82 2.04  88 2.07  39 2.83  22 2.84
                            11 2.85  31 2.92  35 2.93
  41  0.100  0.082  0.087-  26 1.85  25 1.86  19 2.16   6 2.31  15 2.32
  42  0.268  0.937  0.093-  26 1.85  29 1.96  21 2.04  15 2.18
  43  0.409  0.258  0.087-  26 1.90  33 1.92  17 2.00  16 2.36
  44  0.094  0.944  0.595-  27 1.92  28 1.94  22 2.06   3 2.37
  45  0.264  0.264  0.598-  28 1.95  35 1.96  20 2.00  13 2.32
  46  0.403  0.088  0.592-  28 1.80  31 1.95  18 2.07   2 2.21
  47  0.099  0.933  0.908-  26 1.88  25 1.90  21 2.00   3 2.35
  48  0.276  0.263  0.895-  33 1.97  19 2.00  26 2.07  13 2.25   2 2.30
  49  0.438  0.092  0.911-  29 1.95  17 1.98  26 2.03
  50  0.088  0.078  0.401-  27 1.92  28 2.00  20 2.15  15 2.28
  51  0.267  0.949  0.410-  28 1.87  31 1.91  15 2.16  22 2.16
  52  0.407  0.265  0.406-  28 1.89  35 2.01  18 2.04  16 2.24
  53  0.613  0.087  0.102-  30 1.89  29 2.01  17 2.09   5 2.24   1 2.32
  54  0.788  0.951  0.092-  30 1.87  25 1.92  23 2.07  10 2.33
  55  0.923  0.260  0.085-  30 1.89  37 1.92  19 2.12   6 2.24
  56  0.581  0.942  0.589-  31 1.86  32 1.95  24 2.11  12 2.24
  57  0.756  0.262  0.588-  32 1.92  39 1.92  18 2.02   4 2.38
  58  0.916  0.088  0.595-  27 1.92  32 2.00  20 2.04   4 2.21
  59  0.594  0.920  0.921-  29 1.91  30 1.93  23 1.96  12 2.27
  60  0.766  0.257  0.914-  37 1.88  30 1.89  17 2.08
  61  0.916  0.077  0.903-  25 1.89  30 1.93  19 2.18   3 2.28
  62  0.583  0.084  0.399-  31 1.96  32 1.99  18 2.05   1 2.16
  63  0.772  0.949  0.413-  32 1.85  27 1.92  24 2.04
  64  0.912  0.261  0.399-  32 1.95  39 1.96  20 2.17   5 2.27
  65  0.602  0.580  0.096-  34 1.95  33 1.97  23 2.02
  66  0.786  0.437  0.096-  37 1.88  34 1.97  17 2.09   9 2.30
  67  0.928  0.768  0.093-  25 1.92  34 1.96  21 2.07
  68  0.595  0.445  0.598-  36 1.87  35 1.92  18 2.15   8 2.22
  69  0.770  0.764  0.587-  27 1.89  36 1.91  24 2.11   7 2.31
  70  0.907  0.592  0.597-  36 1.88  22 2.00  39 2.05  14 2.29
  71  0.602  0.445  0.916-  33 1.85  34 1.86  17 2.12   8 2.38
  72  0.771  0.750  0.903-  34 1.91  25 2.05  23 2.15   7 2.33
  73  0.912  0.571  0.890-  37 1.94  34 1.97  14 2.18  21 2.24
  74  0.591  0.583  0.412-  36 1.87  35 1.90  24 2.04
  75  0.768  0.438  0.415-  39 1.87  36 1.88  18 2.04
  76  0.917  0.770  0.408-  27 1.91  36 2.02  22 2.06
  77  0.094  0.580  0.087-  37 1.92  38 1.95  21 2.05  11 2.38
  78  0.281  0.435  0.096-  33 1.92  38 2.01  19 2.05
  79  0.422  0.764  0.104-  29 1.92  38 2.02  23 2.08   1 2.23
  80  0.097  0.446  0.598-  40 1.82  39 1.99  20 2.11
  81  0.266  0.767  0.590-  31 1.87  40 1.89  22 2.01
  82  0.418  0.591  0.601-  35 1.89  40 2.04  24 2.12   7 2.35
  83  0.097  0.433  0.908-  19 1.91  37 1.92  38 1.95  13 2.33
  84  0.282  0.753  0.903-  38 1.84  29 2.02  21 2.13  12 2.17
  85  0.423  0.582  0.901-  33 1.89  38 1.96  23 2.21
  86  0.086  0.589  0.412-  40 1.90  39 1.92  22 2.02
  87  0.276  0.446  0.404-  35 1.96  40 2.01  20 2.16  11 2.27
  88  0.413  0.771  0.402-  31 1.93  24 2.06  40 2.07   1 2.16
 
  LATTYP: Found a hexagonal cell.
 ALAT       =    10.0190000534
 C/A-ratio  =     1.1196726572
  
  Lattice vectors:
  
 A1 = (  10.0190000534,   0.0000000000,   0.0000000000)
 A2 = (  -5.0095000267,   8.6767085668,   0.0000000000)
 A3 = (   0.0000000000,   0.0000000000,  11.2180004120)


Analysis of symmetry for initial positions (statically):
=====================================================================
 Subroutine PRICEL returns:
 Original cell was already a primitive cell.
 

 Routine SETGRP: Setting up the symmetry group for a 
 hexagonal supercell.


 Subroutine GETGRP returns: Found  1 space group operations
 (whereof  1 operations were pure point group operations)
 out of a pool of 24 trial point group operations.


The static configuration has the point symmetry C_1 .


Analysis of symmetry for dynamics (positions and initial velocities):
=====================================================================
 Subroutine PRICEL returns:
 Original cell was already a primitive cell.
 

 Routine SETGRP: Setting up the symmetry group for a 
 hexagonal supercell.


 Subroutine GETGRP returns: Found  1 space group operations
 (whereof  1 operations were pure point group operations)
 out of a pool of 24 trial point group operations.


The dynamic configuration has the point symmetry C_1 .


Analysis of structural, dynamic, and magnetic symmetry:
=====================================================================
 Subroutine PRICEL returns:
 Original cell was already a primitive cell.
 

 Routine SETGRP: Setting up the symmetry group for a 
 hexagonal supercell.


 Subroutine GETGRP returns: Found  1 space group operations
 (whereof  1 operations were pure point group operations)
 out of a pool of 24 trial point group operations.


The magnetic configuration has the point symmetry C_1 .


 Subroutine INISYM returns: Found  1 space group operations
 (whereof  1 operations are pure point group operations),
 and found     1 'primitive' translations

 
 

Automatic generation of k-mesh.
 generate k-points for:    2    2    2
Space group operators:
 irot       det(A)        alpha          n_x          n_y          n_z        tau_x        tau_y        tau_z
    1     1.000000     0.000000     1.000000     0.000000     0.000000     0.000000     0.000000     0.000000
 
 Subroutine IBZKPT returns following result:
 ===========================================
 
 Found      8 irreducible k-points:
 
 Following reciprocal coordinates:
            Coordinates               Weight
  0.000000  0.000000  0.000000      1.000000
  0.500000 -0.000000 -0.000000      1.000000
  0.000000  0.500000  0.000000      1.000000
  0.500000  0.500000 -0.000000      1.000000
  0.000000  0.000000  0.500000      1.000000
  0.500000 -0.000000  0.500000      1.000000
  0.000000  0.500000  0.500000      1.000000
  0.500000  0.500000  0.500000      1.000000
 
 Following cartesian coordinates:
            Coordinates               Weight
  0.000000  0.000000  0.000000      1.000000
  0.049905  0.028813 -0.000000      1.000000
  0.000000  0.057626  0.000000      1.000000
  0.049905  0.086438 -0.000000      1.000000
  0.000000  0.000000  0.044571      1.000000
  0.049905  0.028813  0.044571      1.000000
  0.000000  0.057626  0.044571      1.000000
  0.049905  0.086438  0.044571      1.000000
 


--------------------------------------------------------------------------------------------------------




 Dimension of arrays:
   k-points           NKPTS =      8   k-points in BZ     NKDIM =      8   number of bands    NBANDS=    448
   number of dos      NEDOS =    301   number of ions     NIONS =     88
   non local maximal  LDIM  =      6   non local SUM 2l+1 LMDIM =     18
   total plane-waves  NPLWV = 140000
   max r-space proj   IRMAX =   1632   max aug-charges    IRDMAX=   4555
   dimension x,y,z NGX =    50 NGY =   50 NGZ =   56
   dimension x,y,z NGXF=   100 NGYF=  100 NGZF=  112
   support grid    NGXF=   100 NGYF=  100 NGZF=  112
   ions per type =              16   8  16  48
   NGX,Y,Z   is equivalent  to a cutoff of   8.30,  8.30,  8.30 a.u.
   NGXF,Y,Z  is equivalent  to a cutoff of  16.59, 16.59, 16.60 a.u.

 SYSTEM =  unknown system                          
 POSCAR =  Na Mg Mn  O                             

 Startparameter for this run:
   NWRITE =      2    write-flag & timer
   PREC   = normal    normal or accurate (medium, high low for compatibility)
   ISTART =      0    job   : 0-new  1-cont  2-samecut
   ICHARG =      1    charge: 1-file 2-atom 10-const
   ISPIN  =      2    spin polarized calculation?
   LNONCOLLINEAR =      F non collinear calculations
   LSORBIT =      F    spin-orbit coupling
   INIWAV =      1    electr: 0-lowe 1-rand  2-diag
   LASPH  =      T    aspherical Exc in radial PAW
   METAGGA=      F    non-selfconsistent MetaGGA calc.

 Electronic Relaxation 1
   ENCUT  =  400.0 eV  29.40 Ry    5.42 a.u.  16.34 16.34 18.29*2*pi/ulx,y,z
   ENINI  =  400.0     initial cutoff
   ENAUG  =  758.8 eV  augmentation charge cutoff
   NELM   =    200;   NELMIN=  6; NELMDL=-12     # of ELM steps 
   EDIFF  = 0.1E-04   stopping-criterion for ELM
   LREAL  =      T    real-space projection
   NLSPLINE    = F    spline interpolate recip. space projectors
   LCOMPAT=      F    compatible to vasp.4.4
   GGA_COMPAT  = T    GGA compatible to vasp.4.4-vasp.4.6
   LMAXPAW     = -100 max onsite density
   LMAXMIX     =    4 max onsite mixed and CHGCAR
   VOSKOWN=      0    Vosko Wilk Nusair interpolation
   ROPT   =   -0.00050  -0.00050  -0.00050  -0.00050
 Ionic relaxation
   EDIFFG = 0.1E-03   stopping-criterion for IOM
   NSW    =      1    number of steps for IOM
   NBLOCK =      1;   KBLOCK =      1    inner block; outer block 
   IBRION =     -1    ionic relax: 0-MD 1-quasi-New 2-CG
   NFREE  =      0    steps in history (QN), initial steepest desc. (CG)
   ISIF   =      2    stress and relaxation
   IWAVPR =     10    prediction:  0-non 1-charg 2-wave 3-comb
   ISYM   =      2    0-nonsym 1-usesym 2-fastsym
   LCORR  =      T    Harris-Foulkes like correction to forces

   POTIM  = 0.5000    time-step for ionic-motion
   TEIN   =    0.0    initial temperature
   TEBEG  =    0.0;   TEEND  =   0.0 temperature during run
   SMASS  =  -3.00    Nose mass-parameter (am)
   estimated Nose-frequenzy (Omega)   =  0.10E-29 period in steps =****** mass=  -0.229E-26a.u.
   SCALEE = 1.0000    scale energy and forces
   NPACO  =    256;   APACO  = 16.0  distance and # of slots for P.C.
   PSTRESS=    0.0 pullay stress

  Mass of Ions in am
   POMASS =  22.99 24.30 54.94 16.00
  Ionic Valenz
   ZVAL   =   7.00  8.00 13.00  6.00
  Atomic Wigner-Seitz radii
   RWIGS  =  -1.00 -1.00 -1.00 -1.00
  virtual crystal weights 
   VCA    =   1.00  1.00  1.00  1.00
   NELECT =     672.0000    total number of electrons
   NUPDOWN=      48.0000    fix difference up-down

 DOS related values:
   EMIN   =  10.00;   EMAX   =-10.00  energy-range for DOS
   EFERMI =   0.00
   ISMEAR =     0;   SIGMA  =   0.05  broadening in eV -4-tet -1-fermi 0-gaus

 Electronic relaxation 2 (details)
   IALGO  =     48    algorithm
   LDIAG  =      T    sub-space diagonalisation (order eigenvalues)
   LSUBROT=      F    optimize rotation matrix (better conditioning)
   TURBO    =      0    0=normal 1=particle mesh
   IRESTART =      0    0=no restart 2=restart with 2 vectors
   NREBOOT  =      0    no. of reboots
   NMIN     =      0    reboot dimension
   EREF     =   0.00    reference energy to select bands
   IMIX   =      4    mixing-type and parameters
     AMIX     =   0.40;   BMIX     =  1.00
     AMIX_MAG =   1.60;   BMIX_MAG =  1.00
     AMIN     =   0.10
     WC   =   100.;   INIMIX=   1;  MIXPRE=   1;  MAXMIX= -45

 Intra band minimization:
   WEIMIN = 0.0000     energy-eigenvalue tresh-hold
   EBREAK =  0.56E-08  absolut break condition
   DEPER  =   0.30     relativ break condition  

   TIME   =   0.40     timestep for ELM

  volume/ion in A,a.u.               =      11.08        74.78
  Fermi-wavevector in a.u.,A,eV,Ry     =   1.445993  2.732531 28.448379  2.090897
  Thomas-Fermi vector in A             =   2.564112
 
 Write flags
   LWAVE        =      F    write WAVECAR
   LDOWNSAMPLE  =      F    k-point downsampling of WAVECAR
   LCHARG       =      F    write CHGCAR
   LVTOT        =      F    write LOCPOT, total local potential
   LVHAR        =      F    write LOCPOT, Hartree potential only
   LELF         =      F    write electronic localiz. function (ELF)
   LORBIT       =     11    0 simple, 1 ext, 2 COOP (PROOUT), +10 PAW based schemes


 Dipole corrections
   LMONO  =      F    monopole corrections only (constant potential shift)
   LDIPOL =      F    correct potential (dipole corrections)
   IDIPOL =      0    1-x, 2-y, 3-z, 4-all directions 
   EPSILON=  1.0000000 bulk dielectric constant

 Exchange correlation treatment:
   GGA     =    --    GGA type
   LEXCH   =     8    internal setting for exchange type
   VOSKOWN=      0    Vosko Wilk Nusair interpolation
   LHFCALC =     F    Hartree Fock is set to
   LHFONE  =     F    Hartree Fock one center treatment
   AEXX    =    0.0000 exact exchange contribution

 Linear response parameters
   LEPSILON=     F    determine dielectric tensor
   LRPA    =     F    only Hartree local field effects (RPA)
   LNABLA  =     F    use nabla operator in PAW spheres
   LVEL    =     F    velocity operator in full k-point grid
   LINTERFAST=   F  fast interpolation
   KINTER  =     0    interpolate to denser k-point grid
   CSHIFT  =0.1000    complex shift for real part using Kramers Kronig
   OMEGAMAX=  -1.0    maximum frequency
   DEG_THRESHOLD= 0.2000000E-02 threshold for treating states as degnerate
   RTIME   =   -0.100 relaxation time in fs
  (WPLASMAI=    0.000 imaginary part of plasma frequency in eV, 0.658/RTIME)
   DFIELD  = 0.0000000 0.0000000 0.0000000 field for delta impulse in time
 
 Orbital magnetization related:
   ORBITALMAG=     F  switch on orbital magnetization
   LCHIMAG   =     F  perturbation theory with respect to B field
   DQ        =  0.001000  dq finite difference perturbation B field
   LLRAUG    =     F  two centre corrections for induced B field



--------------------------------------------------------------------------------------------------------


 Static calculation
 charge density and potential will be updated during run
 spin polarized calculation
 RMM-DIIS sequential band-by-band
 perform sub-space diagonalisation
    before iterative eigenvector-optimisation
 modified Broyden-mixing scheme, WC =      100.0
 initial mixing is a Kerker type mixing with AMIX =  0.4000 and BMIX =      1.0000
 Hartree-type preconditioning will be used
 using additional bands          112
 real space projection scheme for non local part
 use partial core corrections
 calculate Harris-corrections to forces 
   (improved forces if not selfconsistent)
 use gradient corrections 
 use of overlap-Matrix (Vanderbilt PP)
 Gauss-broadening in eV      SIGMA  =   0.05


--------------------------------------------------------------------------------------------------------


  energy-cutoff  :      400.00
  volume of cell :      975.20
      direct lattice vectors                 reciprocal lattice vectors
    10.019000053  0.000000000  0.000000000     0.099810360  0.057625538 -0.000000000
    -5.009500027  8.676708567  0.000000000     0.000000000  0.115251076  0.000000000
     0.000000000  0.000000000 11.218000412     0.000000000  0.000000000  0.089142446

  length of vectors
    10.019000053 10.019000053 11.218000412     0.115251076  0.115251076  0.089142446


 
 k-points in units of 2pi/SCALE and weight: read from INCAR                         
   0.00000000  0.00000000  0.00000000       0.125
   0.04990518  0.02881277 -0.00000000       0.125
   0.00000000  0.05762554  0.00000000       0.125
   0.04990518  0.08643831 -0.00000000       0.125
   0.00000000  0.00000000  0.04457122       0.125
   0.04990518  0.02881277  0.04457122       0.125
   0.00000000  0.05762554  0.04457122       0.125
   0.04990518  0.08643831  0.04457122       0.125
 
 k-points in reciprocal lattice and weights: read from INCAR                         
   0.00000000  0.00000000  0.00000000       0.125
   0.50000000 -0.00000000 -0.00000000       0.125
   0.00000000  0.50000000  0.00000000       0.125
   0.50000000  0.50000000 -0.00000000       0.125
   0.00000000  0.00000000  0.50000000       0.125
   0.50000000 -0.00000000  0.50000000       0.125
   0.00000000  0.50000000  0.50000000       0.125
   0.50000000  0.50000000  0.50000000       0.125
 
 position of ions in fractional coordinates (direct lattice) 
   0.46182612  0.92694597  0.25434479
   0.28060124  0.10108869  0.75183898
   0.93486798  0.92974196  0.75639416
   0.77614878  0.10712341  0.73936260
   0.75904059  0.25058943  0.24525226
   0.97173440  0.13834854  0.23184613
   0.60712455  0.62888133  0.74296485
   0.71354130  0.39897601  0.74572648
   0.94000628  0.59516578  0.24653948
   0.75446292  0.77804652  0.24263237
   0.24245989  0.57524018  0.25101800
   0.44329062  0.85269562  0.75653322
   0.23354712  0.39778712  0.75465856
   0.07087827  0.60483666  0.74470759
   0.17373118  0.98938669  0.24977357
   0.43572377  0.41774959  0.25053930
   0.59099696  0.25871216  0.01387467
   0.58232889  0.25871907  0.49427704
   0.11082817  0.27247198  0.98885318
   0.09359818  0.26175709  0.50422444
   0.09982343  0.76003014  0.99694238
   0.08426583  0.75938704  0.50730164
   0.60267679  0.76007163  0.01615671
   0.58937270  0.76519915  0.49224459
   0.93816084  0.93285028  0.99709845
   0.25837227  0.08546997  0.00022951
   0.92732146  0.93271659  0.50249419
   0.26139022  0.10120543  0.50203065
   0.43376291  0.92790370  0.00779101
   0.76525551  0.09411818  0.99849346
   0.41823414  0.93077230  0.50091993
   0.75387742  0.09826088  0.49759670
   0.43291557  0.42989343  0.99497984
   0.77124963  0.59396947  0.00008945
   0.42735425  0.43725567  0.50991975
   0.75249828  0.59080352  0.50133444
   0.92794671  0.42502407  0.99368993
   0.26744948  0.59551499  0.99698810
   0.92187031  0.42589652  0.50041449
   0.24749700  0.59483270  0.50482348
   0.10022584  0.08177536  0.08729158
   0.26798708  0.93724176  0.09284810
   0.40919244  0.25802757  0.08714120
   0.09402613  0.94399397  0.59531287
   0.26371338  0.26410706  0.59844355
   0.40327479  0.08792896  0.59206184
   0.09896146  0.93282061  0.90788907
   0.27614949  0.26330607  0.89472273
   0.43787234  0.09187205  0.91122300
   0.08754191  0.07844184  0.40063646
   0.26726951  0.94882587  0.41019521
   0.40705754  0.26487463  0.40584149
   0.61319945  0.08734510  0.10164200
   0.78798690  0.95140450  0.09165359
   0.92271287  0.25991423  0.08496621
   0.58128363  0.94157116  0.58887054
   0.75578633  0.26216854  0.58823318
   0.91580376  0.08799039  0.59547867
   0.59419887  0.92043688  0.92116238
   0.76570208  0.25722311  0.91422710
   0.91559007  0.07675157  0.90254944
   0.58261299  0.08445945  0.39891066
   0.77189155  0.94876963  0.41344445
   0.91156437  0.26139405  0.39865661
   0.60216496  0.57963685  0.09598591
   0.78570460  0.43679697  0.09601176
   0.92753739  0.76824178  0.09257532
   0.59542255  0.44496827  0.59779370
   0.77038979  0.76359024  0.58739791
   0.90722916  0.59161374  0.59682027
   0.60161936  0.44466401  0.91645566
   0.77075977  0.75037671  0.90331607
   0.91219269  0.57125233  0.88987160
   0.59101321  0.58320617  0.41237474
   0.76795305  0.43802209  0.41465322
   0.91696477  0.76985529  0.40789979
   0.09363852  0.57964953  0.08733152
   0.28078487  0.43527450  0.09568818
   0.42199806  0.76422528  0.10441968
   0.09740437  0.44602743  0.59773754
   0.26614376  0.76674005  0.58967728
   0.41813341  0.59077125  0.60096450
   0.09695278  0.43278969  0.90752359
   0.28174967  0.75312544  0.90328041
   0.42341050  0.58164683  0.90106076
   0.08605825  0.58883273  0.41206809
   0.27649774  0.44589258  0.40379478
   0.41294780  0.77067473  0.40181582
 
 position of ions in cartesian coordinates  (Angst):
  -0.01649995  8.04284000  2.85324000
   2.30494000  0.87711713  8.43413000
   4.70889995  8.06710000  8.48523000
   7.23959997  0.92947857  8.29417000
   6.34949997  2.17429143  2.75124000
   9.04275000  1.20041000  2.60085000
   2.93239989  5.45662000  8.33458000
   5.15029997  3.46179857  8.36556000
   6.43644000  5.16408000  2.76568000
   3.66134000  6.75088287  2.72185000
  -0.45246003  4.99119143  2.81592000
   0.16975003  7.39859143  8.48679000
   0.34719400  3.45148287  8.46576000
  -2.31979987  5.24799143  8.35413000
  -3.21572000  8.58462000  2.80196000
   2.27279992  3.62469143  2.81055000
   4.62518000  2.24477000  0.15564600
   4.53830000  2.24483000  5.54480000
  -0.25456100  2.36416000 11.09295541
  -0.37351200  2.27119000  5.65639000
  -2.80724000  6.59456000 11.18370000
  -2.95989000  6.58898000  5.69091000
   2.23064000  6.59492000  0.18124600
   2.07166000  6.63941000  5.52200000
   4.72632000  8.09407000 11.18545081
   2.16047000  0.74159800  0.00257459
   4.61839000  8.09291000  5.63698000
   2.11188000  0.87813000  5.63178000
  -0.30246300  8.05115000  0.08739959
   7.19561000  0.81663600 11.20110000
  -0.47241600  8.07604000  5.61932000
   7.06086000  0.85258100  5.58204000
   2.18383000  3.73006000 11.16168431
   4.75166000  5.15370000  0.00100341
   2.09123000  3.79394000  5.72028000
   4.57965000  5.12623000  5.62397000
   7.16794000  3.68781000 11.14721401
  -0.30365600  5.16711000 11.18421291
   7.10269000  3.69538000  5.61365000
  -0.50014200  5.16119000  5.66311000
   0.59450900  0.70954100  0.97923700
  -2.01015003  8.13217357  1.04157000
   2.80711000  2.23883000  0.97755000
  -3.78689003  8.19076057  6.67822000
   1.31910000  2.29158000  6.71334000
   3.59993000  0.76293400  6.64175000
  -3.68147003  8.09381257 10.18470000
   1.44771000  2.28463000 10.03700000
   3.92681000  0.79714700 10.22210000
   0.48412800  0.68061700  4.49434000
  -2.07537003  8.23268557  4.60157000
   2.75142000  2.29824000  4.55273000
   5.70609000  0.75786800  1.14022000
   3.12877997  8.25505957  1.02817000
   7.94262000  2.25520000  0.95315100
   1.10707997  8.16973857  6.60595000
   6.25889000  2.27476000  6.59880000
   8.73465000  0.76346700  6.68008000
   1.34234997  7.98636257 10.33360000
   6.38301000  2.23185000 10.25580000
   8.78881000  0.66595100 10.12480000
   5.41410000  0.73283000  4.47498000
   2.98071997  8.23219757  4.63802000
   7.82351000  2.26804000  4.47213000
   3.12940000  5.02934000  1.07677000
   5.68384000  3.78996000  1.07706000
   5.44449000  6.66581000  1.03851000
   3.73647000  3.86086000  6.70605000
   3.89333000  6.62545000  6.58943000
   6.12584000  5.13326000  6.69513000
   3.80008000  3.85822000 10.28080000
   3.96323000  6.51080000 10.13340000
   6.27757000  4.95659000  9.98258000
   2.99979000  5.06031000  4.62602000
   5.49985000  3.80059000  4.65158000
   5.33048000  6.67981000  4.57582000
  -1.96559000  5.02945000  0.97968500
   0.63267600  3.77675000  1.07343000
   0.39961200  6.63096000  1.17138000
  -1.25848000  3.87005000  6.70542000
  -1.17449000  6.65278000  6.61500000
   1.22981000  5.12595000  6.74162000
  -1.19669000  3.75519000 10.18060000
  -0.94993200  6.53465000 10.13300000
   1.32839000  5.04678000 10.10810000
  -2.08754000  5.10913000  4.62258000
   0.53653200  3.86888000  4.52977000
   0.27662900  6.68692000  4.50757000
 


--------------------------------------------------------------------------------------------------------


 k-point  1 :   0.0000 0.0000 0.0000  plane waves:   17725
 k-point  2 :   0.5000-0.0000-0.0000  plane waves:   17736
 k-point  3 :   0.0000 0.5000 0.0000  plane waves:   17736
 k-point  4 :   0.5000 0.5000-0.0000  plane waves:   17736
 k-point  5 :   0.0000 0.0000 0.5000  plane waves:   17676
 k-point  6 :   0.5000-0.0000 0.5000  plane waves:   17700
 k-point  7 :   0.0000 0.5000 0.5000  plane waves:   17700
 k-point  8 :   0.5000 0.5000 0.5000  plane waves:   17700

 maximum and minimum number of plane-waves per node :     17736    17676

 maximum number of plane-waves:     17736
 maximum index in each direction: 
   IXMAX=   16   IYMAX=   16   IZMAX=   18
   IXMIN=  -16   IYMIN=  -16   IZMIN=  -18


 serial   3D FFT for wavefunctions
 parallel 3D FFT for charge:
    minimum data exchange during FFTs selected (reduces bandwidth)


 total amount of memory used by VASP MPI-rank0   104117. kBytes
=======================================================================

   base      :      30000. kBytes
   nonlr-proj:      13675. kBytes
   fftplans  :       1316. kBytes
   grid      :      22786. kBytes
   one-center:       2737. kBytes
   wavefun   :      33603. kBytes
 
     INWAV:  cpu time    0.0000: real time    0.0001
 Broyden mixing: mesh for mixing (old mesh)
   NGX = 33   NGY = 33   NGZ = 37
  (NGX  =100   NGY  =100   NGZ  =112)
  gives a total of  40293 points

 initial charge density was supplied:
 charge density of overlapping atoms calculated
 number of electron     672.0000000 magnetization      48.0000000
 keeping initial charge density in first step


--------------------------------------------------------------------------------------------------------


 Maximum index for non-local projection operator         1550
 Maximum index for augmentation-charges          248 (set IRDMAX)


--------------------------------------------------------------------------------------------------------


 First call to EWALD:  gamma=   0.179
 Maximum number of real-space cells 3x 3x 2
 Maximum number of reciprocal cells 3x 3x 3

    FEWALD:  cpu time    0.0021: real time    0.0031


--------------------------------------- Iteration      1(   1)  ---------------------------------------


    POTLOK:  cpu time    0.0671: real time    0.0698
    SETDIJ:  cpu time    2.5328: real time    2.5343
    EDDIAG:  cpu time    3.6542: real time    3.6685
  RMM-DIIS:  cpu time   10.3866: real time   10.4298
    ORTHCH:  cpu time    0.5979: real time    0.6019
       DOS:  cpu time    0.0013: real time    0.0015
    --------------------------------------------
      LOOP:  cpu time   17.2398: real time   17.3058

 eigenvalue-minimisations  :  7168
 total energy-change (2. order) : 0.1772758E+04  (-0.3596734E+05)
 number of electron     672.0000000 magnetization      48.0000000
 augmentation part      672.0000000 magnetization      48.0000000

 Free energy of the ion-electron system (eV)
  ---------------------------------------------------
  alpha Z        PSCENC =      2652.81237852
  Ewald energy   TEWEN  =    -41911.66439830
  -Hartree energ DENC   =    -25701.95865737
  -exchange      EXHF   =         0.00000000
  -V(xc)+E(xc)   XCENC  =      3605.73404601
  PAW double counting   =     55594.23204139   -59034.67079123
  entropy T*S    EENTRO =        -0.04510991
  eigenvalues    EBANDS =     -7293.87942386
  atomic energy  EATOM  =     73862.19814772
  Solvation  Ediel_sol  =         0.00000000
  ---------------------------------------------------
  free energy    TOTEN  =      1772.75823297 eV

  energy without entropy =     1772.80334288  energy(sigma->0) =     1772.78078793


--------------------------------------------------------------------------------------------------------




--------------------------------------- Iteration      1(   2)  ---------------------------------------


    EDDIAG:  cpu time    3.6415: real time    3.6526
  RMM-DIIS:  cpu time   10.3985: real time   10.4148
    ORTHCH:  cpu time    0.5991: real time    0.6030
       DOS:  cpu time    0.0010: real time    0.0010
    --------------------------------------------
      LOOP:  cpu time   14.6401: real time   14.6715

 eigenvalue-minimisations  :  7168
 total energy-change (2. order) :-0.2603467E+04  (-0.8656173E+04)
 number of electron     672.0000000 magnetization      48.0000000
 augmentation part      672.0000000 magnetization      48.0000000

 Free energy of the ion-electron system (eV)
  ---------------------------------------------------
  alpha Z        PSCENC =      2652.81237852
  Ewald energy   TEWEN  =    -41911.66439830
  -Hartree energ DENC   =    -25701.95865737
  -exchange      EXHF   =         0.00000000
  -V(xc)+E(xc)   XCENC  =      3605.73404601
  PAW double counting   =     55594.23204139   -59034.67079123
  entropy T*S    EENTRO =        -0.04075158
  eigenvalues    EBANDS =     -9897.35052477
  atomic energy  EATOM  =     73862.19814772
  Solvation  Ediel_sol  =         0.00000000
  ---------------------------------------------------
  free energy    TOTEN  =      -830.70850961 eV

  energy without entropy =     -830.66775803  energy(sigma->0) =     -830.68813382


--------------------------------------------------------------------------------------------------------




--------------------------------------- Iteration      1(   3)  ---------------------------------------


    EDDIAG:  cpu time    3.6765: real time    3.6865
  RMM-DIIS:  cpu time   10.3850: real time   10.4198
    ORTHCH:  cpu time    0.5941: real time    0.5978
       DOS:  cpu time    0.0010: real time    0.0010
    --------------------------------------------
      LOOP:  cpu time   14.6566: real time   14.7051

 eigenvalue-minimisations  :  7168
 total energy-change (2. order) : 0.2961578E+03  (-0.1555617E+04)
 number of electron     672.0000000 magnetization      48.0000000
 augmentation part      672.0000000 magnetization      48.0000000

 Free energy of the ion-electron system (eV)
  ---------------------------------------------------
  alpha Z        PSCENC =      2652.81237852
  Ewald energy   TEWEN  =    -41911.66439830
  -Hartree energ DENC   =    -25701.95865737
  -exchange      EXHF   =         0.00000000
  -V(xc)+E(xc)   XCENC  =      3605.73404601
  PAW double counting   =     55594.23204139   -59034.67079123
  entropy T*S    EENTRO =        -0.05936848
  eigenvalues    EBANDS =     -9601.17406946
  atomic energy  EATOM  =     73862.19814772
  Solvation  Ediel_sol  =         0.00000000
  ---------------------------------------------------
  free energy    TOTEN  =      -534.55067119 eV

  energy without entropy =     -534.49130271  energy(sigma->0) =     -534.52098695


--------------------------------------------------------------------------------------------------------




--------------------------------------- Iteration      1(   4)  ---------------------------------------


    EDDIAG:  cpu time    3.6640: real time    3.6756
  RMM-DIIS:  cpu time   10.3998: real time   10.4149
    ORTHCH:  cpu time    0.5952: real time    0.5988
       DOS:  cpu time    0.0008: real time    0.0008
    --------------------------------------------
      LOOP:  cpu time   14.6598: real time   14.6901

 eigenvalue-minimisations  :  7168
 total energy-change (2. order) :-0.5233498E+03  (-0.5064958E+03)
 number of electron     672.0000000 magnetization      48.0000000
 augmentation part      672.0000000 magnetization      48.0000000

 Free energy of the ion-electron system (eV)
  ---------------------------------------------------
  alpha Z        PSCENC =      2652.81237852
  Ewald energy   TEWEN  =    -41911.66439830
  -Hartree energ DENC   =    -25701.95865737
  -exchange      EXHF   =         0.00000000
  -V(xc)+E(xc)   XCENC  =      3605.73404601
  PAW double counting   =     55594.23204139   -59034.67079123
  entropy T*S    EENTRO =        -0.00178640
  eigenvalues    EBANDS =    -10124.58144179
  atomic energy  EATOM  =     73862.19814772
  Solvation  Ediel_sol  =         0.00000000
  ---------------------------------------------------
  free energy    TOTEN  =     -1057.90046145 eV

  energy without entropy =    -1057.89867504  energy(sigma->0) =    -1057.89956824


--------------------------------------------------------------------------------------------------------




--------------------------------------- Iteration      1(   5)  ---------------------------------------


    EDDIAG:  cpu time    3.6646: real time    3.6737
  RMM-DIIS:  cpu time   10.3717: real time   10.4148
    ORTHCH:  cpu time    0.5963: real time    0.6002
       DOS:  cpu time    0.0007: real time    0.0007
    --------------------------------------------
      LOOP:  cpu time   14.6332: real time   14.6893

 eigenvalue-minimisations  :  7168
 total energy-change (2. order) :-0.1471041E+03  (-0.2119803E+03)
 number of electron     672.0000000 magnetization      48.0000000
 augmentation part      672.0000000 magnetization      48.0000000

 Free energy of the ion-electron system (eV)
  ---------------------------------------------------
  alpha Z        PSCENC =      2652.81237852
  Ewald energy   TEWEN  =    -41911.66439830
  -Hartree energ DENC   =    -25701.95865737
  -exchange      EXHF   =         0.00000000
  -V(xc)+E(xc)   XCENC  =      3605.73404601
  PAW double counting   =     55594.23204139   -59034.67079123
  entropy T*S    EENTRO =        -0.00000000
  eigenvalues    EBANDS =    -10271.68728331
  atomic energy  EATOM  =     73862.19814772
  Solvation  Ediel_sol  =         0.00000000
  ---------------------------------------------------
  free energy    TOTEN  =     -1205.00451656 eV

  energy without entropy =    -1205.00451656  energy(sigma->0) =    -1205.00451656


--------------------------------------------------------------------------------------------------------




--------------------------------------- Iteration      1(   6)  ---------------------------------------


    EDDIAG:  cpu time    3.6775: real time    3.6889
  RMM-DIIS:  cpu time   10.4053: real time   10.4199
    ORTHCH:  cpu time    0.5950: real time    0.5989
       DOS:  cpu time    0.0006: real time    0.0006
    --------------------------------------------
      LOOP:  cpu time   14.6784: real time   14.7083

 eigenvalue-minimisations  :  7168
 total energy-change (2. order) :-0.2147633E+02  (-0.1145108E+03)
 number of electron     672.0000000 magnetization      48.0000000
 augmentation part      672.0000000 magnetization      48.0000000

 Free energy of the ion-electron system (eV)
  ---------------------------------------------------
  alpha Z        PSCENC =      2652.81237852
  Ewald energy   TEWEN  =    -41911.66439830
  -Hartree energ DENC   =    -25701.95865737
  -exchange      EXHF   =         0.00000000
  -V(xc)+E(xc)   XCENC  =      3605.73404601
  PAW double counting   =     55594.23204139   -59034.67079123
  entropy T*S    EENTRO =        -0.00000000
  eigenvalues    EBANDS =    -10293.16360918
  atomic energy  EATOM  =     73862.19814772
  Solvation  Ediel_sol  =         0.00000000
  ---------------------------------------------------
  free energy    TOTEN  =     -1226.48084244 eV

  energy without entropy =    -1226.48084244  energy(sigma->0) =    -1226.48084244


--------------------------------------------------------------------------------------------------------




--------------------------------------- Iteration      1(   7)  ---------------------------------------


    EDDIAG:  cpu time    3.6587: real time    3.6683
  RMM-DIIS:  cpu time   10.4072: real time   10.4229
    ORTHCH:  cpu time    0.6207: real time    0.6339
       DOS:  cpu time    0.0006: real time    0.0006
    --------------------------------------------
      LOOP:  cpu time   14.6872: real time   14.7258

 eigenvalue-minimisations  :  7168
 total energy-change (2. order) :-0.6665708E+01  (-0.7552197E+02)
 number of electron     672.0000000 magnetization      48.0000000
 augmentation part      672.0000000 magnetization      48.0000000

 Free energy of the ion-electron system (eV)
  ---------------------------------------------------
  alpha Z        PSCENC =      2652.81237852
  Ewald energy   TEWEN  =    -41911.66439830
  -Hartree energ DENC   =    -25701.95865737
  -exchange      EXHF   =         0.00000000
  -V(xc)+E(xc)   XCENC  =      3605.73404601
  PAW double counting   =     55594.23204139   -59034.67079123
  entropy T*S    EENTRO =        -0.00000000
  eigenvalues    EBANDS =    -10299.82931673
  atomic energy  EATOM  =     73862.19814772
  Solvation  Ediel_sol  =         0.00000000
  ---------------------------------------------------
  free energy    TOTEN  =     -1233.14654999 eV

  energy without entropy =    -1233.14654999  energy(sigma->0) =    -1233.14654999


--------------------------------------------------------------------------------------------------------




--------------------------------------- Iteration      1(   8)  ---------------------------------------


    EDDIAG:  cpu time    3.6600: real time    3.6691
  RMM-DIIS:  cpu time   10.4070: real time   10.4234
    ORTHCH:  cpu time    0.5947: real time    0.5986
       DOS:  cpu time    0.0007: real time    0.0007
    --------------------------------------------
      LOOP:  cpu time   14.6624: real time   14.6918

 eigenvalue-minimisations  :  7168
 total energy-change (2. order) : 0.4636289E+01  (-0.5215585E+02)
 number of electron     672.0000000 magnetization      48.0000000
 augmentation part      672.0000000 magnetization      48.0000000

 Free energy of the ion-electron system (eV)
  ---------------------------------------------------
  alpha Z        PSCENC =      2652.81237852
  Ewald energy   TEWEN  =    -41911.66439830
  -Hartree energ DENC   =    -25701.95865737
  -exchange      EXHF   =         0.00000000
  -V(xc)+E(xc)   XCENC  =      3605.73404601
  PAW double counting   =     55594.23204139   -59034.67079123
  entropy T*S    EENTRO =        -0.00000000
  eigenvalues    EBANDS =    -10295.19302809
  atomic energy  EATOM  =     73862.19814772
  Solvation  Ediel_sol  =         0.00000000
  ---------------------------------------------------
  free energy    TOTEN  =     -1228.51026135 eV

  energy without entropy =    -1228.51026135  energy(sigma->0) =    -1228.51026135


--------------------------------------------------------------------------------------------------------




--------------------------------------- Iteration      1(   9)  ---------------------------------------


    EDDIAG:  cpu time    3.6620: real time    3.6705
  RMM-DIIS:  cpu time   21.0555: real time   21.1674
    ORTHCH:  cpu time    0.5966: real time    0.6003
       DOS:  cpu time    0.0007: real time    0.0007
    --------------------------------------------
      LOOP:  cpu time   25.3149: real time   25.4388

 eigenvalue-minimisations  : 20244
 total energy-change (2. order) : 0.1782228E+02  (-0.2336375E+02)
 number of electron     672.0000000 magnetization      48.0000000
 augmentation part      672.0000000 magnetization      48.0000000

 Free energy of the ion-electron system (eV)
  ---------------------------------------------------
  alpha Z        PSCENC =      2652.81237852
  Ewald energy   TEWEN  =    -41911.66439830
  -Hartree energ DENC   =    -25701.95865737
  -exchange      EXHF   =         0.00000000
  -V(xc)+E(xc)   XCENC  =      3605.73404601
  PAW double counting   =     55594.23204139   -59034.67079123
  entropy T*S    EENTRO =        -0.00000000
  eigenvalues    EBANDS =    -10277.37074770
  atomic energy  EATOM  =     73862.19814772
  Solvation  Ediel_sol  =         0.00000000
  ---------------------------------------------------
  free energy    TOTEN  =     -1210.68798095 eV

  energy without entropy =    -1210.68798095  energy(sigma->0) =    -1210.68798095


--------------------------------------------------------------------------------------------------------




--------------------------------------- Iteration      1(  10)  ---------------------------------------


    EDDIAG:  cpu time    3.6824: real time    3.6916
  RMM-DIIS:  cpu time   21.0954: real time   21.1628
    ORTHCH:  cpu time    0.5947: real time    0.5986
       DOS:  cpu time    0.0007: real time    0.0007
    --------------------------------------------
      LOOP:  cpu time   25.3733: real time   25.4538

 eigenvalue-minimisations  : 20153
 total energy-change (2. order) :-0.3053953E+01  (-0.1025331E+01)
 number of electron     672.0000000 magnetization      48.0000000
 augmentation part      672.0000000 magnetization      48.0000000

 Free energy of the ion-electron system (eV)
  ---------------------------------------------------
  alpha Z        PSCENC =      2652.81237852
  Ewald energy   TEWEN  =    -41911.66439830
  -Hartree energ DENC   =    -25701.95865737
  -exchange      EXHF   =         0.00000000
  -V(xc)+E(xc)   XCENC  =      3605.73404601
  PAW double counting   =     55594.23204139   -59034.67079123
  entropy T*S    EENTRO =        -0.00000003
  eigenvalues    EBANDS =    -10280.42470083
  atomic energy  EATOM  =     73862.19814772
  Solvation  Ediel_sol  =         0.00000000
  ---------------------------------------------------
  free energy    TOTEN  =     -1213.74193412 eV

  energy without entropy =    -1213.74193409  energy(sigma->0) =    -1213.74193411


--------------------------------------------------------------------------------------------------------




--------------------------------------- Iteration      1(  11)  ---------------------------------------


    EDDIAG:  cpu time    3.6568: real time    3.6638
  RMM-DIIS:  cpu time   22.1926: real time   22.2777
    ORTHCH:  cpu time    0.5934: real time    0.5972
       DOS:  cpu time    0.0008: real time    0.0008
    --------------------------------------------
      LOOP:  cpu time   26.4437: real time   26.5394

 eigenvalue-minimisations  : 21670
 total energy-change (2. order) : 0.1027743E+00  (-0.9650718E-01)
 number of electron     672.0000000 magnetization      48.0000000
 augmentation part      672.0000000 magnetization      48.0000000

 Free energy of the ion-electron system (eV)
  ---------------------------------------------------
  alpha Z        PSCENC =      2652.81237852
  Ewald energy   TEWEN  =    -41911.66439830
  -Hartree energ DENC   =    -25701.95865737
  -exchange      EXHF   =         0.00000000
  -V(xc)+E(xc)   XCENC  =      3605.73404601
  PAW double counting   =     55594.23204139   -59034.67079123
  entropy T*S    EENTRO =        -0.00000003
  eigenvalues    EBANDS =    -10280.32192652
  atomic energy  EATOM  =     73862.19814772
  Solvation  Ediel_sol  =         0.00000000
  ---------------------------------------------------
  free energy    TOTEN  =     -1213.63915981 eV

  energy without entropy =    -1213.63915978  energy(sigma->0) =    -1213.63915979


--------------------------------------------------------------------------------------------------------




--------------------------------------- Iteration      1(  12)  ---------------------------------------


    EDDIAG:  cpu time    3.6522: real time    3.6610
  RMM-DIIS:  cpu time   23.6424: real time   23.6787
    ORTHCH:  cpu time    0.6146: real time    0.6336
       DOS:  cpu time    0.0008: real time    0.0008
    CHARGE:  cpu time    2.1350: real time    2.1380
    MIXING:  cpu time    0.0011: real time    0.0015
    --------------------------------------------
      LOOP:  cpu time   30.0461: real time   30.1136

 eigenvalue-minimisations  : 22749
 total energy-change (2. order) : 0.6383046E-02  (-0.7025131E-02)
 number of electron     671.9999943 magnetization      47.9999973
 augmentation part      239.0699839 magnetization      29.0487364

 Broyden mixing:
  rms(total) = 0.12537E+02    rms(broyden)= 0.12528E+02
  rms(prec ) = 0.14396E+02
  weight for this iteration     100.00

 Free energy of the ion-electron system (eV)
  ---------------------------------------------------
  alpha Z        PSCENC =      2652.81237852
  Ewald energy   TEWEN  =    -41911.66439830
  -Hartree energ DENC   =    -25701.95865737
  -exchange      EXHF   =         0.00000000
  -V(xc)+E(xc)   XCENC  =      3605.73404601
  PAW double counting   =     55594.23204139   -59034.67079123
  entropy T*S    EENTRO =        -0.00000003
  eigenvalues    EBANDS =    -10280.31554348
  atomic energy  EATOM  =     73862.19814772
  Solvation  Ediel_sol  =         0.00000000
  ---------------------------------------------------
  free energy    TOTEN  =     -1213.63277676 eV

  energy without entropy =    -1213.63277674  energy(sigma->0) =    -1213.63277675


--------------------------------------------------------------------------------------------------------




--------------------------------------- Iteration      1(  13)  ---------------------------------------


    POTLOK:  cpu time    0.0618: real time    0.0637
    SETDIJ:  cpu time    2.6912: real time    2.6935
    EDDIAG:  cpu time    3.6668: real time    3.6746
  RMM-DIIS:  cpu time   18.9532: real time   18.9828
    ORTHCH:  cpu time    0.6010: real time    0.6050
       DOS:  cpu time    0.0008: real time    0.0008
    CHARGE:  cpu time    2.1264: real time    2.1756
    MIXING:  cpu time    0.0009: real time    0.0010
    --------------------------------------------
      LOOP:  cpu time   28.1021: real time   28.1971

 eigenvalue-minimisations  : 17255
 total energy-change (2. order) : 0.2226984E+03  (-0.1387142E+03)
 number of electron     671.9999840 magnetization      47.9999973
 augmentation part      269.5629256 magnetization      26.0442029

 Broyden mixing:
  rms(total) = 0.14162E+02    rms(broyden)= 0.14159E+02
  rms(prec ) = 0.15977E+02
  weight for this iteration     100.00

 eigenvalues of (default mixing * dielectric matrix)
  average eigenvalue GAMMA=   0.3160
  0.3160

 Free energy of the ion-electron system (eV)
  ---------------------------------------------------
  alpha Z        PSCENC =      2652.81237852
  Ewald energy   TEWEN  =    -41911.66439830
  -Hartree energ DENC   =    -25029.44636306
  -exchange      EXHF   =         0.00000000
  -V(xc)+E(xc)   XCENC  =      3695.93925799
  PAW double counting   =     59878.23971928   -63303.35969512
  entropy T*S    EENTRO =        -0.06637368
  eigenvalues    EBANDS =    -10835.58706208
  atomic energy  EATOM  =     73862.19814772
  Solvation  Ediel_sol  =         0.00000000
  ---------------------------------------------------
  free energy    TOTEN  =      -990.93438873 eV

  energy without entropy =     -990.86801505  energy(sigma->0) =     -990.90120189


--------------------------------------------------------------------------------------------------------




--------------------------------------- Iteration      1(  14)  ---------------------------------------


    POTLOK:  cpu time    0.0607: real time    0.0609
    SETDIJ:  cpu time    2.6915: real time    2.6930
    EDDIAG:  cpu time    3.6777: real time    3.6853
  RMM-DIIS:  cpu time   18.6714: real time   18.6999
    ORTHCH:  cpu time    0.5987: real time    0.6023
       DOS:  cpu time    0.0006: real time    0.0006
    CHARGE:  cpu time    2.1376: real time    2.1406
    MIXING:  cpu time    0.0008: real time    0.0008
    --------------------------------------------
      LOOP:  cpu time   27.8390: real time   27.8834

 eigenvalue-minimisations  : 17772
 total energy-change (2. order) : 0.7518897E+02  (-0.1982179E+02)
 number of electron     671.9999904 magnetization      47.9999955
 augmentation part      246.5324964 magnetization      32.1242775

 Broyden mixing:
  rms(total) = 0.52503E+01    rms(broyden)= 0.52460E+01
  rms(prec ) = 0.57035E+01
  weight for this iteration     100.00

 eigenvalues of (default mixing * dielectric matrix)
  average eigenvalue GAMMA=   0.7273
  1.0985  0.3560

 Free energy of the ion-electron system (eV)
  ---------------------------------------------------
  alpha Z        PSCENC =      2652.81237852
  Ewald energy   TEWEN  =    -41911.66439830
  -Hartree energ DENC   =    -25647.23939280
  -exchange      EXHF   =         0.00000000
  -V(xc)+E(xc)   XCENC  =      3673.23347236
  PAW double counting   =     63291.27625559   -66773.41001433
  entropy T*S    EENTRO =        -0.00000000
  eigenvalues    EBANDS =    -10062.95186867
  atomic energy  EATOM  =     73862.19814772
  Solvation  Ediel_sol  =         0.00000000
  ---------------------------------------------------
  free energy    TOTEN  =      -915.74541990 eV

  energy without entropy =     -915.74541990  energy(sigma->0) =     -915.74541990


--------------------------------------------------------------------------------------------------------




--------------------------------------- Iteration      1(  15)  ---------------------------------------


    POTLOK:  cpu time    0.0602: real time    0.0604
    SETDIJ:  cpu time    2.6804: real time    2.6946
    EDDIAG:  cpu time    3.6599: real time    3.6675
  RMM-DIIS:  cpu time   19.5052: real time   19.5348
    ORTHCH:  cpu time    0.5972: real time    0.6009
       DOS:  cpu time    0.0007: real time    0.0006
    CHARGE:  cpu time    2.1433: real time    2.1459
    MIXING:  cpu time    0.0008: real time    0.0008
    --------------------------------------------
      LOOP:  cpu time   28.6476: real time   28.7055

 eigenvalue-minimisations  : 18426
 total energy-change (2. order) : 0.1462800E+02  (-0.2476679E+01)
 number of electron     671.9999898 magnetization      47.9999941
 augmentation part      249.6582575 magnetization      33.7871758

 Broyden mixing:
  rms(total) = 0.22411E+01    rms(broyden)= 0.22407E+01
  rms(prec ) = 0.23318E+01
  weight for this iteration     100.00

 eigenvalues of (default mixing * dielectric matrix)
  average eigenvalue GAMMA=   0.9083
  1.6189  0.3812  0.7246

 Free energy of the ion-electron system (eV)
  ---------------------------------------------------
  alpha Z        PSCENC =      2652.81237852
  Ewald energy   TEWEN  =    -41911.66439830
  -Hartree energ DENC   =    -25563.76983078
  -exchange      EXHF   =         0.00000000
  -V(xc)+E(xc)   XCENC  =      3706.33004319
  PAW double counting   =     67378.06407604   -70900.63330075
  entropy T*S    EENTRO =        -0.00000000
  eigenvalues    EBANDS =    -10124.45453424
  atomic energy  EATOM  =     73862.19814772
  Solvation  Ediel_sol  =         0.00000000
  ---------------------------------------------------
  free energy    TOTEN  =      -901.11741860 eV

  energy without entropy =     -901.11741860  energy(sigma->0) =     -901.11741860


--------------------------------------------------------------------------------------------------------




--------------------------------------- Iteration      1(  16)  ---------------------------------------


    POTLOK:  cpu time    0.0602: real time    0.0604
    SETDIJ:  cpu time    3.0026: real time    3.0166
    EDDIAG:  cpu time    3.6501: real time    3.6568
  RMM-DIIS:  cpu time   19.0722: real time   19.0997
    ORTHCH:  cpu time    0.5992: real time    0.6031
       DOS:  cpu time    0.0007: real time    0.0007
    CHARGE:  cpu time    2.1379: real time    2.1408
    MIXING:  cpu time    0.0011: real time    0.0011
    --------------------------------------------
      LOOP:  cpu time   28.5240: real time   28.5790

 eigenvalue-minimisations  : 17641
 total energy-change (2. order) :-0.1251334E+01  (-0.7241484E+00)
 number of electron     671.9999894 magnetization      47.9999935
 augmentation part      251.0353926 magnetization      33.9025354

 Broyden mixing:
  rms(total) = 0.15056E+01    rms(broyden)= 0.15052E+01
  rms(prec ) = 0.15832E+01
  weight for this iteration     100.00

 eigenvalues of (default mixing * dielectric matrix)
  average eigenvalue GAMMA=   0.9594
  2.0526  0.8924  0.3861  0.5065

 Free energy of the ion-electron system (eV)
  ---------------------------------------------------
  alpha Z        PSCENC =      2652.81237852
  Ewald energy   TEWEN  =    -41911.66439830
  -Hartree energ DENC   =    -25515.82677935
  -exchange      EXHF   =         0.00000000
  -V(xc)+E(xc)   XCENC  =      3707.10660197
  PAW double counting   =     70113.21466301   -73663.62204998
  entropy T*S    EENTRO =        -0.00000000
  eigenvalues    EBANDS =    -10146.58731576
  atomic energy  EATOM  =     73862.19814772
  Solvation  Ediel_sol  =         0.00000000
  ---------------------------------------------------
  free energy    TOTEN  =      -902.36875218 eV

  energy without entropy =     -902.36875218  energy(sigma->0) =     -902.36875218


--------------------------------------------------------------------------------------------------------




--------------------------------------- Iteration      1(  17)  ---------------------------------------


    POTLOK:  cpu time    0.0610: real time    0.0626
    SETDIJ:  cpu time    2.7259: real time    2.7274
    EDDIAG:  cpu time    3.6588: real time    3.6809
  RMM-DIIS:  cpu time   20.1885: real time   20.2174
    ORTHCH:  cpu time    0.5966: real time    0.6002
       DOS:  cpu time    0.0007: real time    0.0007
    CHARGE:  cpu time    2.1348: real time    2.1376
    MIXING:  cpu time    0.0011: real time    0.0011
    --------------------------------------------
      LOOP:  cpu time   29.3674: real time   29.4280

 eigenvalue-minimisations  : 18519
 total energy-change (2. order) : 0.4221021E-01  (-0.9012765E-01)
 number of electron     671.9999895 magnetization      47.9999931
 augmentation part      251.1228115 magnetization      33.9111635

 Broyden mixing:
  rms(total) = 0.80044E+00    rms(broyden)= 0.80025E+00
  rms(prec ) = 0.90539E+00
  weight for this iteration     100.00

 eigenvalues of (default mixing * dielectric matrix)
  average eigenvalue GAMMA=   0.9834
  2.2047  1.1105  0.3756  0.6762  0.5500

 Free energy of the ion-electron system (eV)
  ---------------------------------------------------
  alpha Z        PSCENC =      2652.81237852
  Ewald energy   TEWEN  =    -41911.66439830
  -Hartree energ DENC   =    -25502.89982625
  -exchange      EXHF   =         0.00000000
  -V(xc)+E(xc)   XCENC  =      3704.83982831
  PAW double counting   =     71101.67291295   -74661.81059200
  entropy T*S    EENTRO =        -0.00000000
  eigenvalues    EBANDS =    -10147.47499293
  atomic energy  EATOM  =     73862.19814772
  Solvation  Ediel_sol  =         0.00000000
  ---------------------------------------------------
  free energy    TOTEN  =      -902.32654198 eV

  energy without entropy =     -902.32654198  energy(sigma->0) =     -902.32654198


--------------------------------------------------------------------------------------------------------




--------------------------------------- Iteration      1(  18)  ---------------------------------------


    POTLOK:  cpu time    0.0604: real time    0.0606
    SETDIJ:  cpu time    2.7265: real time    2.7279
    EDDIAG:  cpu time    3.6760: real time    3.7092
  RMM-DIIS:  cpu time   19.0955: real time   19.1251
    ORTHCH:  cpu time    0.5943: real time    0.5983
       DOS:  cpu time    0.0006: real time    0.0006
    CHARGE:  cpu time    2.1416: real time    2.1445
    MIXING:  cpu time    0.0010: real time    0.0010
    --------------------------------------------
      LOOP:  cpu time   28.2959: real time   28.3671

 eigenvalue-minimisations  : 17623
 total energy-change (2. order) : 0.4267128E+00  (-0.7365781E-01)
 number of electron     671.9999896 magnetization      47.9999930
 augmentation part      250.6283567 magnetization      33.8861324

 Broyden mixing:
  rms(total) = 0.30757E+00    rms(broyden)= 0.30736E+00
  rms(prec ) = 0.32437E+00
  weight for this iteration     100.00

 eigenvalues of (default mixing * dielectric matrix)
  average eigenvalue GAMMA=   1.0163
  2.4477  1.3739  0.8465  0.3776  0.5838  0.4683

 Free energy of the ion-electron system (eV)
  ---------------------------------------------------
[...]
   4      -1.093    -0.898     1.990    -0.112     0.064     0.017
   5      -1.094    -0.613     1.707    -0.005     0.009     0.020
   6      -0.534    -0.719     1.252    -0.144     0.046     0.158
   7      -0.612    -0.753     1.366     0.171    -0.043     0.084
   8      -0.539    -0.808     1.347    -0.157     0.040     0.021
   9      -0.711    -0.862     1.573    -0.144     0.053    -0.035
  10      -0.864    -0.562     1.427    -0.050    -0.074    -0.016
  11      -0.867    -1.070     1.937     0.066    -0.103    -0.012
  12      -1.136    -0.590     1.726     0.161     0.067    -0.038
  13      -0.528    -0.804     1.331    -0.123    -0.001     0.057
  14      -0.604    -0.807     1.411     0.118    -0.126     0.093
  15      -0.591    -1.207     1.798     0.183     0.012     0.012
  16      -0.965    -0.845     1.810     0.095     0.030     0.065
  17       1.613     1.401    -3.013     0.091     0.013    -0.022
  18       1.548     1.400    -2.948     0.192    -0.033     0.015
  19       1.387     1.520    -2.907    -0.104     0.031    -0.059
  20       1.421     1.387    -2.808    -0.017     0.087     0.105
  21       1.364     1.519    -2.883    -0.211     0.035    -0.008
  22       1.459     1.488    -2.947    -0.040    -0.001     0.007
  23       1.380     1.476    -2.855    -0.216    -0.006     0.025
  24       1.373     1.554    -2.926    -0.155    -0.010    -0.108
  25      -1.249     1.537    -0.288     1.050    -0.925    -0.752
  26      -0.609    -0.880     1.488    -0.670     0.228     0.167
  27      -0.513     0.112     0.400     0.005     0.548    -0.561
  28       0.902     0.480    -1.382     0.916    -0.934     0.604
  29      -0.763    -0.043     0.807     0.950    -0.024     0.764
  30       0.265    -1.581     1.316     1.049     0.665    -0.056
  31      -0.627     0.940    -0.313     0.284    -0.349     0.460
  32      -0.612     0.084     0.528     1.294     1.821    -0.253
  33      -0.369     0.427    -0.058    -0.452     0.486     0.387
  34       0.752     0.551    -1.303    -0.302     0.057     0.509
  35       0.538     0.393    -0.930    -0.473     0.023     0.385
  36      -0.804    -0.040     0.844     0.282    -0.721     0.063
  37      -0.582     0.600    -0.018    -0.442    -0.264     0.136
  38       0.723    -0.293    -0.430     0.346     0.186     1.135
  39      -1.393     0.164     1.228    -1.097    -0.209     0.534
  40       0.601    -0.292    -0.309     0.046     0.370     0.800
  41      -4.469     3.548     0.921    -4.642     2.207    -5.892
  42      -3.880     1.572     2.308     4.706     1.312     6.046
  43       5.697    -7.181     1.483    -0.908    -3.483     0.088
  44      -3.219     3.218     0.001    -4.725    -2.892     2.377
  45       3.870    -5.683     1.813    -0.299     4.598     0.291
  46      -3.434     2.519     0.915     6.020    -4.120    -3.395
  47      -4.115     3.451     0.664    -3.551     1.031    -3.971
  48       5.012    -4.635    -0.377    -1.507    -4.474    -0.157
  49      -3.286     0.602     2.685     3.850     1.554     6.206
  50      -1.287     2.957    -1.670    -5.460     0.159     3.789
  51      -1.742     1.650     0.093     5.996    -3.043    -4.450
  52       7.247    -5.862    -1.385    -0.017     3.561     0.267
  53      -2.419     2.098     0.322    -5.300     1.497    -3.389
  54      -3.096     3.782    -0.686     4.315     2.374     3.571
  55       3.887    -5.216     1.329     0.074    -5.097    -1.225
  56      -2.971     2.145     0.827    -5.288    -1.584     3.446
  57       4.009    -5.419     1.410    -1.609     4.979     0.348
  58      -2.991     2.877     0.114     3.939    -3.198    -3.818
  59      -3.620     0.919     2.701    -2.438     4.666    -3.354
  60       4.112    -7.441     3.329    -0.251    -5.273     0.553
  61      -3.679     4.091    -0.412     5.292     0.532     3.542
  62      -4.036     4.345    -0.309    -3.785    -2.852     3.863
  63      -3.332     1.652     1.680     5.834    -1.093    -4.561
  64       6.077    -6.355     0.278     0.596     5.389    -0.460
  65      -3.266     3.383    -0.116    -4.443     2.430    -3.987
  66      -1.831     2.801    -0.971     4.652     3.260     1.720
  67       6.197    -6.056    -0.141     0.729    -3.440     0.131
  68      -4.521     3.421     1.101    -4.648    -0.923     5.240
  69       4.639    -6.573     1.935    -0.750     4.021    -0.963
  70      -2.351     1.094     1.258     4.434    -1.887    -5.315
  71      -5.200     2.937     2.263    -5.751     1.063    -5.319
  72       5.776    -6.193     0.417     1.272    -5.584     1.368
  73      -1.512     3.170    -1.658     6.077     1.554     3.400
  74      -4.525     4.250     0.276    -3.756    -1.338     4.784
  75      -5.655     4.382     1.272     4.885    -3.550    -3.203
  76       5.164    -5.632     0.468    -0.161     4.901    -0.955
  77      -3.061     3.439    -0.378    -4.365     2.800    -3.578
  78      -1.487     2.953    -1.466     5.424     2.237     3.413
  79       5.535    -4.349    -1.186     1.429    -4.455     0.505
  80      -0.235     0.011     0.224    -6.617    -1.268     5.208
  81       5.474    -7.454     1.980    -0.648     4.003    -0.174
  82      -4.002     2.128     1.873     4.641    -1.226    -4.820
  83      -3.002    -0.446     3.448    -4.752     0.921    -4.388
  84       7.101    -6.610    -0.491     1.070    -3.751     0.580
  85      -4.261     4.498    -0.237     6.715     2.710     4.619
  86      -2.842     1.493     1.349    -4.472    -3.884     4.490
  87      -3.308     6.027    -2.719     4.194    -1.012    -2.751
  88       4.518    -4.143    -0.375     0.071     5.056    -1.487
 ---------------------------------------------------------------------


 Total hyperfine coupling parameters after diagonalization (MHz)
 (convention: |A_zz| > |A_xx| > |A_yy|)
 ----------------------------------------------------------------------
  ion      A_xx      A_yy      A_zz     asymmetry (A_yy - A_xx)/ A_zz 
 ----------------------------------------------------------------------
   1      -0.573    -0.081     2.739       0.179
   2      -0.118     0.013     2.922       0.045
   3      -0.888    -0.851     2.153       0.017
   4      -0.785    -0.487     2.351       0.127
   5       2.831     2.350     5.151      -0.093
   6       2.480     2.126     4.201      -0.084
   7       2.770     2.396     4.637      -0.081
   8       2.842     2.428     4.657      -0.089
   9       1.982     1.658     4.182      -0.077
  10       2.047     1.727     4.031      -0.080
  11      -0.762    -0.525     2.268       0.105
  12       1.845     1.210     4.120      -0.154
  13       2.183     1.812     3.997      -0.093
  14       1.921     1.605     3.896      -0.081
  15       2.201     1.483     4.539      -0.158
  16       0.220    -0.004     2.826      -0.079
  17      15.449    11.068    15.728      -0.279
  18      14.454    10.237    14.866      -0.284
  19      13.287     9.050    13.536      -0.313
  20      11.631     7.434    11.675      -0.359
  21      13.576     9.476    14.026      -0.292
  22      14.834    10.456    14.919      -0.293
  23      13.721     9.659    14.163      -0.287
  24      15.015    10.802    15.375      -0.274
  25      99.195    97.685   101.886      -0.015
  26      97.675    96.287    99.256      -0.014
  27      93.256    92.535    94.349      -0.008
  28      93.342    90.949    94.667      -0.025
  29     100.387    98.733   101.623      -0.016
  30      97.412    94.936    98.722      -0.025
  31      95.897    95.041    97.129      -0.009
  32      98.976    96.011   100.586      -0.029
  33      92.808    91.540    93.199      -0.014
  34      95.630    93.748    96.190      -0.020
  35      96.851    95.727    97.750      -0.011
  36      95.879    94.697    96.962      -0.012
  37      94.503    93.733    95.323      -0.008
  38      97.624    95.749    98.384      -0.019
  39     102.430   100.112   103.674      -0.022
  40      97.851    96.450    98.447      -0.014
  41       5.897     2.631    19.282      -0.169
  42       6.651     1.726    18.238      -0.270
  43       6.616    -0.171    14.784      -0.459
  44       6.140     1.260    14.756      -0.331
  45       5.284     1.382    14.663      -0.266
  46       7.443     1.578    18.542      -0.316
  47       8.658     4.854    17.774      -0.214
  48      -1.334     1.213    11.436       0.223
  49       5.465     1.747    17.186      -0.216
  50       6.007     1.070    15.118      -0.327
  51       4.220     0.958    16.579      -0.197
  52       4.849     1.610    16.020      -0.202
  53       4.435    -0.084    13.386      -0.338
  54       3.764     1.137    14.383      -0.183
  55       3.176    -0.023    13.446      -0.238
  56       6.165     1.076    14.968      -0.340
  57       7.118     3.155    17.047      -0.232
  58       2.366    -0.483    12.805      -0.223
  59       5.322     0.689    14.523      -0.319
  60       7.148     1.236    17.733      -0.333
  61       6.644     1.587    16.320      -0.310
  62       3.072    -0.453    13.788      -0.256
  63       6.538    -0.049    15.915      -0.414
  64       5.447     1.753    17.553      -0.210
  65      -1.664     1.194    12.081       0.237
  66       6.930     2.660    15.293      -0.279
  67       7.014     2.505    16.359      -0.276
  68       6.518     1.550    17.497      -0.284
  69       5.256    -0.499    13.816      -0.417
  70       2.983    -0.401    13.873      -0.244
  71       5.811    -1.400    16.685      -0.432
  72       4.577    -0.229    16.121      -0.298
  73       5.513     2.541    17.016      -0.175
  74       5.507     2.191    16.735      -0.198
  75       7.090    -0.365    16.692      -0.447
  76       2.006    -1.363    12.742      -0.264
  77       3.609     0.634    14.140      -0.210
  78       5.267     3.308    16.736      -0.117
  79       4.814     2.409    15.381      -0.156
  80      10.431     3.742    20.657      -0.324
  81       7.471     0.618    16.226      -0.422
  82       6.350     1.213    16.236      -0.316
  83       4.943    -1.683    12.890      -0.514
  84       6.217     1.232    16.746      -0.298
  85       7.548     2.485    21.133      -0.240
  86       5.119     2.294    17.046      -0.166
  87       3.613     2.187    15.510      -0.092
  88       2.327    -0.343    12.594      -0.212
 ---------------------------------------------------------------------



--------------------------------------------------------------------------------------------------------


 stress matrix after NEB project (eV)
    -44.19684     -1.79946      1.43682
     -1.78748    -48.07807     -4.90986
      1.44879     -4.85501    -60.81418
  FORCES: max atom, RMS     2.741781    1.201232
  FORCE total and by dimension   11.268559    2.347005
  Stress total and by dimension   89.562827   60.814176
     LOOP+:  cpu time 1051.5527: real time 1054.3850
    4ORBIT:  cpu time    0.0000: real time    0.0000
 


 total charge     
 
# of ion       s       p       d       tot
------------------------------------------
    1        0.062   6.010   0.000   6.071
    2        0.053   5.998   0.000   6.052
    3        0.054   5.998   0.000   6.052
    4        0.051   5.994   0.000   6.045
    5        0.053   5.996   0.000   6.049
    6        0.049   5.991   0.000   6.039
    7        0.050   5.992   0.000   6.042
    8        0.047   5.990   0.000   6.037
    9        0.046   5.988   0.000   6.034
   10        0.045   5.985   0.000   6.030
   11        0.051   5.994   0.000   6.045
   12        0.055   5.999   0.000   6.053
   13        0.052   5.996   0.000   6.048
   14        0.050   5.994   0.000   6.044
   15        0.057   6.003   0.000   6.060
   16        0.050   5.995   0.000   6.046
   17        0.148   6.127   0.084   6.359
   18        0.148   6.127   0.084   6.359
   19        0.151   6.130   0.085   6.365
   20        0.141   6.116   0.074   6.332
   21        0.145   6.121   0.079   6.345
   22        0.150   6.130   0.086   6.366
   23        0.147   6.123   0.080   6.350
   24        0.144   6.120   0.078   6.342
   25        0.381   6.463   4.848  11.692
   26        0.383   6.464   4.855  11.702
   27        0.382   6.468   4.835  11.685
   28        0.393   6.487   4.874  11.754
   29        0.357   6.417   4.797  11.571
   30        0.389   6.486   4.855  11.731
   31        0.383   6.472   4.846  11.701
   32        0.367   6.436   4.814  11.617
   33        0.381   6.467   4.841  11.690
   34        0.369   6.440   4.814  11.623
   35        0.369   6.441   4.817  11.627
   36        0.389   6.483   4.855  11.727
   37        0.384   6.474   4.842  11.699
   38        0.363   6.426   4.808  11.598
   39        0.362   6.425   4.807  11.595
   40        0.368   6.432   4.824  11.624
   41        1.604   3.526   0.000   5.130
   42        1.601   3.518   0.000   5.119
   43        1.601   3.510   0.000   5.111
   44        1.598   3.506   0.000   5.104
   45        1.596   3.511   0.000   5.107
   46        1.604   3.523   0.000   5.127
   47        1.600   3.533   0.000   5.133
   48        1.596   3.491   0.000   5.087
   49        1.601   3.468   0.000   5.069
   50        1.597   3.490   0.000   5.087
   51        1.602   3.515   0.000   5.117
   52        1.602   3.483   0.000   5.085
   53        1.599   3.501   0.000   5.100
   54        1.599   3.524   0.000   5.123
   55        1.600   3.518   0.000   5.118
   56        1.598   3.519   0.000   5.117
   57        1.598   3.516   0.000   5.114
   58        1.596   3.505   0.000   5.101
   59        1.601   3.519   0.000   5.120
   60        1.600   3.514   0.000   5.114
   61        1.597   3.507   0.000   5.104
   62        1.599   3.493   0.000   5.092
   63        1.600   3.513   0.000   5.113
   64        1.599   3.471   0.000   5.070
   65        1.597   3.497   0.000   5.094
   66        1.598   3.509   0.000   5.107
   67        1.596   3.501   0.000   5.097
   68        1.601   3.516   0.000   5.117
   69        1.598   3.518   0.000   5.116
   70        1.600   3.499   0.000   5.099
   71        1.603   3.523   0.000   5.126
   72        1.599   3.473   0.000   5.072
   73        1.600   3.473   0.000   5.072
   74        1.600   3.519   0.000   5.119
   75        1.602   3.516   0.000   5.118
   76        1.596   3.487   0.000   5.084
   77        1.597   3.508   0.000   5.105
   78        1.598   3.490   0.000   5.088
   79        1.598   3.485   0.000   5.083
   80        1.601   3.505   0.000   5.105
   81        1.600   3.527   0.000   5.127
   82        1.597   3.479   0.000   5.076
   83        1.599   3.527   0.000   5.125
   84        1.601   3.496   0.000   5.097
   85        1.601   3.477   0.000   5.077
   86        1.600   3.514   0.000   5.114
   87        1.599   3.464   0.000   5.062
   88        1.598   3.486   0.000   5.084
--------------------------------------------------
tot         84.782 416.356  77.984 579.122
 


 magnetization (x)
 
# of ion       s       p       d       tot
------------------------------------------
    1        0.000   0.000   0.000   0.001
    2        0.001   0.000   0.000   0.001
    3        0.000   0.000   0.000   0.000
    4        0.000   0.000   0.000   0.000
    5        0.002   0.000   0.000   0.003
    6        0.002   0.001   0.000   0.003
    7        0.002   0.000   0.000   0.003
    8        0.002   0.001   0.000   0.003
    9        0.002   0.000   0.000   0.002
   10        0.002   0.000   0.000   0.002
   11        0.000  -0.000   0.000   0.000
   12        0.002   0.001   0.000   0.002
   13        0.002   0.000   0.000   0.002
   14        0.002   0.000   0.000   0.002
   15        0.002   0.001   0.000   0.003
   16        0.001   0.000   0.000   0.001
   17        0.008   0.003   0.001   0.013
   18        0.007   0.002   0.001   0.010
   19        0.007   0.002   0.001   0.010
   20        0.006   0.001   0.001   0.008
   21        0.007   0.001   0.001   0.009
   22        0.007   0.003   0.001   0.011
   23        0.007   0.002   0.001   0.010
   24        0.008   0.003   0.001   0.012
   25        0.016   0.031   2.745   2.791
   26        0.015   0.030   2.739   2.784
   27        0.014   0.031   2.741   2.786
   28        0.014   0.030   2.708   2.752
   29        0.016   0.029   2.802   2.847
   30        0.016   0.032   2.729   2.777
   31        0.015   0.031   2.735   2.781
   32        0.016   0.030   2.779   2.824
   33        0.014   0.031   2.733   2.778
   34        0.015   0.030   2.768   2.813
   35        0.015   0.030   2.768   2.813
   36        0.015   0.031   2.733   2.779
   37        0.015   0.031   2.742   2.788
   38        0.015   0.029   2.782   2.826
   39        0.017   0.030   2.806   2.852
   40        0.015   0.029   2.769   2.812
   41        0.002   0.049   0.000   0.052
   42        0.002   0.046   0.000   0.048
   43        0.002   0.036   0.000   0.038
   44        0.002   0.032   0.000   0.034
   45        0.002   0.034   0.000   0.036
   46        0.002   0.055   0.000   0.057
   47        0.003   0.057   0.000   0.060
   48        0.001  -0.001   0.000   0.000
   49        0.002   0.028   0.000   0.030
   50        0.002   0.033   0.000   0.035
   51        0.002   0.041   0.000   0.043
   52        0.002   0.025   0.000   0.027
   53        0.002   0.014   0.000   0.016
   54        0.002   0.029   0.000   0.031
   55        0.002   0.023   0.000   0.025
   56        0.002   0.040   0.000   0.042
   57        0.002   0.045   0.000   0.047
   58        0.001   0.013   0.000   0.014
   59        0.002   0.026   0.000   0.028
   60        0.002   0.053   0.000   0.056
   61        0.002   0.045   0.000   0.047
   62        0.002   0.009   0.000   0.011
   63        0.002   0.042   0.000   0.044
   64        0.002   0.028   0.000   0.030
   65        0.001   0.003   0.000   0.005
   66        0.002   0.036   0.000   0.039
   67        0.002   0.041   0.000   0.043
   68        0.002   0.046   0.000   0.048
   69        0.002   0.036   0.000   0.038
   70        0.002   0.010   0.000   0.011
   71        0.002   0.048   0.000   0.049
   72        0.002   0.021   0.000   0.023
   73        0.002   0.037   0.000   0.040
   74        0.002   0.042   0.000   0.044
   75        0.002   0.038   0.000   0.040
   76        0.001   0.012   0.000   0.013
   77        0.002   0.022   0.000   0.024
   78        0.002   0.034   0.000   0.037
   79        0.002   0.022   0.000   0.024
   80        0.003   0.062   0.000   0.065
   81        0.002   0.044   0.000   0.046
   82        0.002   0.033   0.000   0.035
   83        0.001   0.023   0.000   0.024
   84        0.002   0.033   0.000   0.035
   85        0.003   0.051   0.000   0.054
   86        0.002   0.037   0.000   0.039
   87        0.002   0.017   0.000   0.019
   88        0.002   0.007   0.000   0.009
--------------------------------------------------
tot          0.419   2.063  44.087  46.569
 

 total amount of memory used by VASP MPI-rank0   104117. kBytes
=======================================================================

   base      :      30000. kBytes
   nonlr-proj:      13675. kBytes
   fftplans  :       1316. kBytes
   grid      :      22786. kBytes
   one-center:       2737. kBytes
   wavefun   :      33603. kBytes
 
  
  
 General timing and accounting informations for this job:
 ========================================================
  
                  Total CPU time used (sec):     1064.920
                            User time (sec):     1058.840
                          System time (sec):        6.080
                         Elapsed time (sec):     1069.091
  
                   Maximum memory used (kb):      197916.
                   Average memory used (kb):           0.
  
                          Minor page faults:       428947
                          Major page faults:            0
                 Voluntary context switches:         5096
