 vasp.5.4.4.18Apr17-6-g9f103f2a35 (build Dec 02 2020 12:53:39) complex          
  
 executed on             LinuxIFC date 2021.08.03  21:30:23
 running on   96 total cores
 distrk:  each k-point on   96 cores,    1 groups
 distr:  one band on NCORES_PER_BAND=   1 cores,   96 groups


--------------------------------------------------------------------------------------------------------


 INCAR:
 POTCAR:    PAW_PBE Na_pv 19Sep2006               
 POTCAR:    PAW_PBE Mg_pv 13Apr2007               
 POTCAR:    PAW_PBE Mn_pv 02Aug2007               
 POTCAR:    PAW_PBE O 08Apr2002                   

 ----------------------------------------------------------------------------- 
|                                                                             |
|           W    W    AA    RRRRR   N    N  II  N    N   GGGG   !!!           |
|           W    W   A  A   R    R  NN   N  II  NN   N  G    G  !!!           |
|           W    W  A    A  R    R  N N  N  II  N N  N  G       !!!           |
|           W WW W  AAAAAA  RRRRR   N  N N  II  N  N N  G  GGG   !            |
|           WW  WW  A    A  R   R   N   NN  II  N   NN  G    G                |
|           W    W  A    A  R    R  N    N  II  N    N   GGGG   !!!           |
|                                                                             |
|      For optimal performance we recommend to set                            |
|        NCORE= 4 - approx SQRT( number of cores)                             |
|      NCORE specifies how many cores store one orbital (NPAR=cpu/NCORE).     |
|      This setting can  greatly improve the performance of VASP for DFT.     |
|      The default,   NCORE=1            might be grossly inefficient         |
|      on modern multi-core architectures or massively parallel machines.     |
|      Do your own testing !!!!                                               |
|      Unfortunately you need to use the default for GW and RPA calculations. |
|      (for HF NCORE is supported but not extensively tested yet)             |
|                                                                             |
 ----------------------------------------------------------------------------- 

 POTCAR:    PAW_PBE Na_pv 19Sep2006               
   VRHFIN =Na: p6s1                                                             
   LEXCH  = PE                                                                  
   EATOM  =   766.0439 eV,   56.3026 Ry                                         
                                                                                
   TITEL  = PAW_PBE Na_pv 19Sep2006                                             
   LULTRA =        F    use ultrasoft PP ?                                      
   IUNSCR =        1    unscreen: 0-lin 1-nonlin 2-no                           
   RPACOR =    1.800    partial core radius                                     
   POMASS =   22.990; ZVAL   =    7.000    mass and valenz                      
   RCORE  =    2.200    outmost cutoff radius                                   
   RWIGS  =    2.200; RWIGS  =    1.164    wigner-seitz radius (au A)           
   ENMAX  =  259.561; ENMIN  =  194.671 eV                                      
   ICORE  =        2    local potential                                         
   LCOR   =        T    correct aug charges                                     
   LPAW   =        T    paw PP                                                  
   EAUG   =  368.056                                                            
   DEXC   =    0.000                                                            
   RMAX   =    2.245    core radius for proj-oper                               
   RAUG   =    1.300    factor for augmentation sphere                          
   RDEP   =    2.259    radius for radial grids                                 
   RDEPT  =    1.738    core radius for aug-charge                              
                                                                                
   Atomic configuration                                                         
    5 entries                                                                   
     n  l   j            E        occ.                                          
     1  0  0.50     -1033.6933   2.0000                                         
     2  0  0.50       -56.7526   2.0000                                         
     2  1  1.50       -28.6721   6.0000                                         
     3  0  0.50        -2.7440   1.0000                                         
     3  2  1.50        -1.3606   0.0000                                         
   Description                                                                  
     l       E           TYP  RCUT    TYP  RCUT                                 
     1    -28.6720912     23  2.000                                             
     1      6.8029130     23  2.000                                             
     0     -2.7439560     23  2.200                                             
     0     34.0145650     23  2.200                                             
     2     -1.3605826     23  2.200                                             
  local pseudopotential read in
  partial core-charges read in
  partial kinetic energy density read in
  atomic valenz-charges read in
  non local Contribution for L=           1  read in
    real space projection operators read in
  non local Contribution for L=           1  read in
    real space projection operators read in
  non local Contribution for L=           0  read in
    real space projection operators read in
  non local Contribution for L=           0  read in
    real space projection operators read in
    PAW grid and wavefunctions read in
 
   number of l-projection  operators is LMAX  =           4
   number of lm-projection operators is LMMAX =           8
 
 POTCAR:    PAW_PBE Mg_pv 13Apr2007               
   VRHFIN =Mg: p6s2                                                             
   LEXCH  = PE                                                                  
   EATOM  =  1056.7344 eV,   77.6678 Ry                                         
                                                                                
   TITEL  = PAW_PBE Mg_pv 13Apr2007                                             
   LULTRA =        F    use ultrasoft PP ?                                      
   IUNSCR =        1    unscreen: 0-lin 1-nonlin 2-no                           
   RPACOR =    1.500    partial core radius                                     
   POMASS =   24.305; ZVAL   =    8.000    mass and valenz                      
   RCORE  =    2.000    outmost cutoff radius                                   
   RWIGS  =    2.000; RWIGS  =    1.058    wigner-seitz radius (au A)           
   ENMAX  =  403.929; ENMIN  =  302.947 eV                                      
   RCLOC  =    1.506    cutoff for local pot                                    
   LCOR   =        T    correct aug charges                                     
   LPAW   =        T    paw PP                                                  
   EAUG   =  758.780                                                            
   DEXC   =    0.000                                                            
   RMAX   =    2.045    core radius for proj-oper                               
   RAUG   =    1.300    factor for augmentation sphere                          
   RDEP   =    2.025    radius for radial grids                                 
   RDEPT  =    1.557    core radius for aug-charge                              
                                                                                
   Atomic configuration                                                         
    5 entries                                                                   
     n  l   j            E        occ.                                          
     1  0  0.50     -1259.6230   2.0000                                         
     2  0  0.50       -79.8442   2.0000                                         
     2  1  1.50       -46.6121   6.0000                                         
     3  0  0.50        -4.7055   2.0000                                         
     3  2  1.50        -1.3606   0.0000                                         
   Description                                                                  
     l       E           TYP  RCUT    TYP  RCUT                                 
     1    -46.6121073     23  1.600                                             
     1      2.7211652     23  1.600                                             
     0     -4.7054661     23  2.000                                             
     0     61.2262170     23  2.000                                             
     2     -1.3605826     23  2.000                                             
  local pseudopotential read in
  partial core-charges read in
  partial kinetic energy density read in
  atomic valenz-charges read in
  non local Contribution for L=           1  read in
    real space projection operators read in
  non local Contribution for L=           1  read in
    real space projection operators read in
  non local Contribution for L=           0  read in
    real space projection operators read in
  non local Contribution for L=           0  read in
    real space projection operators read in
  non local Contribution for L=           2  read in
    real space projection operators read in
    PAW grid and wavefunctions read in
 
   number of l-projection  operators is LMAX  =           5
   number of lm-projection operators is LMMAX =          13
 
 POTCAR:    PAW_PBE Mn_pv 02Aug2007               
   VRHFIN =Mn: 3p4s3d                                                           
   LEXCH  = PE                                                                  
   EATOM  =  2025.2664 eV,  148.8529 Ry                                         
                                                                                
   TITEL  = PAW_PBE Mn_pv 02Aug2007                                             
   LULTRA =        F    use ultrasoft PP ?                                      
   IUNSCR =        1    unscreen: 0-lin 1-nonlin 2-no                           
   RPACOR =    2.080    partial core radius                                     
   POMASS =   54.938; ZVAL   =   13.000    mass and valenz                      
   RCORE  =    2.300    outmost cutoff radius                                   
   RWIGS  =    2.500; RWIGS  =    1.323    wigner-seitz radius (au A)           
   ENMAX  =  269.864; ENMIN  =  202.398 eV                                      
   ICORE  =        3    local potential                                         
   LCOR   =        T    correct aug charges                                     
   LPAW   =        T    paw PP                                                  
   EAUG   =  569.085                                                            
   DEXC   =    0.000                                                            
   RMAX   =    2.343    core radius for proj-oper                               
   RAUG   =    1.300    factor for augmentation sphere                          
   RDEP   =    2.338    radius for radial grids                                 
   RDEPT  =    1.798    core radius for aug-charge                              
                                                                                
   Atomic configuration                                                         
    8 entries                                                                   
     n  l   j            E        occ.                                          
     1  0  0.50     -6424.8287   2.0000                                         
     2  0  0.50      -739.1154   2.0000                                         
     2  1  1.50      -625.3949   6.0000                                         
     3  0  0.50       -81.6100   2.0000                                         
     3  1  1.50       -50.4667   6.0000                                         
     3  2  2.50        -3.3745   6.0000                                         
     4  0  0.50        -4.1331   1.0000                                         
     4  3  2.50        -1.3606   0.0000                                         
   Description                                                                  
     l       E           TYP  RCUT    TYP  RCUT                                 
     1    -50.4666628     23  2.000                                             
     1     -1.3605826     23  2.000                                             
     2     -3.3744729     23  2.300                                             
     2     -4.7350555     23  2.300                                             
     0     -4.1331431     23  2.300                                             
     0      7.6656591     23  2.300                                             
     3      9.5240782     23  2.300                                             
  local pseudopotential read in
  partial core-charges read in
  partial kinetic energy density read in
  atomic valenz-charges read in
  non local Contribution for L=           1  read in
    real space projection operators read in
  non local Contribution for L=           1  read in
    real space projection operators read in
  non local Contribution for L=           2  read in
    real space projection operators read in
  non local Contribution for L=           2  read in
    real space projection operators read in
  non local Contribution for L=           0  read in
    real space projection operators read in
  non local Contribution for L=           0  read in
    real space projection operators read in
    PAW grid and wavefunctions read in
 
   number of l-projection  operators is LMAX  =           6
   number of lm-projection operators is LMMAX =          18
 
 POTCAR:    PAW_PBE O 08Apr2002                   
   VRHFIN =O: s2p4                                                              
   LEXCH  = PE                                                                  
   EATOM  =   432.3788 eV,   31.7789 Ry                                         
                                                                                
   TITEL  = PAW_PBE O 08Apr2002                                                 
   LULTRA =        F    use ultrasoft PP ?                                      
   IUNSCR =        1    unscreen: 0-lin 1-nonlin 2-no                           
   RPACOR =    1.200    partial core radius                                     
   POMASS =   16.000; ZVAL   =    6.000    mass and valenz                      
   RCORE  =    1.520    outmost cutoff radius                                   
   RWIGS  =    1.550; RWIGS  =    0.820    wigner-seitz radius (au A)           
   ENMAX  =  400.000; ENMIN  =  300.000 eV                                      
   ICORE  =        2    local potential                                         
   LCOR   =        T    correct aug charges                                     
   LPAW   =        T    paw PP                                                  
   EAUG   =  605.392                                                            
   DEXC   =    0.000                                                            
   RMAX   =    1.553    core radius for proj-oper                               
   RAUG   =    1.300    factor for augmentation sphere                          
   RDEP   =    1.550    radius for radial grids                                 
   RDEPT  =    1.329    core radius for aug-charge                              
                                                                                
   Atomic configuration                                                         
    4 entries                                                                   
     n  l   j            E        occ.                                          
     1  0  0.50      -514.6923   2.0000                                         
     2  0  0.50       -23.9615   2.0000                                         
     2  1  0.50        -9.0305   4.0000                                         
     3  2  1.50        -9.5241   0.0000                                         
   Description                                                                  
     l       E           TYP  RCUT    TYP  RCUT                                 
     0    -23.9615318     23  1.200                                             
     0     -9.5240782     23  1.200                                             
     1     -9.0304911     23  1.520                                             
     1      8.1634956     23  1.520                                             
     2     -9.5240782      7  1.500                                             
  local pseudopotential read in
  partial core-charges read in
  partial kinetic energy density read in
  kinetic energy density of atom read in
  atomic valenz-charges read in
  non local Contribution for L=           0  read in
    real space projection operators read in
  non local Contribution for L=           0  read in
    real space projection operators read in
  non local Contribution for L=           1  read in
    real space projection operators read in
  non local Contribution for L=           1  read in
    real space projection operators read in
    PAW grid and wavefunctions read in
 
   number of l-projection  operators is LMAX  =           4
   number of lm-projection operators is LMMAX =           8
 
 Optimization of the real space projectors (new method)

 maximal supplied QI-value         = 17.01
 optimisation between [QCUT,QGAM] = [ 10.20, 20.41] = [ 29.16,116.64] Ry 
 Optimized for a Real-space Cutoff    1.30 Angstroem

   l    n(q)    QCUT    max X(q) W(low)/X(q) W(high)/X(q)  e(spline) 
   1      7    10.205     4.940    0.23E-03    0.84E-03    0.11E-06
   1      7    10.205     6.253    0.40E-03    0.13E-02    0.18E-06
   0      8    10.205    37.438    0.23E-03    0.37E-03    0.42E-07
   0      8    10.205     9.606    0.16E-03    0.26E-03    0.31E-07
 Optimization of the real space projectors (new method)

 maximal supplied QI-value         = 18.90
 optimisation between [QCUT,QGAM] = [ 10.20, 20.41] = [ 29.16,116.64] Ry 
 Optimized for a Real-space Cutoff    1.26 Angstroem

   l    n(q)    QCUT    max X(q) W(low)/X(q) W(high)/X(q)  e(spline) 
   1      7    10.205     2.974    0.63E-04    0.14E-03    0.13E-06
   1      7    10.205     4.279    0.11E-03    0.45E-03    0.24E-06
   0      8    10.205    16.381    0.44E-03    0.15E-03    0.55E-07
   0      8    10.205     5.611    0.31E-03    0.11E-03    0.40E-07
   2      7    10.205     4.652    0.50E-03    0.47E-03    0.57E-07
 Optimization of the real space projectors (new method)

 maximal supplied QI-value         = 16.25
 optimisation between [QCUT,QGAM] = [ 10.24, 20.48] = [ 29.35,117.42] Ry 
 Optimized for a Real-space Cutoff    1.34 Angstroem

   l    n(q)    QCUT    max X(q) W(low)/X(q) W(high)/X(q)  e(spline) 
   1      8    10.239     3.658    0.23E-03    0.30E-03    0.98E-07
   1      8    10.239     5.612    0.32E-03    0.65E-03    0.21E-06
   2      7    10.239    55.373    0.42E-03    0.45E-03    0.65E-07
   2      7    10.239    50.863    0.43E-03    0.48E-03    0.67E-07
   0      8    10.239    79.536    0.11E-03    0.21E-03    0.56E-07
   0      8    10.239    38.668    0.96E-04    0.19E-03    0.52E-07
 Optimization of the real space projectors (new method)

 maximal supplied QI-value         = 24.76
 optimisation between [QCUT,QGAM] = [ 10.15, 20.30] = [ 28.85,115.39] Ry 
 Optimized for a Real-space Cutoff    1.38 Angstroem

   l    n(q)    QCUT    max X(q) W(low)/X(q) W(high)/X(q)  e(spline) 
   0      8    10.150    20.381    0.22E-03    0.32E-03    0.29E-06
   0      8    10.150    15.268    0.23E-03    0.35E-03    0.30E-06
   1      8    10.150     5.964    0.46E-03    0.53E-03    0.21E-06
   1      8    10.150     5.382    0.38E-03    0.45E-03    0.19E-06
  PAW_PBE Na_pv 19Sep2006               :
 energy of atom  1       EATOM= -766.0439
 kinetic energy error for atom=    0.0103 (will be added to EATOM!!)
  PAW_PBE Mg_pv 13Apr2007               :
 energy of atom  2       EATOM=-1056.7344
 kinetic energy error for atom=    0.0820 (will be added to EATOM!!)
  PAW_PBE Mn_pv 02Aug2007               :
 energy of atom  3       EATOM=-2025.2664
 kinetic energy error for atom=    0.0284 (will be added to EATOM!!)
  PAW_PBE O 08Apr2002                   :
 energy of atom  4       EATOM= -432.3788
 kinetic energy error for atom=    0.1156 (will be added to EATOM!!)
 
 
 POSCAR: Na Mg Mn  O                             
  positions in cartesian coordinates
  No initial velocities read in

 METAGGA = SCAN     LMAXTAU =  6    LMIXTAU =  F

 exchange correlation table for  LEXCH =        8
   RHO(1)=    0.500       N(1)  =     2000
   RHO(2)=  100.500       N(2)  =     4000

 VTST: version 3.2, (02/03/18)

 CHAIN: initializing optimizer
 
 OPT: Using VASP Dynamics algorithm
 CHAIN: Read ICHAIN            0
 
 POSCAR: Na Mg Mn  O                             
  positions in cartesian coordinates
  No initial velocities read in
 


--------------------------------------------------------------------------------------------------------


 ion  position               nearest neighbor table
   1  0.466  0.926  0.258-  51 2.25  88 2.30  42 2.32  31 2.87  29 2.96
   2  0.308  0.913  0.754-  44 2.30  81 2.31  47 2.35
   3  0.663  0.099  0.747-  56 2.14  46 2.31
   4  0.161  0.135  0.746-  58 2.23  45 2.32  61 2.36
   5  0.538  0.638  0.255-  74 2.23  65 2.29  79 2.38
   6  0.672  0.406  0.246-  66 2.19  75 2.23  52 2.35  43 2.36
   7  0.835  0.610  0.751-  72 2.36  34 2.88  36 2.96
   8  0.827  0.905  0.752-  72 2.23  69 2.31
   9  0.041  0.658  0.240-  67 2.23  77 2.27  76 2.34
  10  0.828  0.131  0.257-  62 2.20  64 2.33  32 2.82  30 2.93
  11  0.169  0.414  0.236-  78 2.27  55 2.30
  12  0.392  0.639  0.752-  85 2.18  82 2.26  84 2.36  38 2.93  40 2.95
  13  0.497  0.321  0.752-  45 2.24  48 2.32  71 2.37
  14  0.001  0.413  0.742-  57 2.28  80 2.32  60 2.34  37 2.88  39 2.93
  15  0.335  0.220  0.238-  41 2.14  43 2.29  52 2.30  26 2.92
  16  0.972  0.915  0.245-  54 2.24  67 2.25  76 2.29  25 2.75
  17  0.663  0.281  0.987-  71 1.90  43 1.91  49 2.02  60 2.05  66 2.13  53 2.20  33 2.81  26 2.81

  18  0.677  0.289  0.497-  57 2.00  75 2.01  68 2.03  46 2.06  52 2.11  62 2.15  36 2.78
  19  0.157  0.267  1.000-  55 1.96  48 2.00  61 2.01  83 2.04  41 2.15  78 2.24  30 2.78  25 2.81

  20  0.171  0.275  0.508-  45 1.92  50 2.02  64 2.02  80 2.08  58 2.12  87 2.19  28 2.78  32 2.83

  21  0.173  0.772  0.002-  77 2.05  42 2.06  47 2.08  84 2.09  73 2.14  67 2.14
  22  0.166  0.787  0.498-  76 1.97  44 2.04  86 2.05  70 2.08  81 2.11  51 2.11  27 2.75
  23  0.677  0.777  0.997-  72 1.99  59 2.00  65 2.06  85 2.11  79 2.11  54 2.18  34 2.78  25 2.85

  24  0.663  0.777  0.510-  82 1.94  69 2.01  63 2.05  88 2.05  56 2.08  74 2.15  35 2.79
  25  0.005  0.943  0.002-  54 1.86  61 1.90  67 1.91  41 1.94  72 1.95  47 1.95  16 2.75  19 2.81
                            23 2.85  34 2.89  26 2.90  30 2.94
  26  0.339  0.110  0.998-  47 1.89  48 1.89  49 1.90  42 1.90  43 1.94  41 1.98  17 2.81  25 2.90
                            33 2.91  29 2.92  15 2.92
  27  0.003  0.941  0.512-  69 1.88  50 1.96  44 1.98  58 2.00  76 2.02  63 2.02  22 2.75  36 2.89
                            32 2.91  28 2.93
  28  0.341  0.124  0.510-  45 1.88  50 1.90  51 1.91  44 1.94  52 1.99  46 2.03  20 2.78  35 2.89
                            31 2.90  27 2.93
  29  0.507  0.942  0.995-  84 1.88  53 1.88  42 1.89  59 1.96  79 2.00  49 2.04  30 2.87  38 2.91
                            26 2.92   1 2.96
  30  0.837  0.114  0.996-  55 1.89  60 1.91  59 1.91  54 1.92  61 1.95  53 1.96  19 2.78  37 2.83
                            29 2.87  10 2.93  25 2.94
  31  0.507  0.956  0.512-  46 1.83  51 1.90  81 1.92  88 1.95  62 1.95  56 1.98   1 2.87  28 2.90
                            32 2.93  40 2.98
  32  0.845  0.118  0.507-  64 1.86  57 1.86  58 1.89  62 1.93  63 1.96  56 2.03  10 2.82  20 2.83
                            27 2.91  39 2.92  31 2.93
  33  0.505  0.446  0.003-  71 1.89  78 1.90  85 1.90  43 1.92  65 1.96  48 2.00  17 2.81  34 2.83
                            38 2.85  26 2.91
  34  0.831  0.610  0.008-  67 1.89  66 1.90  65 1.91  71 1.94  72 1.95  73 2.00  23 2.78  33 2.83
                             7 2.88  25 2.89  37 2.95
  35  0.502  0.456  0.493-  82 1.81  74 1.86  87 1.93  68 1.95  52 1.95  45 2.08  24 2.79  40 2.86
                            28 2.89  36 2.90
  36  0.837  0.610  0.487-  68 1.89  70 1.90  75 1.91  74 1.93  76 1.94  69 1.96  18 2.78  39 2.87
                            27 2.89  35 2.90   7 2.96
  37  0.000  0.440  0.997-  73 1.85  77 1.92  83 1.92  55 1.95  60 1.97  66 2.08  30 2.83  14 2.88
                            38 2.94  34 2.95
  38  0.338  0.607  0.010-  85 1.89  84 1.90  79 1.92  78 1.95  83 1.96  77 1.98  33 2.85  29 2.91
                            12 2.93  37 2.94
  39  0.010  0.453  0.483-  80 1.85  86 1.87  75 1.97  64 1.98  57 2.00  70 2.05  40 2.78  36 2.87
                            32 2.92  14 2.93
  40  0.330  0.614  0.493-  80 1.87  86 1.90  87 1.90  82 1.96  88 1.98  81 2.03  39 2.78  35 2.86
                            12 2.95  31 2.98
  41  0.171  0.092  0.102-  25 1.94  26 1.98  15 2.14  19 2.15
  42  0.355  0.956  0.086-  29 1.89  26 1.90  21 2.06   1 2.32
  43  0.506  0.277  0.085-  17 1.91  33 1.92  26 1.94  15 2.29   6 2.36
  44  0.180  0.960  0.604-  28 1.94  27 1.98  22 2.04   2 2.30
  45  0.337  0.280  0.599-  28 1.88  20 1.92  35 2.08  13 2.24   4 2.32
  46  0.512  0.113  0.598-  31 1.83  28 2.03  18 2.06   3 2.31
  47  0.175  0.953  0.909-  26 1.89  25 1.95  21 2.08   2 2.35
  48  0.334  0.271  0.913-  26 1.89  33 2.00  19 2.00  13 2.32
  49  0.489  0.104  0.897-  26 1.90  17 2.02  29 2.04
  50  0.173  0.102  0.417-  28 1.90  27 1.96  20 2.02
  51  0.358  0.973  0.417-  31 1.90  28 1.91  22 2.11   1 2.25
  52  0.493  0.286  0.402-  35 1.95  28 1.99  18 2.11  15 2.30   6 2.35
  53  0.664  0.095  0.090-  29 1.88  30 1.96  17 2.20
  54  0.864  0.969  0.092-  25 1.86  30 1.92  23 2.18  16 2.24
  55  0.992  0.272  0.091-  30 1.89  37 1.95  19 1.96  11 2.30
  56  0.671  0.956  0.609-  31 1.98  32 2.03  24 2.08   3 2.14
  57  0.849  0.285  0.583-  32 1.86  39 2.00  18 2.00  14 2.28
  58  0.986  0.100  0.608-  32 1.89  27 2.00  20 2.12   4 2.23
  59  0.678  0.949  0.906-  30 1.91  29 1.96  23 2.00
  60  0.839  0.273  0.901-  30 1.91  37 1.97  17 2.05  14 2.34
  61  0.991  0.092  0.906-  25 1.90  30 1.95  19 2.01   4 2.36
  62  0.677  0.098  0.410-  32 1.93  31 1.95  18 2.15  10 2.20
  63  0.838  0.949  0.414-  32 1.96  27 2.02  24 2.05
  64  0.997  0.267  0.411-  32 1.86  39 1.98  20 2.02  10 2.33
  65  0.670  0.604  0.102-  34 1.91  33 1.96  23 2.06   5 2.29
  66  0.833  0.452  0.100-  34 1.90  37 2.08  17 2.13   6 2.19
  67  0.989  0.776  0.095-  34 1.89  25 1.91  21 2.14   9 2.23  16 2.25
  68  0.673  0.466  0.583-  36 1.89  35 1.95  18 2.03
  69  0.840  0.771  0.589-  27 1.88  36 1.96  24 2.01   8 2.31
  70  0.986  0.605  0.589-  36 1.90  39 2.05  22 2.08
  71  0.666  0.453  0.911-  33 1.89  17 1.90  34 1.94  13 2.37
  72  0.847  0.776  0.906-  34 1.95  25 1.95  23 1.99   8 2.23   7 2.36
  73  0.985  0.588  0.909-  37 1.85  34 2.00  21 2.14
  74  0.665  0.601  0.402-  35 1.86  36 1.93  24 2.15   5 2.23
  75  0.841  0.453  0.393-  36 1.91  39 1.97  18 2.01   6 2.23
  76  0.999  0.781  0.400-  36 1.94  22 1.97  27 2.02  16 2.29   9 2.34
  77  0.159  0.591  0.098-  37 1.92  38 1.98  21 2.05   9 2.27
  78  0.354  0.451  0.102-  33 1.90  38 1.95  19 2.24  11 2.27
  79  0.498  0.775  0.098-  38 1.92  29 2.00  23 2.11   5 2.38
  80  0.164  0.463  0.580-  39 1.85  40 1.87  20 2.08  14 2.32
  81  0.344  0.785  0.596-  31 1.92  40 2.03  22 2.11   2 2.31
  82  0.490  0.599  0.583-  35 1.81  24 1.94  40 1.96  12 2.26
  83  0.171  0.451  0.911-  37 1.92  38 1.96  19 2.04
  84  0.355  0.770  0.912-  29 1.88  38 1.90  21 2.09  12 2.36
  85  0.485  0.594  0.912-  38 1.89  33 1.90  23 2.11  12 2.18
  86  0.173  0.618  0.402-  39 1.87  40 1.90  22 2.05
  87  0.344  0.463  0.399-  40 1.90  35 1.93  20 2.19
  88  0.500  0.794  0.411-  31 1.95  40 1.98  24 2.05   1 2.30
 
  LATTYP: Found a hexagonal cell.
 ALAT       =    10.0190000534
 C/A-ratio  =     1.1196726572
  
  Lattice vectors:
  
 A1 = (  10.0190000534,   0.0000000000,   0.0000000000)
 A2 = (  -5.0095000267,   8.6767085668,   0.0000000000)
 A3 = (   0.0000000000,   0.0000000000,  11.2180004120)


Analysis of symmetry for initial positions (statically):
=====================================================================
 Subroutine PRICEL returns:
 Original cell was already a primitive cell.
 

 Routine SETGRP: Setting up the symmetry group for a 
 hexagonal supercell.


 Subroutine GETGRP returns: Found  1 space group operations
 (whereof  1 operations were pure point group operations)
 out of a pool of 24 trial point group operations.


The static configuration has the point symmetry C_1 .


Analysis of symmetry for dynamics (positions and initial velocities):
=====================================================================
 Subroutine PRICEL returns:
 Original cell was already a primitive cell.
 

 Routine SETGRP: Setting up the symmetry group for a 
 hexagonal supercell.


 Subroutine GETGRP returns: Found  1 space group operations
 (whereof  1 operations were pure point group operations)
 out of a pool of 24 trial point group operations.


The dynamic configuration has the point symmetry C_1 .


Analysis of structural, dynamic, and magnetic symmetry:
=====================================================================
 Subroutine PRICEL returns:
 Original cell was already a primitive cell.
 

 Routine SETGRP: Setting up the symmetry group for a 
 hexagonal supercell.


 Subroutine GETGRP returns: Found  1 space group operations
 (whereof  1 operations were pure point group operations)
 out of a pool of 24 trial point group operations.


The magnetic configuration has the point symmetry C_1 .


 Subroutine INISYM returns: Found  1 space group operations
 (whereof  1 operations are pure point group operations),
 and found     1 'primitive' translations

 
 

Automatic generation of k-mesh.
 generate k-points for:    2    2    2
Space group operators:
 irot       det(A)        alpha          n_x          n_y          n_z        tau_x        tau_y        tau_z
    1     1.000000     0.000000     1.000000     0.000000     0.000000     0.000000     0.000000     0.000000
 
 Subroutine IBZKPT returns following result:
 ===========================================
 
 Found      8 irreducible k-points:
 
 Following reciprocal coordinates:
            Coordinates               Weight
  0.000000  0.000000  0.000000      1.000000
  0.500000 -0.000000 -0.000000      1.000000
  0.000000  0.500000  0.000000      1.000000
  0.500000  0.500000 -0.000000      1.000000
  0.000000  0.000000  0.500000      1.000000
  0.500000 -0.000000  0.500000      1.000000
  0.000000  0.500000  0.500000      1.000000
  0.500000  0.500000  0.500000      1.000000
 
 Following cartesian coordinates:
            Coordinates               Weight
  0.000000  0.000000  0.000000      1.000000
  0.049905  0.028813 -0.000000      1.000000
  0.000000  0.057626  0.000000      1.000000
  0.049905  0.086438 -0.000000      1.000000
  0.000000  0.000000  0.044571      1.000000
  0.049905  0.028813  0.044571      1.000000
  0.000000  0.057626  0.044571      1.000000
  0.049905  0.086438  0.044571      1.000000
 


--------------------------------------------------------------------------------------------------------




 Dimension of arrays:
   k-points           NKPTS =      8   k-points in BZ     NKDIM =      8   number of bands    NBANDS=    480
   number of dos      NEDOS =    301   number of ions     NIONS =     88
   non local maximal  LDIM  =      6   non local SUM 2l+1 LMDIM =     18
   total plane-waves  NPLWV = 140000
   max r-space proj   IRMAX =   1632   max aug-charges    IRDMAX=   4555
   dimension x,y,z NGX =    50 NGY =   50 NGZ =   56
   dimension x,y,z NGXF=   100 NGYF=  100 NGZF=  112
   support grid    NGXF=   100 NGYF=  100 NGZF=  112
   ions per type =              16   8  16  48
   NGX,Y,Z   is equivalent  to a cutoff of   8.30,  8.30,  8.30 a.u.
   NGXF,Y,Z  is equivalent  to a cutoff of  16.59, 16.59, 16.60 a.u.

 SYSTEM =  unknown system                          
 POSCAR =  Na Mg Mn  O                             

 Startparameter for this run:
   NWRITE =      2    write-flag & timer
   PREC   = normal    normal or accurate (medium, high low for compatibility)
   ISTART =      0    job   : 0-new  1-cont  2-samecut
   ICHARG =      1    charge: 1-file 2-atom 10-const
   ISPIN  =      2    spin polarized calculation?
   LNONCOLLINEAR =      F non collinear calculations
   LSORBIT =      F    spin-orbit coupling
   INIWAV =      1    electr: 0-lowe 1-rand  2-diag
   LASPH  =      T    aspherical Exc in radial PAW
   METAGGA=      F    non-selfconsistent MetaGGA calc.

 Electronic Relaxation 1
   ENCUT  =  400.0 eV  29.40 Ry    5.42 a.u.  16.34 16.34 18.29*2*pi/ulx,y,z
   ENINI  =  400.0     initial cutoff
   ENAUG  =  758.8 eV  augmentation charge cutoff
   NELM   =    200;   NELMIN=  6; NELMDL=-12     # of ELM steps 
   EDIFF  = 0.1E-04   stopping-criterion for ELM
   LREAL  =      T    real-space projection
   NLSPLINE    = F    spline interpolate recip. space projectors
   LCOMPAT=      F    compatible to vasp.4.4
   GGA_COMPAT  = T    GGA compatible to vasp.4.4-vasp.4.6
   LMAXPAW     = -100 max onsite density
   LMAXMIX     =    4 max onsite mixed and CHGCAR
   VOSKOWN=      0    Vosko Wilk Nusair interpolation
   ROPT   =   -0.00050  -0.00050  -0.00050  -0.00050
 Ionic relaxation
   EDIFFG = 0.1E-03   stopping-criterion for IOM
   NSW    =      1    number of steps for IOM
   NBLOCK =      1;   KBLOCK =      1    inner block; outer block 
   IBRION =     -1    ionic relax: 0-MD 1-quasi-New 2-CG
   NFREE  =      0    steps in history (QN), initial steepest desc. (CG)
   ISIF   =      2    stress and relaxation
   IWAVPR =     10    prediction:  0-non 1-charg 2-wave 3-comb
   ISYM   =      2    0-nonsym 1-usesym 2-fastsym
   LCORR  =      T    Harris-Foulkes like correction to forces

   POTIM  = 0.5000    time-step for ionic-motion
   TEIN   =    0.0    initial temperature
   TEBEG  =    0.0;   TEEND  =   0.0 temperature during run
   SMASS  =  -3.00    Nose mass-parameter (am)
   estimated Nose-frequenzy (Omega)   =  0.10E-29 period in steps =****** mass=  -0.229E-26a.u.
   SCALEE = 1.0000    scale energy and forces
   NPACO  =    256;   APACO  = 16.0  distance and # of slots for P.C.
   PSTRESS=    0.0 pullay stress

  Mass of Ions in am
   POMASS =  22.99 24.30 54.94 16.00
  Ionic Valenz
   ZVAL   =   7.00  8.00 13.00  6.00
  Atomic Wigner-Seitz radii
   RWIGS  =  -1.00 -1.00 -1.00 -1.00
  virtual crystal weights 
   VCA    =   1.00  1.00  1.00  1.00
   NELECT =     672.0000    total number of electrons
   NUPDOWN=      48.0000    fix difference up-down

 DOS related values:
   EMIN   =  10.00;   EMAX   =-10.00  energy-range for DOS
   EFERMI =   0.00
   ISMEAR =     0;   SIGMA  =   0.05  broadening in eV -4-tet -1-fermi 0-gaus

 Electronic relaxation 2 (details)
   IALGO  =     48    algorithm
   LDIAG  =      T    sub-space diagonalisation (order eigenvalues)
   LSUBROT=      F    optimize rotation matrix (better conditioning)
   TURBO    =      0    0=normal 1=particle mesh
   IRESTART =      0    0=no restart 2=restart with 2 vectors
   NREBOOT  =      0    no. of reboots
   NMIN     =      0    reboot dimension
   EREF     =   0.00    reference energy to select bands
   IMIX   =      4    mixing-type and parameters
     AMIX     =   0.40;   BMIX     =  1.00
     AMIX_MAG =   1.60;   BMIX_MAG =  1.00
     AMIN     =   0.10
     WC   =   100.;   INIMIX=   1;  MIXPRE=   1;  MAXMIX= -45

 Intra band minimization:
   WEIMIN = 0.0000     energy-eigenvalue tresh-hold
   EBREAK =  0.52E-08  absolut break condition
   DEPER  =   0.30     relativ break condition  

   TIME   =   0.40     timestep for ELM

  volume/ion in A,a.u.               =      11.08        74.78
  Fermi-wavevector in a.u.,A,eV,Ry     =   1.445993  2.732531 28.448379  2.090897
  Thomas-Fermi vector in A             =   2.564112
 
 Write flags
   LWAVE        =      F    write WAVECAR
   LDOWNSAMPLE  =      F    k-point downsampling of WAVECAR
   LCHARG       =      F    write CHGCAR
   LVTOT        =      F    write LOCPOT, total local potential
   LVHAR        =      F    write LOCPOT, Hartree potential only
   LELF         =      F    write electronic localiz. function (ELF)
   LORBIT       =     11    0 simple, 1 ext, 2 COOP (PROOUT), +10 PAW based schemes


 Dipole corrections
   LMONO  =      F    monopole corrections only (constant potential shift)
   LDIPOL =      F    correct potential (dipole corrections)
   IDIPOL =      0    1-x, 2-y, 3-z, 4-all directions 
   EPSILON=  1.0000000 bulk dielectric constant

 Exchange correlation treatment:
   GGA     =    --    GGA type
   LEXCH   =     8    internal setting for exchange type
   VOSKOWN=      0    Vosko Wilk Nusair interpolation
   LHFCALC =     F    Hartree Fock is set to
   LHFONE  =     F    Hartree Fock one center treatment
   AEXX    =    0.0000 exact exchange contribution

 Linear response parameters
   LEPSILON=     F    determine dielectric tensor
   LRPA    =     F    only Hartree local field effects (RPA)
   LNABLA  =     F    use nabla operator in PAW spheres
   LVEL    =     F    velocity operator in full k-point grid
   LINTERFAST=   F  fast interpolation
   KINTER  =     0    interpolate to denser k-point grid
   CSHIFT  =0.1000    complex shift for real part using Kramers Kronig
   OMEGAMAX=  -1.0    maximum frequency
   DEG_THRESHOLD= 0.2000000E-02 threshold for treating states as degnerate
   RTIME   =   -0.100 relaxation time in fs
  (WPLASMAI=    0.000 imaginary part of plasma frequency in eV, 0.658/RTIME)
   DFIELD  = 0.0000000 0.0000000 0.0000000 field for delta impulse in time
 
 Orbital magnetization related:
   ORBITALMAG=     F  switch on orbital magnetization
   LCHIMAG   =     F  perturbation theory with respect to B field
   DQ        =  0.001000  dq finite difference perturbation B field
   LLRAUG    =     F  two centre corrections for induced B field



--------------------------------------------------------------------------------------------------------


 Static calculation
 charge density and potential will be updated during run
 spin polarized calculation
 RMM-DIIS sequential band-by-band
 perform sub-space diagonalisation
    before iterative eigenvector-optimisation
 modified Broyden-mixing scheme, WC =      100.0
 initial mixing is a Kerker type mixing with AMIX =  0.4000 and BMIX =      1.0000
 Hartree-type preconditioning will be used
 using additional bands          144
 real space projection scheme for non local part
 use partial core corrections
 calculate Harris-corrections to forces 
   (improved forces if not selfconsistent)
 use gradient corrections 
 use of overlap-Matrix (Vanderbilt PP)
 Gauss-broadening in eV      SIGMA  =   0.05


--------------------------------------------------------------------------------------------------------


  energy-cutoff  :      400.00
  volume of cell :      975.20
      direct lattice vectors                 reciprocal lattice vectors
    10.019000053  0.000000000  0.000000000     0.099810360  0.057625538 -0.000000000
    -5.009500027  8.676708567  0.000000000     0.000000000  0.115251076  0.000000000
     0.000000000  0.000000000 11.218000412     0.000000000  0.000000000  0.089142446

  length of vectors
    10.019000053 10.019000053 11.218000412     0.115251076  0.115251076  0.089142446


 
 k-points in units of 2pi/SCALE and weight: read from INCAR                         
   0.00000000  0.00000000  0.00000000       0.125
   0.04990518  0.02881277 -0.00000000       0.125
   0.00000000  0.05762554  0.00000000       0.125
   0.04990518  0.08643831 -0.00000000       0.125
   0.00000000  0.00000000  0.04457122       0.125
   0.04990518  0.02881277  0.04457122       0.125
   0.00000000  0.05762554  0.04457122       0.125
   0.04990518  0.08643831  0.04457122       0.125
 
 k-points in reciprocal lattice and weights: read from INCAR                         
   0.00000000  0.00000000  0.00000000       0.125
   0.50000000 -0.00000000 -0.00000000       0.125
   0.00000000  0.50000000  0.00000000       0.125
   0.50000000  0.50000000 -0.00000000       0.125
   0.00000000  0.00000000  0.50000000       0.125
   0.50000000 -0.00000000  0.50000000       0.125
   0.00000000  0.50000000  0.50000000       0.125
   0.50000000  0.50000000  0.50000000       0.125
 
 position of ions in fractional coordinates (direct lattice) 
   0.46633791  0.92603244  0.25779015
   0.30834220  0.91260215  0.75394631
   0.66256295  0.09901549  0.74731233
   0.16087200  0.13493695  0.74614991
   0.53761233  0.63845853  0.25477981
   0.67171884  0.40603876  0.24641914
   0.83477172  0.61015632  0.75115348
   0.82729930  0.90466546  0.75190495
   0.04134239  0.65755250  0.23990907
   0.82761171  0.13075992  0.25679978
   0.16895651  0.41398845  0.23605455
   0.39159958  0.63942433  0.75172310
   0.49710786  0.32131424  0.75150737
   0.00105730  0.41257465  0.74178995
   0.33497452  0.22042114  0.23772775
   0.97165513  0.91480445  0.24530486
   0.66283346  0.28067440  0.98652362
   0.67693066  0.28926407  0.49656978
   0.15686194  0.26650659  0.99979935
   0.17114058  0.27473091  0.50813601
   0.17306227  0.77234471  0.00156887
   0.16553161  0.78747603  0.49836065
   0.67724953  0.77697435  0.99692180
   0.66330915  0.77683490  0.51039577
   0.00533877  0.94299814  0.00153280
   0.33927938  0.11013278  0.99750730
   0.00314247  0.94140421  0.51167853
   0.34055479  0.12358488  0.50970759
   0.50699972  0.94187328  0.99545370
   0.83716373  0.11376653  0.99643427
   0.50657011  0.95584748  0.51151629
   0.84456369  0.11781887  0.50680066
   0.50503474  0.44566784  0.00340438
   0.83080716  0.61014611  0.00765072
   0.50241924  0.45591943  0.49333213
   0.83656318  0.60972084  0.48727401
   0.00000045  0.44005281  0.99723270
   0.33793773  0.60678193  0.00962640
   0.01029291  0.45326174  0.48250756
   0.33047174  0.61354832  0.49285521
   0.17114611  0.09167439  0.10157960
   0.35516923  0.95625323  0.08558638
   0.50601772  0.27737131  0.08490105
   0.17950093  0.95964864  0.60442590
   0.33657804  0.28017076  0.59916115
   0.51175562  0.11287944  0.59770099
   0.17536402  0.95342093  0.90894095
   0.33415627  0.27147852  0.91330893
   0.48888386  0.10359066  0.89721872
   0.17250005  0.10178422  0.41723300
   0.35848420  0.97341515  0.41658405
   0.49338357  0.28640584  0.40210286
   0.66358504  0.09521479  0.09015332
   0.86389185  0.96921897  0.09159119
   0.99220150  0.27216426  0.09081119
   0.67145004  0.95608704  0.60887143
   0.84939307  0.28494446  0.58280173
   0.98596938  0.10002341  0.60774022
   0.67848169  0.94901650  0.90561594
   0.83936493  0.27289496  0.90054374
   0.99070131  0.09185476  0.90574074
   0.67687661  0.09802911  0.40956140
   0.83783262  0.94931730  0.41357192
   0.99742773  0.26669099  0.41072293
   0.66977984  0.60442044  0.10189695
   0.83340841  0.45181534  0.09964343
   0.98854476  0.77585987  0.09497771
   0.67321735  0.46560628  0.58300675
   0.84024682  0.77093980  0.58905863
   0.98578638  0.60544041  0.58899623
   0.66645383  0.45266013  0.91145477
   0.84727109  0.77559018  0.90605274
   0.98470746  0.58798564  0.90903010
   0.66501264  0.60084074  0.40201817
   0.84054066  0.45272121  0.39270368
   0.99916274  0.78125593  0.39981635
   0.15910967  0.59129449  0.09752986
   0.35449399  0.45135548  0.10222410
   0.49833535  0.77458865  0.09793724
   0.16382098  0.46255443  0.58025760
   0.34366029  0.78533236  0.59641021
   0.49034849  0.59944735  0.58327329
   0.17148897  0.45120451  0.91112494
   0.35510277  0.77008118  0.91186483
   0.48505390  0.59406628  0.91212334
   0.17307669  0.61781722  0.40166338
   0.34410254  0.46277341  0.39937064
   0.50027247  0.79356820  0.41094489
 
 position of ions in cartesian coordinates  (Angst):
   0.03328003  8.03491357  2.89189000
  -1.48239995  7.91838287  8.45777000
   6.14220013  0.85912857  8.38335000
   0.93580997  1.17080857  8.37031000
   2.18797997  5.53971857  2.85812000
   4.69589989  3.52308000  2.76433000
   5.30699976  5.29414857  8.42644000
   3.75679003  7.84951857  8.43487000
  -2.87979992  5.70539143  2.69130000
   7.63679989  1.13456573  2.88078000
  -0.38109992  3.59205717  2.64806000
   0.72023997  5.54809857  8.43283000
   3.37089995  2.78795000  8.43041000
  -2.05619968  3.57979000  8.32140000
   2.25191005  1.91253000  2.66683000
   5.15229992  7.93749157  2.75183000
   5.23489000  2.43533000 11.06682241
   5.33310000  2.50986000  5.57052000
   0.23653500  2.31240000 11.21574951
   0.33839300  2.38376000  5.70027000
  -2.13515000  6.70141000  0.01759959
  -2.28640000  6.83270000  5.59061000
   2.89311000  6.74158000 11.18346911
   2.75414000  6.74037000  5.72562000
  -4.67046005  8.18212000  0.01719500
   2.84753000  0.95559000 11.19003731
  -4.68448005  8.16829000  5.74001000
   2.79292000  1.07231000  5.71790000
   0.36131600  8.17236000 11.16700000
   7.81763000  0.98711900 11.17800000
   0.28700800  8.29361000  5.73819000
   7.87147000  1.02228000  5.68529000
   2.82737000  3.86693000  0.03819030
   5.26733000  5.29406000  0.08582580
   2.74981000  3.95588000  5.53420000
   5.32713000  5.29037000  5.46624000
  -2.20444005  3.81821000 11.18695681
   0.34612400  5.26487000  0.10798900
  -2.16749005  3.93282000  5.41277000
   0.23742600  5.32358000  5.52885000
   1.25547000  0.79543200  1.13952000
  -1.23191003  8.29713057  0.96010800
   3.68030000  2.40667000  0.95242000
  -3.00894003  8.32659157  6.78045000
   1.96866000  2.43096000  6.72139000
   4.56181000  0.97942200  6.70501000
  -3.01919003  8.27255557 10.19650000
   1.98794000  2.35554000 10.24550000
   4.37919000  0.89882600 10.06500000
   1.21839000  0.88315200  4.68052000
  -1.28467003  8.44603957  4.67324000
   3.50846000  2.48506000  4.51079000
   6.17148000  0.82615100  1.01134000
   3.80002997  8.40963057  1.02747000
   8.57746000  2.36149000  1.01872000
   1.93773997  8.29568857  6.83032000
   7.08264000  2.47238000  6.53787000
   9.37736000  0.86787400  6.81763000
   2.04360997  8.23433957 10.15920000
   7.04253000  2.36783000 10.10230000
   9.46569000  0.79699700 10.16060000
   6.29055000  0.85057000  4.59446000
   3.63863997  8.23694957  4.63945000
   8.65724000  2.31400000  4.60749000
   3.68268000  5.24438000  1.14308000
   6.08655000  3.92027000  1.11780000
   6.01756000  6.73191000  1.06546000
   4.41251000  4.03993000  6.54017000
   4.55641000  6.68922000  6.60806000
   6.84364000  5.25323000  6.60736000
   4.40960000  3.92760000 10.22470000
   4.60349000  6.72957000 10.16410000
   6.92027000  5.10178000 10.19750000
   3.65285000  5.21332000  4.50984000
   6.15347000  3.92813000  4.40535000
   6.09691000  6.77873000  4.48514000
  -1.36797000  5.13049000  1.09409000
   1.29061000  3.91628000  1.14675000
   1.11252000  6.72088000  1.09866000
  -0.67584400  4.01345000  6.50933000
  -0.49099000  6.81410000  6.69053000
   1.90987000  5.20123000  6.54316000
  -0.54216100  3.91497000 10.22100000
  -0.29994700  6.68177000 10.22930000
   1.88378000  5.15454000 10.23220000
  -1.36090000  5.36062000  4.50586000
   1.12930000  4.01535000  4.48014000
   1.03685000  6.88556000  4.60998000
 


--------------------------------------------------------------------------------------------------------


 k-point  1 :   0.0000 0.0000 0.0000  plane waves:   17725
 k-point  2 :   0.5000-0.0000-0.0000  plane waves:   17736
 k-point  3 :   0.0000 0.5000 0.0000  plane waves:   17736
 k-point  4 :   0.5000 0.5000-0.0000  plane waves:   17736
 k-point  5 :   0.0000 0.0000 0.5000  plane waves:   17676
 k-point  6 :   0.5000-0.0000 0.5000  plane waves:   17700
 k-point  7 :   0.0000 0.5000 0.5000  plane waves:   17700
 k-point  8 :   0.5000 0.5000 0.5000  plane waves:   17700

 maximum and minimum number of plane-waves per node :     17736    17676

 maximum number of plane-waves:     17736
 maximum index in each direction: 
   IXMAX=   16   IYMAX=   16   IZMAX=   18
   IXMIN=  -16   IYMIN=  -16   IZMIN=  -18


 serial   3D FFT for wavefunctions
 parallel 3D FFT for charge:
    minimum data exchange during FFTs selected (reduces bandwidth)


 total amount of memory used by VASP MPI-rank0    94420. kBytes
=======================================================================

   base      :      30000. kBytes
   nonlr-proj:      13661. kBytes
   fftplans  :       1275. kBytes
   grid      :      22786. kBytes
   one-center:       2737. kBytes
   wavefun   :      23961. kBytes
 
     INWAV:  cpu time    0.0000: real time    0.0001
 Broyden mixing: mesh for mixing (old mesh)
   NGX = 33   NGY = 33   NGZ = 37
  (NGX  =100   NGY  =100   NGZ  =112)
  gives a total of  40293 points

 initial charge density was supplied:
 charge density of overlapping atoms calculated
 number of electron     672.0000000 magnetization      48.0000000
 keeping initial charge density in first step


--------------------------------------------------------------------------------------------------------


 Maximum index for non-local projection operator         1546
 Maximum index for augmentation-charges          533 (set IRDMAX)


--------------------------------------------------------------------------------------------------------


 First call to EWALD:  gamma=   0.179
 Maximum number of real-space cells 3x 3x 2
 Maximum number of reciprocal cells 3x 3x 3

    FEWALD:  cpu time    0.0026: real time    0.0026


--------------------------------------- Iteration      1(   1)  ---------------------------------------


    POTLOK:  cpu time    0.1913: real time    0.1927
    SETDIJ:  cpu time    4.6601: real time    4.6640
    EDDIAG:  cpu time    4.3969: real time    4.7946
  RMM-DIIS:  cpu time    9.1175: real time    9.1549
    ORTHCH:  cpu time    1.1497: real time    1.2337
       DOS:  cpu time    0.0024: real time    0.0024
    --------------------------------------------
      LOOP:  cpu time   19.5179: real time   20.0423

 eigenvalue-minimisations  :  7680
 total energy-change (2. order) : 0.1487827E+04  (-0.3498232E+05)
 number of electron     672.0000000 magnetization      48.0000000
 augmentation part      672.0000000 magnetization      48.0000000

 Free energy of the ion-electron system (eV)
  ---------------------------------------------------
  alpha Z        PSCENC =      2652.81237852
  Ewald energy   TEWEN  =    -41983.02042102
  -Hartree energ DENC   =    -25636.92469471
  -exchange      EXHF   =         0.00000000
  -V(xc)+E(xc)   XCENC  =      3605.32050028
  PAW double counting   =     55594.23204139   -59034.67079123
  entropy T*S    EENTRO =        -0.04942943
  eigenvalues    EBANDS =     -7572.07030601
  atomic energy  EATOM  =     73862.19814772
  Solvation  Ediel_sol  =         0.00000000
  ---------------------------------------------------
  free energy    TOTEN  =      1487.82742552 eV

  energy without entropy =     1487.87685495  energy(sigma->0) =     1487.85214023


--------------------------------------------------------------------------------------------------------




--------------------------------------- Iteration      1(   2)  ---------------------------------------


    EDDIAG:  cpu time    4.4087: real time    4.7951
  RMM-DIIS:  cpu time    9.1596: real time    9.1633
    ORTHCH:  cpu time    1.1490: real time    1.2323
       DOS:  cpu time    0.0017: real time    0.0017
    --------------------------------------------
      LOOP:  cpu time   14.7191: real time   15.1925

 eigenvalue-minimisations  :  7680
 total energy-change (2. order) :-0.2206983E+04  (-0.7995115E+04)
 number of electron     672.0000000 magnetization      48.0000000
 augmentation part      672.0000000 magnetization      48.0000000

 Free energy of the ion-electron system (eV)
  ---------------------------------------------------
  alpha Z        PSCENC =      2652.81237852
  Ewald energy   TEWEN  =    -41983.02042102
  -Hartree energ DENC   =    -25636.92469471
  -exchange      EXHF   =         0.00000000
  -V(xc)+E(xc)   XCENC  =      3605.32050028
  PAW double counting   =     55594.23204139   -59034.67079123
  entropy T*S    EENTRO =        -0.03893204
  eigenvalues    EBANDS =     -9779.06380730
  atomic energy  EATOM  =     73862.19814772
  Solvation  Ediel_sol  =         0.00000000
  ---------------------------------------------------
  free energy    TOTEN  =      -719.15557839 eV

  energy without entropy =     -719.11664635  energy(sigma->0) =     -719.13611237


--------------------------------------------------------------------------------------------------------




--------------------------------------- Iteration      1(   3)  ---------------------------------------


    EDDIAG:  cpu time    4.4057: real time    4.8030
  RMM-DIIS:  cpu time    9.0638: real time    9.1795
    ORTHCH:  cpu time    1.1510: real time    1.2333
       DOS:  cpu time    0.0020: real time    0.0020
    --------------------------------------------
      LOOP:  cpu time   14.6224: real time   15.2178

 eigenvalue-minimisations  :  7680
 total energy-change (2. order) : 0.7188264E+02  (-0.1416162E+04)
 number of electron     672.0000000 magnetization      48.0000000
 augmentation part      672.0000000 magnetization      48.0000000

 Free energy of the ion-electron system (eV)
  ---------------------------------------------------
  alpha Z        PSCENC =      2652.81237852
  Ewald energy   TEWEN  =    -41983.02042102
  -Hartree energ DENC   =    -25636.92469471
  -exchange      EXHF   =         0.00000000
  -V(xc)+E(xc)   XCENC  =      3605.32050028
  PAW double counting   =     55594.23204139   -59034.67079123
  entropy T*S    EENTRO =        -0.04737881
  eigenvalues    EBANDS =     -9707.17272078
  atomic energy  EATOM  =     73862.19814772
  Solvation  Ediel_sol  =         0.00000000
  ---------------------------------------------------
  free energy    TOTEN  =      -647.27293863 eV

  energy without entropy =     -647.22555983  energy(sigma->0) =     -647.24924923


--------------------------------------------------------------------------------------------------------




--------------------------------------- Iteration      1(   4)  ---------------------------------------


    EDDIAG:  cpu time    4.4172: real time    4.7816
  RMM-DIIS:  cpu time    9.1531: real time    9.1587
    ORTHCH:  cpu time    1.1481: real time    1.2322
       DOS:  cpu time    0.0014: real time    0.0014
    --------------------------------------------
      LOOP:  cpu time   14.7198: real time   15.1739

 eigenvalue-minimisations  :  7680
 total energy-change (2. order) :-0.4655688E+03  (-0.4274499E+03)
 number of electron     672.0000000 magnetization      48.0000000
 augmentation part      672.0000000 magnetization      48.0000000

 Free energy of the ion-electron system (eV)
  ---------------------------------------------------
  alpha Z        PSCENC =      2652.81237852
  Ewald energy   TEWEN  =    -41983.02042102
  -Hartree energ DENC   =    -25636.92469471
  -exchange      EXHF   =         0.00000000
  -V(xc)+E(xc)   XCENC  =      3605.32050028
  PAW double counting   =     55594.23204139   -59034.67079123
  entropy T*S    EENTRO =        -0.00000000
  eigenvalues    EBANDS =    -10172.78885427
  atomic energy  EATOM  =     73862.19814772
  Solvation  Ediel_sol  =         0.00000000
  ---------------------------------------------------
  free energy    TOTEN  =     -1112.84169331 eV

  energy without entropy =    -1112.84169331  energy(sigma->0) =    -1112.84169331


--------------------------------------------------------------------------------------------------------




--------------------------------------- Iteration      1(   5)  ---------------------------------------


    EDDIAG:  cpu time    4.3934: real time    4.7857
  RMM-DIIS:  cpu time    9.1142: real time    9.1555
    ORTHCH:  cpu time    1.1472: real time    1.2312
       DOS:  cpu time    0.0015: real time    0.0015
    --------------------------------------------
      LOOP:  cpu time   14.6563: real time   15.1739

 eigenvalue-minimisations  :  7680
 total energy-change (2. order) :-0.1041721E+03  (-0.1594612E+03)
 number of electron     672.0000000 magnetization      48.0000000
 augmentation part      672.0000000 magnetization      48.0000000

 Free energy of the ion-electron system (eV)
  ---------------------------------------------------
  alpha Z        PSCENC =      2652.81237852
  Ewald energy   TEWEN  =    -41983.02042102
  -Hartree energ DENC   =    -25636.92469471
  -exchange      EXHF   =         0.00000000
  -V(xc)+E(xc)   XCENC  =      3605.32050028
  PAW double counting   =     55594.23204139   -59034.67079123
  entropy T*S    EENTRO =        -0.00000000
  eigenvalues    EBANDS =    -10276.96092254
  atomic energy  EATOM  =     73862.19814772
  Solvation  Ediel_sol  =         0.00000000
  ---------------------------------------------------
  free energy    TOTEN  =     -1217.01376159 eV

  energy without entropy =    -1217.01376159  energy(sigma->0) =    -1217.01376159


--------------------------------------------------------------------------------------------------------




--------------------------------------- Iteration      1(   6)  ---------------------------------------


    EDDIAG:  cpu time    4.3909: real time    4.7795
  RMM-DIIS:  cpu time    9.1200: real time    9.1398
    ORTHCH:  cpu time    1.1463: real time    1.2287
       DOS:  cpu time    0.0015: real time    0.0015
    --------------------------------------------
      LOOP:  cpu time   14.6587: real time   15.1495

 eigenvalue-minimisations  :  7680
 total energy-change (2. order) :-0.8853661E+01  (-0.7888860E+02)
 number of electron     672.0000000 magnetization      48.0000000
 augmentation part      672.0000000 magnetization      48.0000000

 Free energy of the ion-electron system (eV)
  ---------------------------------------------------
  alpha Z        PSCENC =      2652.81237852
  Ewald energy   TEWEN  =    -41983.02042102
  -Hartree energ DENC   =    -25636.92469471
  -exchange      EXHF   =         0.00000000
  -V(xc)+E(xc)   XCENC  =      3605.32050028
  PAW double counting   =     55594.23204139   -59034.67079123
  entropy T*S    EENTRO =        -0.00000000
  eigenvalues    EBANDS =    -10285.81458399
  atomic energy  EATOM  =     73862.19814772
  Solvation  Ediel_sol  =         0.00000000
  ---------------------------------------------------
  free energy    TOTEN  =     -1225.86742303 eV

  energy without entropy =    -1225.86742303  energy(sigma->0) =    -1225.86742303


--------------------------------------------------------------------------------------------------------




--------------------------------------- Iteration      1(   7)  ---------------------------------------


    EDDIAG:  cpu time    4.3915: real time    4.7877
  RMM-DIIS:  cpu time    9.1050: real time    9.1346
    ORTHCH:  cpu time    1.1538: real time    1.2355
       DOS:  cpu time    0.0020: real time    0.0020
    --------------------------------------------
      LOOP:  cpu time   14.6524: real time   15.1599

 eigenvalue-minimisations  :  7680
 total energy-change (2. order) :-0.1838664E+01  (-0.4804812E+02)
 number of electron     672.0000000 magnetization      48.0000000
 augmentation part      672.0000000 magnetization      48.0000000

 Free energy of the ion-electron system (eV)
  ---------------------------------------------------
  alpha Z        PSCENC =      2652.81237852
  Ewald energy   TEWEN  =    -41983.02042102
  -Hartree energ DENC   =    -25636.92469471
  -exchange      EXHF   =         0.00000000
  -V(xc)+E(xc)   XCENC  =      3605.32050028
  PAW double counting   =     55594.23204139   -59034.67079123
  entropy T*S    EENTRO =        -0.00000000
  eigenvalues    EBANDS =    -10287.65324823
  atomic energy  EATOM  =     73862.19814772
  Solvation  Ediel_sol  =         0.00000000
  ---------------------------------------------------
  free energy    TOTEN  =     -1227.70608728 eV

  energy without entropy =    -1227.70608728  energy(sigma->0) =    -1227.70608728


--------------------------------------------------------------------------------------------------------




--------------------------------------- Iteration      1(   8)  ---------------------------------------


    EDDIAG:  cpu time    4.4043: real time    4.8039
  RMM-DIIS:  cpu time    9.1298: real time    9.1406
    ORTHCH:  cpu time    1.1446: real time    1.2294
       DOS:  cpu time    0.0011: real time    0.0011
    --------------------------------------------
      LOOP:  cpu time   14.6798: real time   15.1749

 eigenvalue-minimisations  :  7680
 total energy-change (2. order) : 0.4989861E+01  (-0.2972202E+02)
 number of electron     672.0000000 magnetization      48.0000000
 augmentation part      672.0000000 magnetization      48.0000000

 Free energy of the ion-electron system (eV)
  ---------------------------------------------------
  alpha Z        PSCENC =      2652.81237852
  Ewald energy   TEWEN  =    -41983.02042102
  -Hartree energ DENC   =    -25636.92469471
  -exchange      EXHF   =         0.00000000
  -V(xc)+E(xc)   XCENC  =      3605.32050028
  PAW double counting   =     55594.23204139   -59034.67079123
  entropy T*S    EENTRO =        -0.00000000
  eigenvalues    EBANDS =    -10282.66338757
  atomic energy  EATOM  =     73862.19814772
  Solvation  Ediel_sol  =         0.00000000
  ---------------------------------------------------
  free energy    TOTEN  =     -1222.71622661 eV

  energy without entropy =    -1222.71622661  energy(sigma->0) =    -1222.71622661


--------------------------------------------------------------------------------------------------------




--------------------------------------- Iteration      1(   9)  ---------------------------------------


    EDDIAG:  cpu time    4.3970: real time    4.7905
  RMM-DIIS:  cpu time   19.3302: real time   19.3462
    ORTHCH:  cpu time    1.1497: real time    1.2304
       DOS:  cpu time    0.0012: real time    0.0012
    --------------------------------------------
      LOOP:  cpu time   24.8781: real time   25.3683

 eigenvalue-minimisations  : 21802
 total energy-change (2. order) : 0.9141127E+01  (-0.1309575E+02)
 number of electron     672.0000000 magnetization      48.0000000
 augmentation part      672.0000000 magnetization      48.0000000

 Free energy of the ion-electron system (eV)
  ---------------------------------------------------
  alpha Z        PSCENC =      2652.81237852
  Ewald energy   TEWEN  =    -41983.02042102
  -Hartree energ DENC   =    -25636.92469471
  -exchange      EXHF   =         0.00000000
  -V(xc)+E(xc)   XCENC  =      3605.32050028
  PAW double counting   =     55594.23204139   -59034.67079123
  entropy T*S    EENTRO =        -0.00000000
  eigenvalues    EBANDS =    -10273.52226019
  atomic energy  EATOM  =     73862.19814772
  Solvation  Ediel_sol  =         0.00000000
  ---------------------------------------------------
  free energy    TOTEN  =     -1213.57509924 eV

  energy without entropy =    -1213.57509924  energy(sigma->0) =    -1213.57509924


--------------------------------------------------------------------------------------------------------




--------------------------------------- Iteration      1(  10)  ---------------------------------------


    EDDIAG:  cpu time    4.3580: real time    4.7755
  RMM-DIIS:  cpu time   17.7314: real time   17.8494
    ORTHCH:  cpu time    1.1521: real time    1.2326
       DOS:  cpu time    0.0017: real time    0.0017
    --------------------------------------------
      LOOP:  cpu time   23.2432: real time   23.8592

 eigenvalue-minimisations  : 19759
 total energy-change (2. order) :-0.1858235E+01  (-0.5212627E+00)
 number of electron     672.0000000 magnetization      48.0000000
 augmentation part      672.0000000 magnetization      48.0000000

 Free energy of the ion-electron system (eV)
  ---------------------------------------------------
  alpha Z        PSCENC =      2652.81237852
  Ewald energy   TEWEN  =    -41983.02042102
  -Hartree energ DENC   =    -25636.92469471
  -exchange      EXHF   =         0.00000000
  -V(xc)+E(xc)   XCENC  =      3605.32050028
  PAW double counting   =     55594.23204139   -59034.67079123
  entropy T*S    EENTRO =        -0.00000002
  eigenvalues    EBANDS =    -10275.38049528
  atomic energy  EATOM  =     73862.19814772
  Solvation  Ediel_sol  =         0.00000000
  ---------------------------------------------------
  free energy    TOTEN  =     -1215.43333434 eV

  energy without entropy =    -1215.43333433  energy(sigma->0) =    -1215.43333434


--------------------------------------------------------------------------------------------------------




--------------------------------------- Iteration      1(  11)  ---------------------------------------


    EDDIAG:  cpu time    4.4310: real time    4.8544
  RMM-DIIS:  cpu time   19.5295: real time   19.5787
    ORTHCH:  cpu time    1.1482: real time    1.2302
       DOS:  cpu time    0.0018: real time    0.0018
    --------------------------------------------
      LOOP:  cpu time   25.1105: real time   25.6651

 eigenvalue-minimisations  : 22644
 total energy-change (2. order) : 0.6790709E-01  (-0.4340624E-01)
 number of electron     672.0000000 magnetization      48.0000000
 augmentation part      672.0000000 magnetization      48.0000000

 Free energy of the ion-electron system (eV)
  ---------------------------------------------------
  alpha Z        PSCENC =      2652.81237852
  Ewald energy   TEWEN  =    -41983.02042102
  -Hartree energ DENC   =    -25636.92469471
  -exchange      EXHF   =         0.00000000
  -V(xc)+E(xc)   XCENC  =      3605.32050028
  PAW double counting   =     55594.23204139   -59034.67079123
  entropy T*S    EENTRO =        -0.00000001
  eigenvalues    EBANDS =    -10275.31258820
  atomic energy  EATOM  =     73862.19814772
  Solvation  Ediel_sol  =         0.00000000
  ---------------------------------------------------
  free energy    TOTEN  =     -1215.36542726 eV

  energy without entropy =    -1215.36542724  energy(sigma->0) =    -1215.36542725


--------------------------------------------------------------------------------------------------------




--------------------------------------- Iteration      1(  12)  ---------------------------------------


    EDDIAG:  cpu time    4.3544: real time    4.7778
  RMM-DIIS:  cpu time   21.7411: real time   21.7925
    ORTHCH:  cpu time    1.1459: real time    1.2290
       DOS:  cpu time    0.0014: real time    0.0014
    CHARGE:  cpu time    1.7714: real time    1.7728
    MIXING:  cpu time    0.0024: real time    0.0026
    --------------------------------------------
      LOOP:  cpu time   29.0167: real time   29.5762

 eigenvalue-minimisations  : 24388
 total energy-change (2. order) :-0.4921008E-03  (-0.4184781E-02)
 number of electron     672.0000481 magnetization      48.0000007
 augmentation part      238.9647293 magnetization      29.0079548

 Broyden mixing:
  rms(total) = 0.12390E+02    rms(broyden)= 0.12381E+02
  rms(prec ) = 0.14287E+02
  weight for this iteration     100.00

 Free energy of the ion-electron system (eV)
  ---------------------------------------------------
  alpha Z        PSCENC =      2652.81237852
  Ewald energy   TEWEN  =    -41983.02042102
  -Hartree energ DENC   =    -25636.92469471
  -exchange      EXHF   =         0.00000000
  -V(xc)+E(xc)   XCENC  =      3605.32050028
  PAW double counting   =     55594.23204139   -59034.67079123
  entropy T*S    EENTRO =        -0.00000001
  eigenvalues    EBANDS =    -10275.31308030
  atomic energy  EATOM  =     73862.19814772
  Solvation  Ediel_sol  =         0.00000000
  ---------------------------------------------------
  free energy    TOTEN  =     -1215.36591936 eV

  energy without entropy =    -1215.36591935  energy(sigma->0) =    -1215.36591935


--------------------------------------------------------------------------------------------------------




--------------------------------------- Iteration      1(  13)  ---------------------------------------


    POTLOK:  cpu time    0.1736: real time    0.1738
    SETDIJ:  cpu time    5.0010: real time    5.0020
    EDDIAG:  cpu time    4.3863: real time    4.8039
  RMM-DIIS:  cpu time   17.3366: real time   17.3596
    ORTHCH:  cpu time    1.1468: real time    1.2297
       DOS:  cpu time    0.0015: real time    0.0015
    CHARGE:  cpu time    1.7729: real time    1.7735
    MIXING:  cpu time    0.0008: real time    0.0009
    --------------------------------------------
      LOOP:  cpu time   29.8195: real time   30.3449

 eigenvalue-minimisations  : 18784
 total energy-change (2. order) : 0.2258335E+03  (-0.1238008E+03)
 number of electron     672.0000318 magnetization      48.0000015
 augmentation part      269.8700968 magnetization      25.8701791

 Broyden mixing:
  rms(total) = 0.14249E+02    rms(broyden)= 0.14245E+02
  rms(prec ) = 0.16130E+02
  weight for this iteration     100.00

 eigenvalues of (default mixing * dielectric matrix)
  average eigenvalue GAMMA=   0.3126
  0.3126

 Free energy of the ion-electron system (eV)
  ---------------------------------------------------
  alpha Z        PSCENC =      2652.81237852
  Ewald energy   TEWEN  =    -41983.02042102
  -Hartree energ DENC   =    -24958.07582987
  -exchange      EXHF   =         0.00000000
  -V(xc)+E(xc)   XCENC  =      3695.17918701
  PAW double counting   =     59760.73859801   -63185.59013295
  entropy T*S    EENTRO =        -0.08723262
  eigenvalues    EBANDS =    -10833.68707239
  atomic energy  EATOM  =     73862.19814772
  Solvation  Ediel_sol  =         0.00000000
  ---------------------------------------------------
  free energy    TOTEN  =      -989.53237759 eV

  energy without entropy =     -989.44514497  energy(sigma->0) =     -989.48876128


--------------------------------------------------------------------------------------------------------




--------------------------------------- Iteration      1(  14)  ---------------------------------------


    POTLOK:  cpu time    0.1766: real time    0.1767
    SETDIJ:  cpu time    4.9901: real time    4.9906
    EDDIAG:  cpu time    4.3853: real time    4.8108
  RMM-DIIS:  cpu time   17.8040: real time   17.8557
    ORTHCH:  cpu time    1.1454: real time    1.2268
       DOS:  cpu time    0.0011: real time    0.0011
    CHARGE:  cpu time    1.7688: real time    1.7724
    MIXING:  cpu time    0.0010: real time    0.0010
    --------------------------------------------
      LOOP:  cpu time   30.2723: real time   30.8350

 eigenvalue-minimisations  : 19342
 total energy-change (2. order) : 0.7310277E+02  (-0.1874842E+02)
 number of electron     672.0000427 magnetization      48.0000023
 augmentation part      246.4050876 magnetization      32.1013868

 Broyden mixing:
  rms(total) = 0.52009E+01    rms(broyden)= 0.51961E+01
  rms(prec ) = 0.56721E+01
  weight for this iteration     100.00

 eigenvalues of (default mixing * dielectric matrix)
  average eigenvalue GAMMA=   0.7211
  1.0894  0.3528

 Free energy of the ion-electron system (eV)
  ---------------------------------------------------
  alpha Z        PSCENC =      2652.81237852
  Ewald energy   TEWEN  =    -41983.02042102
  -Hartree energ DENC   =    -25577.15805737
  -exchange      EXHF   =         0.00000000
  -V(xc)+E(xc)   XCENC  =      3671.65999091
  PAW double counting   =     63103.10187192   -66584.96423375
  entropy T*S    EENTRO =        -0.00000000
  eigenvalues    EBANDS =    -10061.05928761
  atomic energy  EATOM  =     73862.19814772
  Solvation  Ediel_sol  =         0.00000000
  ---------------------------------------------------
  free energy    TOTEN  =      -916.42961069 eV

  energy without entropy =     -916.42961069  energy(sigma->0) =     -916.42961069


--------------------------------------------------------------------------------------------------------




--------------------------------------- Iteration      1(  15)  ---------------------------------------


    POTLOK:  cpu time    0.1662: real time    0.1666
    SETDIJ:  cpu time    4.9966: real time    5.0001
    EDDIAG:  cpu time    4.4255: real time    4.8568
  RMM-DIIS:  cpu time   18.0336: real time   18.0686
    ORTHCH:  cpu time    1.1453: real time    1.2290
       DOS:  cpu time    0.0011: real time    0.0011
    CHARGE:  cpu time    1.7728: real time    1.7734
    MIXING:  cpu time    0.0010: real time    0.0010
    --------------------------------------------
      LOOP:  cpu time   30.5421: real time   31.0965

 eigenvalue-minimisations  : 20214
 total energy-change (2. order) : 0.1526739E+02  (-0.2330749E+01)
 number of electron     672.0000400 magnetization      48.0000025
 augmentation part      249.7409541 magnetization      33.8491256

 Broyden mixing:
  rms(total) = 0.21852E+01    rms(broyden)= 0.21848E+01
  rms(prec ) = 0.22671E+01
  weight for this iteration     100.00

 eigenvalues of (default mixing * dielectric matrix)
  average eigenvalue GAMMA=   0.9173
  1.6308  0.3744  0.7466

 Free energy of the ion-electron system (eV)
  ---------------------------------------------------
  alpha Z        PSCENC =      2652.81237852
  Ewald energy   TEWEN  =    -41983.02042102
  -Hartree energ DENC   =    -25489.79184384
  -exchange      EXHF   =         0.00000000
  -V(xc)+E(xc)   XCENC  =      3705.60884703
  PAW double counting   =     67094.16338170   -70615.92003929
  entropy T*S    EENTRO =        -0.00000000
  eigenvalues    EBANDS =    -10127.21267433
  atomic energy  EATOM  =     73862.19814772
  Solvation  Ediel_sol  =         0.00000000
  ---------------------------------------------------
  free energy    TOTEN  =      -901.16222352 eV

  energy without entropy =     -901.16222352  energy(sigma->0) =     -901.16222352


--------------------------------------------------------------------------------------------------------




--------------------------------------- Iteration      1(  16)  ---------------------------------------


    POTLOK:  cpu time    0.1704: real time    0.1706
    SETDIJ:  cpu time    5.5704: real time    5.5711
    EDDIAG:  cpu time    4.3546: real time    4.7712
  RMM-DIIS:  cpu time   17.4907: real time   17.5684
    ORTHCH:  cpu time    1.1483: real time    1.2323
       DOS:  cpu time    0.0012: real time    0.0012
    CHARGE:  cpu time    1.7737: real time    1.7772
    MIXING:  cpu time    0.0010: real time    0.0010
    --------------------------------------------
      LOOP:  cpu time   30.5102: real time   31.0930

 eigenvalue-minimisations  : 19179
 total energy-change (2. order) :-0.1564574E+01  (-0.6515648E+00)
 number of electron     672.0000400 magnetization      48.0000025
 augmentation part      251.1323355 magnetization      33.9647878

 Broyden mixing:
  rms(total) = 0.15332E+01    rms(broyden)= 0.15327E+01
  rms(prec ) = 0.16247E+01
  weight for this iteration     100.00

 eigenvalues of (default mixing * dielectric matrix)
  average eigenvalue GAMMA=   0.9585
  2.0448  0.8999  0.3800  0.5091

 Free energy of the ion-electron system (eV)
  ---------------------------------------------------
  alpha Z        PSCENC =      2652.81237852
  Ewald energy   TEWEN  =    -41983.02042102
  -Hartree energ DENC   =    -25442.35876241
  -exchange      EXHF   =         0.00000000
  -V(xc)+E(xc)   XCENC  =      3706.27379246
  PAW double counting   =     69832.61597699   -73382.73603990
  entropy T*S    EENTRO =        -0.00000000
  eigenvalues    EBANDS =    -10148.51186962
  atomic energy  EATOM  =     73862.19814772
  Solvation  Ediel_sol  =         0.00000000
  ---------------------------------------------------
  free energy    TOTEN  =      -902.72679724 eV

  energy without entropy =     -902.72679724  energy(sigma->0) =     -902.72679724


--------------------------------------------------------------------------------------------------------




--------------------------------------- Iteration      1(  17)  ---------------------------------------


    POTLOK:  cpu time    0.1683: real time    0.1690
    SETDIJ:  cpu time    5.0505: real time    5.0575
    EDDIAG:  cpu time    4.3317: real time    4.7661
  RMM-DIIS:  cpu time   18.4237: real time   18.4925
    ORTHCH:  cpu time    1.1450: real time    1.2266
       DOS:  cpu time    0.0016: real time    0.0016
    CHARGE:  cpu time    1.7791: real time    1.7797
    MIXING:  cpu time    0.0019: real time    0.0019
    --------------------------------------------
      LOOP:  cpu time   30.9018: real time   31.4948

 eigenvalue-minimisations  : 20560
 total energy-change (2. order) : 0.1159934E+00  (-0.8789013E-01)
 number of electron     672.0000395 magnetization      48.0000023
 augmentation part      251.1526393 magnetization      33.9807258

 Broyden mixing:
  rms(total) = 0.82409E+00    rms(broyden)= 0.82387E+00
  rms(prec ) = 0.93576E+00
  weight for this iteration     100.00

 eigenvalues of (default mixing * dielectric matrix)
  average eigenvalue GAMMA=   0.9750
  2.1943  1.0982  0.3704  0.6716  0.5406

 Free energy of the ion-electron system (eV)
  ---------------------------------------------------
  alpha Z        PSCENC =      2652.81237852
  Ewald energy   TEWEN  =    -41983.02042102
  -Hartree energ DENC   =    -25432.35630682
  -exchange      EXHF   =         0.00000000
  -V(xc)+E(xc)   XCENC  =      3704.01745568
  PAW double counting   =     70790.57639785   -74350.15705513
  entropy T*S    EENTRO =        -0.00000000
  eigenvalues    EBANDS =    -10146.68140060
  atomic energy  EATOM  =     73862.19814772
  Solvation  Ediel_sol  =         0.00000000
  ---------------------------------------------------
  free energy    TOTEN  =      -902.61080379 eV

  energy without entropy =     -902.61080379  energy(sigma->0) =     -902.61080379


--------------------------------------------------------------------------------------------------------




--------------------------------------- Iteration      1(  18)  ---------------------------------------


    POTLOK:  cpu time    0.1704: real time    0.1705
    SETDIJ:  cpu time    5.0133: real time    5.0165
    EDDIAG:  cpu time    4.3601: real time    4.7799
  RMM-DIIS:  cpu time   17.5579: real time   17.6610
    ORTHCH:  cpu time    1.1458: real time    1.2293
       DOS:  cpu time    0.0016: real time    0.0016
    CHARGE:  cpu time    1.7787: real time    1.7797
    MIXING:  cpu time    0.0011: real time    0.0011
    --------------------------------------------
      LOOP:  cpu time   30.0288: real time   30.6395

 eigenvalue-minimisations  : 19114
 total energy-change (2. order) : 0.4465192E+00  (-0.7127966E-01)
 number of electron     672.0000400 magnetization      48.0000022
 augmentation part      250.6498453 magnetization      33.9521852

 Broyden mixing:
  rms(total) = 0.33500E+00    rms(broyden)= 0.33475E+00
  rms(prec ) = 0.35772E+00
  weight for this iteration     100.00

 eigenvalues of (default mixing * dielectric matrix)
  average eigenvalue GAMMA=   1.0089
  2.4368  1.3593  0.8509  0.5874  0.3722  0.4468

 Free energy of the ion-electron system (eV)
[...]
   4      -0.563    -0.832     1.395     0.124    -0.048     0.045
   5      -0.540    -0.850     1.390    -0.092    -0.003    -0.059
   6      -0.535    -0.736     1.271     0.139     0.110     0.029
   7      -0.969    -0.819     1.789    -0.003     0.038    -0.095
   8      -0.651    -0.746     1.397    -0.156    -0.088    -0.010
   9      -0.498    -0.749     1.247    -0.143     0.098    -0.082
  10      -1.053    -0.739     1.792     0.121     0.081     0.084
  11      -0.544    -0.791     1.335     0.135     0.023    -0.032
  12      -1.062    -0.697     1.759    -0.173     0.011     0.051
  13      -1.137    -0.571     1.709     0.042     0.058     0.051
  14      -1.112    -0.749     1.862     0.101    -0.064    -0.001
  15      -1.144    -0.536     1.680     0.026    -0.123     0.038
  16      -1.171    -0.682     1.853    -0.099    -0.043    -0.017
  17       1.600     1.403    -3.003    -0.197    -0.169     0.116
  18       1.439     1.449    -2.888     0.010    -0.080    -0.401
  19       1.654     1.241    -2.896     0.005    -0.055     0.104
  20       1.632     1.369    -3.001    -0.282     0.143    -0.194
  21       1.396     1.538    -2.933     0.034    -0.040    -0.127
  22       1.478     1.482    -2.960    -0.014     0.013     0.364
  23       1.475     1.471    -2.946    -0.007     0.025    -0.164
  24       1.435     1.514    -2.949     0.248    -0.020     0.137
  25      -0.394     1.349    -0.956     1.580    -0.980    -1.040
  26      -0.502    -0.616     1.118     0.111     0.164     0.019
  27      -0.460    -0.517     0.977    -2.050     0.646    -0.133
  28      -1.003     0.757     0.247     0.960     0.811    -0.812
  29      -0.168    -0.478     0.646    -0.137    -0.187    -1.303
  30      -0.662     0.691    -0.029     0.413    -1.076    -0.858
  31       0.065    -0.721     0.656     0.513     0.453    -0.734
  32       0.506    -0.616     0.111     0.508    -0.368     0.363
  33      -1.814     0.527     1.287     1.244     0.256    -0.182
  34       1.200    -1.110    -0.091     0.146     0.043    -0.020
  35      -1.511     1.661    -0.150     0.343     2.268    -0.774
  36      -0.349     0.818    -0.469    -1.079     0.663     0.107
  37      -1.158     0.577     0.581     1.114    -2.269     0.130
  38       0.045     0.173    -0.218     0.102     0.347     0.128
  39      -0.716    -1.746     2.462    -0.741    -1.271     0.784
  40      -1.102    -0.405     1.507    -0.278    -0.053    -0.233
  41      -2.964     3.686    -0.721    -4.895     1.950    -3.860
  42      -3.749     2.801     0.949     4.617     3.408     3.667
  43       2.934    -5.771     2.836     0.835    -4.219     0.094
  44      -2.574     0.660     1.913    -5.051    -2.562     4.405
  45       3.925    -4.687     0.762     2.190     3.495    -1.762
  46      -2.051    -0.327     2.378     4.763    -2.102    -4.904
  47      -1.906     0.700     1.206    -5.422     1.265    -4.135
  48       2.791    -5.548     2.757     0.282    -4.951     0.168
  49      -2.916     2.187     0.728     3.979     2.431     3.193
  50      -3.101     3.965    -0.864    -5.235    -3.491     3.795
  51      -3.379     3.266     0.112     5.553    -2.987    -4.777
  52       5.138    -5.823     0.685    -0.033     4.376     0.986
  53      -3.523     4.073    -0.550    -6.793     2.619    -4.880
  54      -2.898     4.345    -1.448     6.445     2.568     2.990
  55       4.158    -4.989     0.831    -1.124    -4.925    -0.090
  56      -2.573     1.718     0.856    -3.455    -2.151     3.662
  57       2.864    -4.392     1.527     1.831     5.440     1.177
  58      -0.932     0.275     0.657     6.582    -1.516    -3.332
  59      -1.968     0.032     1.936    -4.688     2.795    -4.844
  60       4.853    -6.492     1.640    -0.336    -5.029     1.074
  61      -2.789     3.481    -0.692     5.563     1.302     3.855
  62      -3.283     4.487    -1.204    -4.654    -0.657     1.254
  63      -3.248     2.880     0.368     3.921    -5.005    -3.674
  64       3.804    -6.529     2.725     0.713     4.909     1.364
  65      -3.408     2.439     0.969    -4.837     2.585    -4.678
  66      -1.609     0.694     0.915     6.255     2.468     5.433
  67       5.221    -6.817     1.596    -1.596    -4.769    -0.126
  68      -4.135     4.630    -0.494    -3.485    -1.391     4.510
  69       3.928    -6.160     2.232    -2.028     4.666     0.487
  70      -2.769     5.848    -3.079     3.626    -1.878    -3.430
  71      -3.711     2.750     0.960    -2.922     1.873    -3.075
  72       5.397    -4.899    -0.498    -0.734    -4.014     0.464
  73      -2.350     2.359    -0.009     6.324     1.067     4.210
  74      -4.125     2.141     1.984    -5.404     0.547     6.335
  75      -3.841     0.770     3.071     4.077    -0.679    -4.893
  76       5.157    -5.353     0.196    -0.645     4.406    -1.425
  77      -2.546     1.990     0.556    -4.558     0.064    -4.697
  78      -3.197     2.851     0.346     4.836     2.674     3.462
  79       5.812    -6.490     0.678    -0.498    -6.163     0.414
  80      -3.197     3.987    -0.790    -4.859    -3.657     4.128
  81       5.474    -6.252     0.778    -0.894     4.131    -1.029
  82      -4.188     3.634     0.553     4.517    -1.092    -5.046
  83      -5.432     4.211     1.222    -3.632     3.088    -4.501
  84       5.936    -6.413     0.477    -0.460    -3.990     1.251
  85      -2.823     4.409    -1.586     5.867     3.237     4.027
  86      -2.930    -0.885     3.815    -5.064    -3.881     5.490
  87      -3.882     2.644     1.238     4.928    -1.891    -5.469
  88       4.538    -6.051     1.513    -1.524     5.474     0.274
 ---------------------------------------------------------------------


 Total hyperfine coupling parameters after diagonalization (MHz)
 (convention: |A_zz| > |A_xx| > |A_yy|)
 ----------------------------------------------------------------------
  ion      A_xx      A_yy      A_zz     asymmetry (A_yy - A_xx)/ A_zz 
 ----------------------------------------------------------------------
   1       0.775     0.343     3.157      -0.137
   2       1.977     1.663     3.817      -0.082
   3       2.221     1.642     4.573      -0.127
   4       2.229     1.861     4.140      -0.089
   5       2.087     1.727     3.995      -0.090
   6       2.132     1.796     3.881      -0.086
   7       0.652     0.505     3.268      -0.045
   8       1.884     1.559     3.822      -0.085
   9       1.914     1.542     3.613      -0.103
  10       0.219    -0.173     2.719      -0.144
  11       1.297     0.931     3.117      -0.118
  12       0.871     0.368     3.260      -0.154
  13       1.575     1.003     3.856      -0.148
  14       0.747     0.330     3.333      -0.125
  15       1.501     0.885     3.722      -0.165
  16       0.452    -0.076     2.968      -0.178
  17      14.063     9.770    14.513      -0.296
  18      13.712     9.351    13.769      -0.317
  19      13.390     9.247    13.801      -0.300
  20      14.543    10.338    15.174      -0.277
  21      15.319    10.994    15.481      -0.279
  22      13.199     8.736    13.242      -0.337
  23      13.748     9.328    13.764      -0.321
  24      14.111     9.931    14.612      -0.286
  25      94.484    93.876    98.384      -0.006
  26      94.375    94.136    95.959      -0.002
  27     102.067    98.819   103.298      -0.031
  28      96.774    94.267    97.633      -0.026
  29      98.636    97.394   100.276      -0.012
  30      95.612    94.314    97.474      -0.013
  31      92.507    90.853    93.229      -0.018
  32      92.793    91.552    93.352      -0.013
  33      98.214    94.788    98.494      -0.035
  34      94.943    93.915    96.245      -0.011
  35      97.454    92.919    98.310      -0.046
  36      94.800    93.468    96.377      -0.014
  37      97.864    94.187    99.504      -0.037
  38      99.436    98.908    99.765      -0.005
  39     104.124   102.960   108.206      -0.011
  40     101.909   101.035   103.775      -0.008
  41       3.249     0.473    14.373      -0.193
  42       5.274     0.709    15.549      -0.294
  43       6.107     1.461    14.474      -0.321
  44       6.091     1.824    16.483      -0.259
  45       9.102     2.865    15.370      -0.406
  46       6.109     1.531    16.178      -0.283
  47       6.369     0.830    14.986      -0.370
  48       3.800     0.369    13.672      -0.251
  49       3.620     0.187    12.282      -0.280
  50       4.430     0.959    16.553      -0.210
  51       3.184    -0.184    16.073      -0.210
  52       4.782     0.574    14.436      -0.291
  53       5.951     1.683    19.965      -0.214
  54       4.023    -0.050    16.228      -0.251
  55       5.896     3.139    16.145      -0.171
  56       2.314     0.034    11.248      -0.203
  57       3.152     1.535    14.416      -0.112
  58       6.714     0.431    15.514      -0.405
  59       6.167     2.827    17.258      -0.194
  60       6.549     1.842    17.066      -0.276
  61       4.597     0.676    15.345      -0.255
  62       3.814    -0.198    12.175      -0.329
  63       2.609    -2.547    13.081      -0.394
  64       5.991     0.882    15.951      -0.320
  65       5.476     2.012    16.959      -0.204
  66       4.121    -0.671    16.315      -0.294
  67       5.426    -0.170    15.544      -0.360
  68       1.941    -0.425    13.298      -0.178
  69       5.714     0.030    14.773      -0.385
  70       3.626     2.475    15.753      -0.073
  71       6.046     2.449    13.638      -0.264
  72       4.874     2.439    14.892      -0.164
  73       6.228     0.643    16.467      -0.339
  74       7.180    -0.930    17.193      -0.472
  75       8.814     3.255    17.742      -0.313
  76       4.507     0.925    14.501      -0.247
  77       6.283     0.799    14.591      -0.376
  78       6.346     2.394    16.351      -0.242
  79       1.824    -1.263    15.200      -0.203
  80       7.720     4.494    20.049      -0.161
  81       4.355    -0.468    13.936      -0.346
  82       7.335     3.151    18.457      -0.227
  83       4.412    -0.606    15.438      -0.325
  84       6.777     1.609    16.356      -0.316
  85       4.876     2.113    18.412      -0.150
  86       8.052     4.093    21.457      -0.184
  87       5.412     1.370    17.407      -0.232
  88       3.249    -0.902    14.342      -0.289
 ---------------------------------------------------------------------



--------------------------------------------------------------------------------------------------------


 stress matrix after NEB project (eV)
    -47.14031     -0.35120      0.86373
     -0.36050    -49.17516     -1.85901
      0.87872     -1.83887    -64.47280
  FORCES: max atom, RMS     2.404612    1.191748
  FORCE total and by dimension   11.179588    2.203415
  Stress total and by dimension   93.838993   64.472803
     LOOP+:  cpu time  810.8134: real time  827.5715
    4ORBIT:  cpu time    0.0000: real time    0.0000
 


 total charge     
 
# of ion       s       p       d       tot
------------------------------------------
    1        0.049   5.993   0.000   6.042
    2        0.050   5.992   0.000   6.042
    3        0.056   6.000   0.000   6.056
    4        0.053   5.996   0.000   6.049
    5        0.050   5.994   0.000   6.044
    6        0.054   5.998   0.000   6.052
    7        0.049   5.992   0.000   6.041
    8        0.053   5.996   0.000   6.049
    9        0.052   5.996   0.000   6.047
   10        0.051   5.995   0.000   6.045
   11        0.049   5.992   0.000   6.041
   12        0.049   5.994   0.000   6.043
   13        0.049   5.991   0.000   6.041
   14        0.048   5.991   0.000   6.040
   15        0.054   5.998   0.000   6.052
   16        0.054   5.999   0.000   6.052
   17        0.159   6.144   0.098   6.401
   18        0.149   6.128   0.084   6.361
   19        0.151   6.131   0.085   6.367
   20        0.151   6.133   0.087   6.371
   21        0.142   6.116   0.074   6.332
   22        0.149   6.129   0.085   6.362
   23        0.147   6.125   0.082   6.354
   24        0.152   6.134   0.089   6.374
   25        0.379   6.464   4.840  11.684
   26        0.380   6.466   4.833  11.679
   27        0.350   6.399   4.781  11.530
   28        0.368   6.439   4.814  11.621
   29        0.367   6.440   4.817  11.624
   30        0.375   6.456   4.827  11.658
   31        0.379   6.461   4.833  11.673
   32        0.382   6.467   4.840  11.689
   33        0.374   6.455   4.826  11.655
   34        0.373   6.449   4.827  11.650
   35        0.380   6.460   4.851  11.691
   36        0.377   6.460   4.833  11.670
   37        0.367   6.434   4.814  11.615
   38        0.370   6.443   4.817  11.630
   39        0.362   6.426   4.815  11.603
   40        0.368   6.439   4.817  11.624
   41        1.599   3.487   0.000   5.086
   42        1.602   3.503   0.000   5.105
   43        1.601   3.541   0.000   5.142
   44        1.598   3.490   0.000   5.088
   45        1.597   3.533   0.000   5.130
   46        1.597   3.518   0.000   5.115
   47        1.599   3.501   0.000   5.100
   48        1.598   3.511   0.000   5.109
   49        1.595   3.499   0.000   5.094
   50        1.602   3.489   0.000   5.090
   51        1.602   3.493   0.000   5.095
   52        1.597   3.489   0.000   5.086
   53        1.602   3.472   0.000   5.074
   54        1.601   3.506   0.000   5.107
   55        1.598   3.531   0.000   5.130
   56        1.595   3.489   0.000   5.085
   57        1.600   3.518   0.000   5.118
   58        1.598   3.495   0.000   5.093
   59        1.598   3.509   0.000   5.108
   60        1.597   3.501   0.000   5.098
   61        1.599   3.513   0.000   5.113
   62        1.599   3.490   0.000   5.089
   63        1.601   3.460   0.000   5.060
   64        1.599   3.512   0.000   5.111
   65        1.602   3.488   0.000   5.090
   66        1.601   3.467   0.000   5.068
   67        1.599   3.524   0.000   5.123
   68        1.599   3.510   0.000   5.109
   69        1.599   3.519   0.000   5.118
   70        1.602   3.464   0.000   5.066
   71        1.599   3.545   0.000   5.144
   72        1.597   3.521   0.000   5.118
   73        1.600   3.486   0.000   5.086
   74        1.602   3.502   0.000   5.104
   75        1.598   3.502   0.000   5.101
   76        1.598   3.501   0.000   5.099
   77        1.597   3.503   0.000   5.100
   78        1.596   3.499   0.000   5.096
   79        1.600   3.471   0.000   5.071
   80        1.603   3.519   0.000   5.122
   81        1.596   3.483   0.000   5.079
   82        1.603   3.540   0.000   5.143
   83        1.600   3.481   0.000   5.081
   84        1.599   3.518   0.000   5.117
   85        1.604   3.502   0.000   5.106
   86        1.601   3.507   0.000   5.109
   87        1.598   3.491   0.000   5.090
   88        1.598   3.489   0.000   5.087
--------------------------------------------------
tot         84.739 416.195  77.870 578.804
 


 magnetization (x)
 
# of ion       s       p       d       tot
------------------------------------------
    1        0.001   0.000   0.000   0.002
    2        0.002   0.000   0.000   0.002
    3        0.002   0.000   0.000   0.002
    4        0.002   0.000   0.000   0.002
    5        0.002   0.000   0.000   0.002
    6        0.002   0.000   0.000   0.002
    7        0.001   0.001   0.000   0.002
    8        0.002   0.000   0.000   0.002
    9        0.002   0.000   0.000   0.002
   10        0.001   0.000   0.000   0.001
   11        0.001  -0.000   0.000   0.001
   12        0.001   0.001   0.000   0.002
   13        0.001   0.000   0.000   0.002
   14        0.001   0.001   0.000   0.002
   15        0.001   0.000   0.000   0.002
   16        0.001   0.000   0.000   0.001
   17        0.007   0.003   0.001   0.011
   18        0.007   0.002   0.001   0.010
   19        0.007   0.002   0.001   0.010
   20        0.007   0.002   0.001   0.011
   21        0.008   0.002   0.001   0.012
   22        0.007   0.002   0.001   0.010
   23        0.007   0.002   0.001   0.010
   24        0.007   0.003   0.001   0.011
   25        0.015   0.031   2.732   2.777
   26        0.015   0.030   2.753   2.798
   27        0.016   0.029   2.828   2.872
   28        0.015   0.029   2.777   2.821
   29        0.016   0.030   2.770   2.816
   30        0.015   0.030   2.757   2.802
   31        0.014   0.030   2.743   2.786
   32        0.014   0.030   2.737   2.781
   33        0.016   0.030   2.760   2.805
   34        0.015   0.029   2.754   2.799
   35        0.015   0.028   2.738   2.781
   36        0.015   0.030   2.744   2.789
   37        0.015   0.028   2.779   2.822
   38        0.016   0.031   2.770   2.816
   39        0.018   0.031   2.790   2.838
   40        0.017   0.031   2.779   2.827
   41        0.002   0.020   0.000   0.022
   42        0.002   0.031   0.000   0.033
   43        0.002   0.033   0.000   0.035
   44        0.002   0.027   0.000   0.029
   45        0.002   0.042   0.000   0.044
   46        0.002   0.045   0.000   0.047
   47        0.002   0.036   0.000   0.038
   48        0.002   0.022   0.000   0.023
   49        0.002   0.015   0.000   0.017
   50        0.002   0.021   0.000   0.023
   51        0.002   0.028   0.000   0.029
   52        0.002   0.025   0.000   0.027
   53        0.002   0.045   0.000   0.048
   54        0.002   0.035   0.000   0.037
   55        0.002   0.042   0.000   0.044
   56        0.001   0.010   0.000   0.011
   57        0.002   0.025   0.000   0.026
   58        0.002   0.028   0.000   0.030
   59        0.002   0.040   0.000   0.042
   60        0.002   0.043   0.000   0.045
   61        0.002   0.026   0.000   0.028
   62        0.002   0.015   0.000   0.016
   63        0.002  -0.007   0.000  -0.005
   64        0.002   0.030   0.000   0.032
   65        0.002   0.030   0.000   0.032
   66        0.002   0.020   0.000   0.022
   67        0.002   0.041   0.000   0.043
   68        0.001   0.020   0.000   0.022
   69        0.002   0.031   0.000   0.033
   70        0.002   0.013   0.000   0.015
   71        0.002   0.038   0.000   0.040
   72        0.002   0.030   0.000   0.032
   73        0.002   0.037   0.000   0.039
   74        0.002   0.039   0.000   0.041
   75        0.003   0.049   0.000   0.052
   76        0.002   0.020   0.000   0.022
   77        0.002   0.025   0.000   0.027
   78        0.002   0.045   0.000   0.047
   79        0.002   0.007   0.000   0.009
   80        0.003   0.053   0.000   0.056
   81        0.002   0.019   0.000   0.021
   82        0.002   0.051   0.000   0.054
   83        0.002   0.017   0.000   0.019
   84        0.002   0.042   0.000   0.045
   85        0.002   0.036   0.000   0.039
   86        0.003   0.062   0.000   0.065
   87        0.002   0.040   0.000   0.042
   88        0.002   0.016   0.000   0.018
--------------------------------------------------
tot          0.422   1.959  44.218  46.598
 

 total amount of memory used by VASP MPI-rank0    94420. kBytes
=======================================================================

   base      :      30000. kBytes
   nonlr-proj:      13661. kBytes
   fftplans  :       1275. kBytes
   grid      :      22786. kBytes
   one-center:       2737. kBytes
   wavefun   :      23961. kBytes
 
  
  
 General timing and accounting informations for this job:
 ========================================================
  
                  Total CPU time used (sec):      831.959
                            User time (sec):      823.274
                          System time (sec):        8.685
                         Elapsed time (sec):      851.176
  
                   Maximum memory used (kb):      194180.
                   Average memory used (kb):           0.
  
                          Minor page faults:       318924
                          Major page faults:            0
                 Voluntary context switches:       281133
