 vasp.5.4.4.18Apr17-6-g9f103f2a35 (build Dec 02 2020 12:53:39) complex          
  
 executed on             LinuxIFC date 2021.08.04  05:47:13
 running on   96 total cores
 distrk:  each k-point on   96 cores,    1 groups
 distr:  one band on NCORES_PER_BAND=   1 cores,   96 groups


--------------------------------------------------------------------------------------------------------


 INCAR:
 POTCAR:    PAW_PBE Na_pv 19Sep2006               
 POTCAR:    PAW_PBE Mg_pv 13Apr2007               
 POTCAR:    PAW_PBE Mn_pv 02Aug2007               
 POTCAR:    PAW_PBE O 08Apr2002                   

 ----------------------------------------------------------------------------- 
|                                                                             |
|           W    W    AA    RRRRR   N    N  II  N    N   GGGG   !!!           |
|           W    W   A  A   R    R  NN   N  II  NN   N  G    G  !!!           |
|           W    W  A    A  R    R  N N  N  II  N N  N  G       !!!           |
|           W WW W  AAAAAA  RRRRR   N  N N  II  N  N N  G  GGG   !            |
|           WW  WW  A    A  R   R   N   NN  II  N   NN  G    G                |
|           W    W  A    A  R    R  N    N  II  N    N   GGGG   !!!           |
|                                                                             |
|      For optimal performance we recommend to set                            |
|        NCORE= 4 - approx SQRT( number of cores)                             |
|      NCORE specifies how many cores store one orbital (NPAR=cpu/NCORE).     |
|      This setting can  greatly improve the performance of VASP for DFT.     |
|      The default,   NCORE=1            might be grossly inefficient         |
|      on modern multi-core architectures or massively parallel machines.     |
|      Do your own testing !!!!                                               |
|      Unfortunately you need to use the default for GW and RPA calculations. |
|      (for HF NCORE is supported but not extensively tested yet)             |
|                                                                             |
 ----------------------------------------------------------------------------- 

 POTCAR:    PAW_PBE Na_pv 19Sep2006               
   VRHFIN =Na: p6s1                                                             
   LEXCH  = PE                                                                  
   EATOM  =   766.0439 eV,   56.3026 Ry                                         
                                                                                
   TITEL  = PAW_PBE Na_pv 19Sep2006                                             
   LULTRA =        F    use ultrasoft PP ?                                      
   IUNSCR =        1    unscreen: 0-lin 1-nonlin 2-no                           
   RPACOR =    1.800    partial core radius                                     
   POMASS =   22.990; ZVAL   =    7.000    mass and valenz                      
   RCORE  =    2.200    outmost cutoff radius                                   
   RWIGS  =    2.200; RWIGS  =    1.164    wigner-seitz radius (au A)           
   ENMAX  =  259.561; ENMIN  =  194.671 eV                                      
   ICORE  =        2    local potential                                         
   LCOR   =        T    correct aug charges                                     
   LPAW   =        T    paw PP                                                  
   EAUG   =  368.056                                                            
   DEXC   =    0.000                                                            
   RMAX   =    2.245    core radius for proj-oper                               
   RAUG   =    1.300    factor for augmentation sphere                          
   RDEP   =    2.259    radius for radial grids                                 
   RDEPT  =    1.738    core radius for aug-charge                              
                                                                                
   Atomic configuration                                                         
    5 entries                                                                   
     n  l   j            E        occ.                                          
     1  0  0.50     -1033.6933   2.0000                                         
     2  0  0.50       -56.7526   2.0000                                         
     2  1  1.50       -28.6721   6.0000                                         
     3  0  0.50        -2.7440   1.0000                                         
     3  2  1.50        -1.3606   0.0000                                         
   Description                                                                  
     l       E           TYP  RCUT    TYP  RCUT                                 
     1    -28.6720912     23  2.000                                             
     1      6.8029130     23  2.000                                             
     0     -2.7439560     23  2.200                                             
     0     34.0145650     23  2.200                                             
     2     -1.3605826     23  2.200                                             
  local pseudopotential read in
  partial core-charges read in
  partial kinetic energy density read in
  atomic valenz-charges read in
  non local Contribution for L=           1  read in
    real space projection operators read in
  non local Contribution for L=           1  read in
    real space projection operators read in
  non local Contribution for L=           0  read in
    real space projection operators read in
  non local Contribution for L=           0  read in
    real space projection operators read in
    PAW grid and wavefunctions read in
 
   number of l-projection  operators is LMAX  =           4
   number of lm-projection operators is LMMAX =           8
 
 POTCAR:    PAW_PBE Mg_pv 13Apr2007               
   VRHFIN =Mg: p6s2                                                             
   LEXCH  = PE                                                                  
   EATOM  =  1056.7344 eV,   77.6678 Ry                                         
                                                                                
   TITEL  = PAW_PBE Mg_pv 13Apr2007                                             
   LULTRA =        F    use ultrasoft PP ?                                      
   IUNSCR =        1    unscreen: 0-lin 1-nonlin 2-no                           
   RPACOR =    1.500    partial core radius                                     
   POMASS =   24.305; ZVAL   =    8.000    mass and valenz                      
   RCORE  =    2.000    outmost cutoff radius                                   
   RWIGS  =    2.000; RWIGS  =    1.058    wigner-seitz radius (au A)           
   ENMAX  =  403.929; ENMIN  =  302.947 eV                                      
   RCLOC  =    1.506    cutoff for local pot                                    
   LCOR   =        T    correct aug charges                                     
   LPAW   =        T    paw PP                                                  
   EAUG   =  758.780                                                            
   DEXC   =    0.000                                                            
   RMAX   =    2.045    core radius for proj-oper                               
   RAUG   =    1.300    factor for augmentation sphere                          
   RDEP   =    2.025    radius for radial grids                                 
   RDEPT  =    1.557    core radius for aug-charge                              
                                                                                
   Atomic configuration                                                         
    5 entries                                                                   
     n  l   j            E        occ.                                          
     1  0  0.50     -1259.6230   2.0000                                         
     2  0  0.50       -79.8442   2.0000                                         
     2  1  1.50       -46.6121   6.0000                                         
     3  0  0.50        -4.7055   2.0000                                         
     3  2  1.50        -1.3606   0.0000                                         
   Description                                                                  
     l       E           TYP  RCUT    TYP  RCUT                                 
     1    -46.6121073     23  1.600                                             
     1      2.7211652     23  1.600                                             
     0     -4.7054661     23  2.000                                             
     0     61.2262170     23  2.000                                             
     2     -1.3605826     23  2.000                                             
  local pseudopotential read in
  partial core-charges read in
  partial kinetic energy density read in
  atomic valenz-charges read in
  non local Contribution for L=           1  read in
    real space projection operators read in
  non local Contribution for L=           1  read in
    real space projection operators read in
  non local Contribution for L=           0  read in
    real space projection operators read in
  non local Contribution for L=           0  read in
    real space projection operators read in
  non local Contribution for L=           2  read in
    real space projection operators read in
    PAW grid and wavefunctions read in
 
   number of l-projection  operators is LMAX  =           5
   number of lm-projection operators is LMMAX =          13
 
 POTCAR:    PAW_PBE Mn_pv 02Aug2007               
   VRHFIN =Mn: 3p4s3d                                                           
   LEXCH  = PE                                                                  
   EATOM  =  2025.2664 eV,  148.8529 Ry                                         
                                                                                
   TITEL  = PAW_PBE Mn_pv 02Aug2007                                             
   LULTRA =        F    use ultrasoft PP ?                                      
   IUNSCR =        1    unscreen: 0-lin 1-nonlin 2-no                           
   RPACOR =    2.080    partial core radius                                     
   POMASS =   54.938; ZVAL   =   13.000    mass and valenz                      
   RCORE  =    2.300    outmost cutoff radius                                   
   RWIGS  =    2.500; RWIGS  =    1.323    wigner-seitz radius (au A)           
   ENMAX  =  269.864; ENMIN  =  202.398 eV                                      
   ICORE  =        3    local potential                                         
   LCOR   =        T    correct aug charges                                     
   LPAW   =        T    paw PP                                                  
   EAUG   =  569.085                                                            
   DEXC   =    0.000                                                            
   RMAX   =    2.343    core radius for proj-oper                               
   RAUG   =    1.300    factor for augmentation sphere                          
   RDEP   =    2.338    radius for radial grids                                 
   RDEPT  =    1.798    core radius for aug-charge                              
                                                                                
   Atomic configuration                                                         
    8 entries                                                                   
     n  l   j            E        occ.                                          
     1  0  0.50     -6424.8287   2.0000                                         
     2  0  0.50      -739.1154   2.0000                                         
     2  1  1.50      -625.3949   6.0000                                         
     3  0  0.50       -81.6100   2.0000                                         
     3  1  1.50       -50.4667   6.0000                                         
     3  2  2.50        -3.3745   6.0000                                         
     4  0  0.50        -4.1331   1.0000                                         
     4  3  2.50        -1.3606   0.0000                                         
   Description                                                                  
     l       E           TYP  RCUT    TYP  RCUT                                 
     1    -50.4666628     23  2.000                                             
     1     -1.3605826     23  2.000                                             
     2     -3.3744729     23  2.300                                             
     2     -4.7350555     23  2.300                                             
     0     -4.1331431     23  2.300                                             
     0      7.6656591     23  2.300                                             
     3      9.5240782     23  2.300                                             
  local pseudopotential read in
  partial core-charges read in
  partial kinetic energy density read in
  atomic valenz-charges read in
  non local Contribution for L=           1  read in
    real space projection operators read in
  non local Contribution for L=           1  read in
    real space projection operators read in
  non local Contribution for L=           2  read in
    real space projection operators read in
  non local Contribution for L=           2  read in
    real space projection operators read in
  non local Contribution for L=           0  read in
    real space projection operators read in
  non local Contribution for L=           0  read in
    real space projection operators read in
    PAW grid and wavefunctions read in
 
   number of l-projection  operators is LMAX  =           6
   number of lm-projection operators is LMMAX =          18
 
 POTCAR:    PAW_PBE O 08Apr2002                   
   VRHFIN =O: s2p4                                                              
   LEXCH  = PE                                                                  
   EATOM  =   432.3788 eV,   31.7789 Ry                                         
                                                                                
   TITEL  = PAW_PBE O 08Apr2002                                                 
   LULTRA =        F    use ultrasoft PP ?                                      
   IUNSCR =        1    unscreen: 0-lin 1-nonlin 2-no                           
   RPACOR =    1.200    partial core radius                                     
   POMASS =   16.000; ZVAL   =    6.000    mass and valenz                      
   RCORE  =    1.520    outmost cutoff radius                                   
   RWIGS  =    1.550; RWIGS  =    0.820    wigner-seitz radius (au A)           
   ENMAX  =  400.000; ENMIN  =  300.000 eV                                      
   ICORE  =        2    local potential                                         
   LCOR   =        T    correct aug charges                                     
   LPAW   =        T    paw PP                                                  
   EAUG   =  605.392                                                            
   DEXC   =    0.000                                                            
   RMAX   =    1.553    core radius for proj-oper                               
   RAUG   =    1.300    factor for augmentation sphere                          
   RDEP   =    1.550    radius for radial grids                                 
   RDEPT  =    1.329    core radius for aug-charge                              
                                                                                
   Atomic configuration                                                         
    4 entries                                                                   
     n  l   j            E        occ.                                          
     1  0  0.50      -514.6923   2.0000                                         
     2  0  0.50       -23.9615   2.0000                                         
     2  1  0.50        -9.0305   4.0000                                         
     3  2  1.50        -9.5241   0.0000                                         
   Description                                                                  
     l       E           TYP  RCUT    TYP  RCUT                                 
     0    -23.9615318     23  1.200                                             
     0     -9.5240782     23  1.200                                             
     1     -9.0304911     23  1.520                                             
     1      8.1634956     23  1.520                                             
     2     -9.5240782      7  1.500                                             
  local pseudopotential read in
  partial core-charges read in
  partial kinetic energy density read in
  kinetic energy density of atom read in
  atomic valenz-charges read in
  non local Contribution for L=           0  read in
    real space projection operators read in
  non local Contribution for L=           0  read in
    real space projection operators read in
  non local Contribution for L=           1  read in
    real space projection operators read in
  non local Contribution for L=           1  read in
    real space projection operators read in
    PAW grid and wavefunctions read in
 
   number of l-projection  operators is LMAX  =           4
   number of lm-projection operators is LMMAX =           8
 
 Optimization of the real space projectors (new method)

 maximal supplied QI-value         = 17.01
 optimisation between [QCUT,QGAM] = [ 10.20, 20.41] = [ 29.16,116.64] Ry 
 Optimized for a Real-space Cutoff    1.30 Angstroem

   l    n(q)    QCUT    max X(q) W(low)/X(q) W(high)/X(q)  e(spline) 
   1      7    10.205     4.940    0.23E-03    0.84E-03    0.11E-06
   1      7    10.205     6.253    0.40E-03    0.13E-02    0.18E-06
   0      8    10.205    37.438    0.23E-03    0.37E-03    0.42E-07
   0      8    10.205     9.606    0.16E-03    0.26E-03    0.31E-07
 Optimization of the real space projectors (new method)

 maximal supplied QI-value         = 18.90
 optimisation between [QCUT,QGAM] = [ 10.20, 20.41] = [ 29.16,116.64] Ry 
 Optimized for a Real-space Cutoff    1.26 Angstroem

   l    n(q)    QCUT    max X(q) W(low)/X(q) W(high)/X(q)  e(spline) 
   1      7    10.205     2.974    0.63E-04    0.14E-03    0.13E-06
   1      7    10.205     4.279    0.11E-03    0.45E-03    0.24E-06
   0      8    10.205    16.381    0.44E-03    0.15E-03    0.55E-07
   0      8    10.205     5.611    0.31E-03    0.11E-03    0.40E-07
   2      7    10.205     4.652    0.50E-03    0.47E-03    0.57E-07
 Optimization of the real space projectors (new method)

 maximal supplied QI-value         = 16.25
 optimisation between [QCUT,QGAM] = [ 10.24, 20.48] = [ 29.35,117.42] Ry 
 Optimized for a Real-space Cutoff    1.34 Angstroem

   l    n(q)    QCUT    max X(q) W(low)/X(q) W(high)/X(q)  e(spline) 
   1      8    10.239     3.658    0.23E-03    0.30E-03    0.98E-07
   1      8    10.239     5.612    0.32E-03    0.65E-03    0.21E-06
   2      7    10.239    55.373    0.42E-03    0.45E-03    0.65E-07
   2      7    10.239    50.863    0.43E-03    0.48E-03    0.67E-07
   0      8    10.239    79.536    0.11E-03    0.21E-03    0.56E-07
   0      8    10.239    38.668    0.96E-04    0.19E-03    0.52E-07
 Optimization of the real space projectors (new method)

 maximal supplied QI-value         = 24.76
 optimisation between [QCUT,QGAM] = [ 10.15, 20.30] = [ 28.85,115.39] Ry 
 Optimized for a Real-space Cutoff    1.38 Angstroem

   l    n(q)    QCUT    max X(q) W(low)/X(q) W(high)/X(q)  e(spline) 
   0      8    10.150    20.381    0.22E-03    0.32E-03    0.29E-06
   0      8    10.150    15.268    0.23E-03    0.35E-03    0.30E-06
   1      8    10.150     5.964    0.46E-03    0.53E-03    0.21E-06
   1      8    10.150     5.382    0.38E-03    0.45E-03    0.19E-06
  PAW_PBE Na_pv 19Sep2006               :
 energy of atom  1       EATOM= -766.0439
 kinetic energy error for atom=    0.0103 (will be added to EATOM!!)
  PAW_PBE Mg_pv 13Apr2007               :
 energy of atom  2       EATOM=-1056.7344
 kinetic energy error for atom=    0.0820 (will be added to EATOM!!)
  PAW_PBE Mn_pv 02Aug2007               :
 energy of atom  3       EATOM=-2025.2664
 kinetic energy error for atom=    0.0284 (will be added to EATOM!!)
  PAW_PBE O 08Apr2002                   :
 energy of atom  4       EATOM= -432.3788
 kinetic energy error for atom=    0.1156 (will be added to EATOM!!)
 
 
 POSCAR: Na Mg Mn  O                             
  positions in cartesian coordinates
  No initial velocities read in

 METAGGA = SCAN     LMAXTAU =  6    LMIXTAU =  F

 exchange correlation table for  LEXCH =        8
   RHO(1)=    0.500       N(1)  =     2000
   RHO(2)=  100.500       N(2)  =     4000

 VTST: version 3.2, (02/03/18)

 CHAIN: initializing optimizer
 
 OPT: Using VASP Dynamics algorithm
 CHAIN: Read ICHAIN            0
 
 POSCAR: Na Mg Mn  O                             
  positions in cartesian coordinates
  No initial velocities read in
 


--------------------------------------------------------------------------------------------------------


 ion  position               nearest neighbor table
   1  0.538  0.968  0.257-  88 2.36  51 2.36  31 2.82  29 2.93
   2  0.840  0.936  0.763-  59 2.31  72 2.34
   3  0.364  0.956  0.746-  46 2.35  44 2.37
   4  0.713  0.138  0.748-  59 2.30  49 2.34  56 2.36  46 2.38
   5  0.233  0.464  0.248-  78 2.19  87 2.32  15 2.74
   6  0.358  0.122  0.247-  41 2.31  42 2.32  50 2.32  26 2.79  28 2.90
   7  0.882  0.646  0.749-  69 2.27  36 2.93  34 2.98
   8  0.069  0.438  0.739-  80 2.18  83 2.22  57 2.27  13 2.78  39 2.90
   9  0.870  0.282  0.237-  53 2.25  55 2.30
  10  0.689  0.451  0.262-  52 2.29  75 2.35  74 2.36
  11  0.019  0.985  0.247-  63 2.26  54 2.29  25 2.84  27 2.90
  12  0.207  0.148  0.741-  58 2.30  61 2.35  45 2.36  44 2.37
  13  0.384  0.639  0.760-  85 2.21  84 2.30  83 2.36  82 2.37  38 2.73   8 2.78  40 2.94
  14  0.549  0.369  0.756-  45 2.16  71 2.21  48 2.23  33 2.98
  15  0.545  0.663  0.252-  87 2.31  88 2.31  79 2.37   5 2.74
  16  0.075  0.679  0.246-  77 2.21  67 2.33  86 2.36  76 2.38
  17  0.704  0.309  0.998-  71 1.99  43 2.02  53 2.05  49 2.06  60 2.08  66 2.08  33 2.84  34 2.85

  18  0.706  0.308  0.505-  52 1.98  62 2.03  68 2.06  46 2.06  57 2.08  28 2.82
  19  0.210  0.309  0.993-  55 2.01  61 2.04  48 2.04  83 2.06  78 2.14  41 2.15
  20  0.228  0.318  0.503-  58 2.05  50 2.08  87 2.08  80 2.09  45 2.09  64 2.18  35 2.79  40 2.84
                            28 2.84
  21  0.213  0.810  0.005-  47 2.04  42 2.05  84 2.05  67 2.07  77 2.07  73 2.19  26 2.83  38 2.85
                            29 2.86
  22  0.218  0.820  0.494-  51 1.93  70 1.96  44 1.99  76 2.00  81 2.14  86 2.17  28 2.82
  23  0.707  0.810  0.001-  54 1.99  72 2.03  79 2.07  59 2.08  85 2.13  65 2.14
  24  0.719  0.809  0.509-  56 1.99  74 2.07  82 2.09  63 2.10  88 2.10  69 2.11  35 2.80
  25  0.040  0.977  0.995-  54 1.81  72 1.91  41 1.91  61 1.93  67 1.97  47 2.00  11 2.84  30 2.86
                            26 2.90  34 2.96
  26  0.374  0.137  0.999-  47 1.84  48 1.88  41 1.92  42 1.94  43 1.96  49 2.10   6 2.79  29 2.82
                            21 2.83  25 2.90  33 2.92
  27  0.051  0.986  0.504-  63 1.81  50 1.93  44 1.94  69 1.95  76 1.99  58 1.99  32 2.83  28 2.87
                            11 2.90  36 3.01
  28  0.381  0.144  0.504-  52 1.86  51 1.91  45 1.91  50 1.93  44 1.95  46 1.96  22 2.82  18 2.82
                            20 2.84  27 2.87   6 2.90  35 2.97  31 2.97
  29  0.542  0.979  0.996-  49 1.81  42 1.89  59 1.89  79 1.97  53 1.97  84 2.02  26 2.82  21 2.86
                            30 2.91  38 2.92   1 2.93
  30  0.877  0.144  0.993-  53 1.90  54 1.90  60 1.92  55 1.92  59 1.96  61 2.03  25 2.86  37 2.90
                            29 2.91
  31  0.550  0.971  0.508-  81 1.84  56 1.90  88 1.92  51 1.93  62 2.01  46 2.05   1 2.82  40 2.83
                            32 2.95  28 2.97
  32  0.890  0.151  0.505-  58 1.87  64 1.92  62 1.93  57 1.93  63 1.93  56 1.94  39 2.77  27 2.83
                            31 2.95
  33  0.541  0.473  0.003-  71 1.86  65 1.86  43 1.94  85 1.95  78 1.99  48 2.04  17 2.84  34 2.86
                            26 2.92  38 2.93  14 2.98
  34  0.870  0.636  0.014-  73 1.88  66 1.89  67 1.90  65 1.90  72 1.95  71 2.00  17 2.85  33 2.86
                            37 2.87  25 2.96   7 2.98
  35  0.549  0.487  0.501-  87 1.88  82 1.88  68 1.88  74 1.96  52 1.99  45 2.02  20 2.79  24 2.80
                            40 2.84  36 2.95  28 2.97
  36  0.888  0.640  0.487-  70 1.85  76 1.92  75 1.93  74 1.96  68 1.98  69 2.05  39 2.82   7 2.93
                            35 2.95  27 3.01
  37  0.043  0.478  0.007-  73 1.86  55 1.92  83 1.93  77 1.94  66 1.97  60 2.04  34 2.87  38 2.87
                            30 2.90
  38  0.374  0.643  0.003-  79 1.88  78 1.88  85 1.91  84 1.94  83 1.97  77 2.03  13 2.73  21 2.85
                            37 2.87  29 2.92  33 2.93
  39  0.042  0.469  0.485-  57 1.86  75 1.94  64 1.94  70 1.94  80 1.95  86 2.01  32 2.77  36 2.82
                             8 2.90  40 2.94
  40  0.380  0.645  0.498-  80 1.82  81 1.89  88 1.91  82 1.94  86 1.97  87 1.98  31 2.83  20 2.84
                            35 2.84  13 2.94  39 2.94
  41  0.207  0.123  0.091-  25 1.91  26 1.92  19 2.15   6 2.31
  42  0.394  0.986  0.095-  29 1.89  26 1.94  21 2.05   6 2.32
  43  0.532  0.304  0.095-  33 1.94  26 1.96  17 2.02
  44  0.213  0.981  0.594-  27 1.94  28 1.95  22 1.99   3 2.37  12 2.37
  45  0.399  0.309  0.603-  28 1.91  35 2.02  20 2.09  14 2.16  12 2.36
  46  0.535  0.135  0.606-  28 1.96  31 2.05  18 2.06   3 2.35   4 2.38
  47  0.219  0.986  0.908-  26 1.84  25 2.00  21 2.04
  48  0.379  0.294  0.904-  26 1.88  19 2.04  33 2.04  14 2.23
  49  0.545  0.125  0.899-  29 1.81  17 2.06  26 2.10   4 2.34
  50  0.218  0.136  0.407-  28 1.93  27 1.93  20 2.08   6 2.32
  51  0.395  0.988  0.418-  28 1.91  31 1.93  22 1.93   1 2.36
  52  0.534  0.305  0.416-  28 1.86  18 1.98  35 1.99  10 2.29
  53  0.717  0.137  0.088-  30 1.90  29 1.97  17 2.05   9 2.25
  54  0.890  0.986  0.078-  25 1.81  30 1.90  23 1.99  11 2.29
  55  0.037  0.305  0.087-  30 1.92  37 1.92  19 2.01   9 2.30
  56  0.721  0.985  0.592-  31 1.90  32 1.94  24 1.99   4 2.36
  57  0.898  0.323  0.589-  39 1.86  32 1.93  18 2.08   8 2.27
  58  0.045  0.152  0.597-  32 1.87  27 1.99  20 2.05  12 2.30
  59  0.702  0.984  0.904-  29 1.89  30 1.96  23 2.08   4 2.30   2 2.31
  60  0.881  0.308  0.902-  30 1.92  37 2.04  17 2.08
  61  0.042  0.134  0.895-  25 1.93  30 2.03  19 2.04  12 2.35
  62  0.721  0.140  0.414-  32 1.93  31 2.01  18 2.03
  63  0.901  0.991  0.417-  27 1.81  32 1.93  24 2.10  11 2.26
  64  0.037  0.300  0.396-  32 1.92  39 1.94  20 2.18
  65  0.698  0.621  0.098-  33 1.86  34 1.90  23 2.14
  66  0.878  0.479  0.102-  34 1.89  37 1.97  17 2.08
  67  0.031  0.809  0.094-  34 1.90  25 1.97  21 2.07  16 2.33
  68  0.713  0.494  0.588-  35 1.88  36 1.98  18 2.06
  69  0.905  0.810  0.599-  27 1.95  36 2.05  24 2.11   7 2.27
  70  0.047  0.640  0.572-  36 1.85  39 1.94  22 1.96
  71  0.700  0.480  0.912-  33 1.86  17 1.99  34 2.00  14 2.21
  72  0.881  0.801  0.915-  25 1.91  34 1.95  23 2.03   2 2.34
  73  0.014  0.618  0.918-  37 1.86  34 1.88  21 2.19
  74  0.717  0.640  0.402-  35 1.96  36 1.96  24 2.07  10 2.36
  75  0.893  0.486  0.386-  36 1.93  39 1.94  10 2.35
  76  0.044  0.818  0.405-  36 1.92  27 1.99  22 2.00  16 2.38
  77  0.204  0.634  0.107-  37 1.94  38 2.03  21 2.07  16 2.21
  78  0.383  0.492  0.097-  38 1.88  33 1.99  19 2.14   5 2.19
  79  0.526  0.808  0.092-  38 1.88  29 1.97  23 2.07  15 2.37
  80  0.217  0.501  0.583-  40 1.82  39 1.95  20 2.09   8 2.18
  81  0.396  0.809  0.592-  31 1.84  40 1.89  22 2.14
  82  0.530  0.630  0.597-  35 1.88  40 1.94  24 2.09  13 2.37
  83  0.203  0.487  0.907-  37 1.93  38 1.97  19 2.06   8 2.22  13 2.36
  84  0.377  0.801  0.902-  38 1.94  29 2.02  21 2.05  13 2.30
  85  0.522  0.625  0.908-  38 1.91  33 1.95  23 2.13  13 2.21
  86  0.219  0.636  0.392-  40 1.97  39 2.01  22 2.17  16 2.36
  87  0.401  0.491  0.401-  35 1.88  40 1.98  20 2.08  15 2.31   5 2.32
  88  0.542  0.809  0.410-  40 1.91  31 1.92  24 2.10  15 2.31   1 2.36
 
  LATTYP: Found a hexagonal cell.
 ALAT       =    10.0190000534
 C/A-ratio  =     1.1196726572
  
  Lattice vectors:
  
 A1 = (  10.0190000534,   0.0000000000,   0.0000000000)
 A2 = (  -5.0095000267,   8.6767085668,   0.0000000000)
 A3 = (   0.0000000000,   0.0000000000,  11.2180004120)


Analysis of symmetry for initial positions (statically):
=====================================================================
 Subroutine PRICEL returns:
 Original cell was already a primitive cell.
 

 Routine SETGRP: Setting up the symmetry group for a 
 hexagonal supercell.


 Subroutine GETGRP returns: Found  1 space group operations
 (whereof  1 operations were pure point group operations)
 out of a pool of 24 trial point group operations.


The static configuration has the point symmetry C_1 .


Analysis of symmetry for dynamics (positions and initial velocities):
=====================================================================
 Subroutine PRICEL returns:
 Original cell was already a primitive cell.
 

 Routine SETGRP: Setting up the symmetry group for a 
 hexagonal supercell.


 Subroutine GETGRP returns: Found  1 space group operations
 (whereof  1 operations were pure point group operations)
 out of a pool of 24 trial point group operations.


The dynamic configuration has the point symmetry C_1 .


Analysis of structural, dynamic, and magnetic symmetry:
=====================================================================
 Subroutine PRICEL returns:
 Original cell was already a primitive cell.
 

 Routine SETGRP: Setting up the symmetry group for a 
 hexagonal supercell.


 Subroutine GETGRP returns: Found  1 space group operations
 (whereof  1 operations were pure point group operations)
 out of a pool of 24 trial point group operations.


The magnetic configuration has the point symmetry C_1 .


 Subroutine INISYM returns: Found  1 space group operations
 (whereof  1 operations are pure point group operations),
 and found     1 'primitive' translations

 
 

Automatic generation of k-mesh.
 generate k-points for:    2    2    2
Space group operators:
 irot       det(A)        alpha          n_x          n_y          n_z        tau_x        tau_y        tau_z
    1     1.000000     0.000000     1.000000     0.000000     0.000000     0.000000     0.000000     0.000000
 
 Subroutine IBZKPT returns following result:
 ===========================================
 
 Found      8 irreducible k-points:
 
 Following reciprocal coordinates:
            Coordinates               Weight
  0.000000  0.000000  0.000000      1.000000
  0.500000 -0.000000 -0.000000      1.000000
  0.000000  0.500000  0.000000      1.000000
  0.500000  0.500000 -0.000000      1.000000
  0.000000  0.000000  0.500000      1.000000
  0.500000 -0.000000  0.500000      1.000000
  0.000000  0.500000  0.500000      1.000000
  0.500000  0.500000  0.500000      1.000000
 
 Following cartesian coordinates:
            Coordinates               Weight
  0.000000  0.000000  0.000000      1.000000
  0.049905  0.028813 -0.000000      1.000000
  0.000000  0.057626  0.000000      1.000000
  0.049905  0.086438 -0.000000      1.000000
  0.000000  0.000000  0.044571      1.000000
  0.049905  0.028813  0.044571      1.000000
  0.000000  0.057626  0.044571      1.000000
  0.049905  0.086438  0.044571      1.000000
 


--------------------------------------------------------------------------------------------------------




 Dimension of arrays:
   k-points           NKPTS =      8   k-points in BZ     NKDIM =      8   number of bands    NBANDS=    480
   number of dos      NEDOS =    301   number of ions     NIONS =     88
   non local maximal  LDIM  =      6   non local SUM 2l+1 LMDIM =     18
   total plane-waves  NPLWV = 140000
   max r-space proj   IRMAX =   1632   max aug-charges    IRDMAX=   4555
   dimension x,y,z NGX =    50 NGY =   50 NGZ =   56
   dimension x,y,z NGXF=   100 NGYF=  100 NGZF=  112
   support grid    NGXF=   100 NGYF=  100 NGZF=  112
   ions per type =              16   8  16  48
   NGX,Y,Z   is equivalent  to a cutoff of   8.30,  8.30,  8.30 a.u.
   NGXF,Y,Z  is equivalent  to a cutoff of  16.59, 16.59, 16.60 a.u.

 SYSTEM =  unknown system                          
 POSCAR =  Na Mg Mn  O                             

 Startparameter for this run:
   NWRITE =      2    write-flag & timer
   PREC   = normal    normal or accurate (medium, high low for compatibility)
   ISTART =      0    job   : 0-new  1-cont  2-samecut
   ICHARG =      1    charge: 1-file 2-atom 10-const
   ISPIN  =      2    spin polarized calculation?
   LNONCOLLINEAR =      F non collinear calculations
   LSORBIT =      F    spin-orbit coupling
   INIWAV =      1    electr: 0-lowe 1-rand  2-diag
   LASPH  =      T    aspherical Exc in radial PAW
   METAGGA=      F    non-selfconsistent MetaGGA calc.

 Electronic Relaxation 1
   ENCUT  =  400.0 eV  29.40 Ry    5.42 a.u.  16.34 16.34 18.29*2*pi/ulx,y,z
   ENINI  =  400.0     initial cutoff
   ENAUG  =  758.8 eV  augmentation charge cutoff
   NELM   =    200;   NELMIN=  6; NELMDL=-12     # of ELM steps 
   EDIFF  = 0.1E-04   stopping-criterion for ELM
   LREAL  =      T    real-space projection
   NLSPLINE    = F    spline interpolate recip. space projectors
   LCOMPAT=      F    compatible to vasp.4.4
   GGA_COMPAT  = T    GGA compatible to vasp.4.4-vasp.4.6
   LMAXPAW     = -100 max onsite density
   LMAXMIX     =    4 max onsite mixed and CHGCAR
   VOSKOWN=      0    Vosko Wilk Nusair interpolation
   ROPT   =   -0.00050  -0.00050  -0.00050  -0.00050
 Ionic relaxation
   EDIFFG = 0.1E-03   stopping-criterion for IOM
   NSW    =      1    number of steps for IOM
   NBLOCK =      1;   KBLOCK =      1    inner block; outer block 
   IBRION =     -1    ionic relax: 0-MD 1-quasi-New 2-CG
   NFREE  =      0    steps in history (QN), initial steepest desc. (CG)
   ISIF   =      2    stress and relaxation
   IWAVPR =     10    prediction:  0-non 1-charg 2-wave 3-comb
   ISYM   =      2    0-nonsym 1-usesym 2-fastsym
   LCORR  =      T    Harris-Foulkes like correction to forces

   POTIM  = 0.5000    time-step for ionic-motion
   TEIN   =    0.0    initial temperature
   TEBEG  =    0.0;   TEEND  =   0.0 temperature during run
   SMASS  =  -3.00    Nose mass-parameter (am)
   estimated Nose-frequenzy (Omega)   =  0.10E-29 period in steps =****** mass=  -0.229E-26a.u.
   SCALEE = 1.0000    scale energy and forces
   NPACO  =    256;   APACO  = 16.0  distance and # of slots for P.C.
   PSTRESS=    0.0 pullay stress

  Mass of Ions in am
   POMASS =  22.99 24.30 54.94 16.00
  Ionic Valenz
   ZVAL   =   7.00  8.00 13.00  6.00
  Atomic Wigner-Seitz radii
   RWIGS  =  -1.00 -1.00 -1.00 -1.00
  virtual crystal weights 
   VCA    =   1.00  1.00  1.00  1.00
   NELECT =     672.0000    total number of electrons
   NUPDOWN=      48.0000    fix difference up-down

 DOS related values:
   EMIN   =  10.00;   EMAX   =-10.00  energy-range for DOS
   EFERMI =   0.00
   ISMEAR =     0;   SIGMA  =   0.05  broadening in eV -4-tet -1-fermi 0-gaus

 Electronic relaxation 2 (details)
   IALGO  =     48    algorithm
   LDIAG  =      T    sub-space diagonalisation (order eigenvalues)
   LSUBROT=      F    optimize rotation matrix (better conditioning)
   TURBO    =      0    0=normal 1=particle mesh
   IRESTART =      0    0=no restart 2=restart with 2 vectors
   NREBOOT  =      0    no. of reboots
   NMIN     =      0    reboot dimension
   EREF     =   0.00    reference energy to select bands
   IMIX   =      4    mixing-type and parameters
     AMIX     =   0.40;   BMIX     =  1.00
     AMIX_MAG =   1.60;   BMIX_MAG =  1.00
     AMIN     =   0.10
     WC   =   100.;   INIMIX=   1;  MIXPRE=   1;  MAXMIX= -45

 Intra band minimization:
   WEIMIN = 0.0000     energy-eigenvalue tresh-hold
   EBREAK =  0.52E-08  absolut break condition
   DEPER  =   0.30     relativ break condition  

   TIME   =   0.40     timestep for ELM

  volume/ion in A,a.u.               =      11.08        74.78
  Fermi-wavevector in a.u.,A,eV,Ry     =   1.445993  2.732531 28.448379  2.090897
  Thomas-Fermi vector in A             =   2.564112
 
 Write flags
   LWAVE        =      F    write WAVECAR
   LDOWNSAMPLE  =      F    k-point downsampling of WAVECAR
   LCHARG       =      F    write CHGCAR
   LVTOT        =      F    write LOCPOT, total local potential
   LVHAR        =      F    write LOCPOT, Hartree potential only
   LELF         =      F    write electronic localiz. function (ELF)
   LORBIT       =     11    0 simple, 1 ext, 2 COOP (PROOUT), +10 PAW based schemes


 Dipole corrections
   LMONO  =      F    monopole corrections only (constant potential shift)
   LDIPOL =      F    correct potential (dipole corrections)
   IDIPOL =      0    1-x, 2-y, 3-z, 4-all directions 
   EPSILON=  1.0000000 bulk dielectric constant

 Exchange correlation treatment:
   GGA     =    --    GGA type
   LEXCH   =     8    internal setting for exchange type
   VOSKOWN=      0    Vosko Wilk Nusair interpolation
   LHFCALC =     F    Hartree Fock is set to
   LHFONE  =     F    Hartree Fock one center treatment
   AEXX    =    0.0000 exact exchange contribution

 Linear response parameters
   LEPSILON=     F    determine dielectric tensor
   LRPA    =     F    only Hartree local field effects (RPA)
   LNABLA  =     F    use nabla operator in PAW spheres
   LVEL    =     F    velocity operator in full k-point grid
   LINTERFAST=   F  fast interpolation
   KINTER  =     0    interpolate to denser k-point grid
   CSHIFT  =0.1000    complex shift for real part using Kramers Kronig
   OMEGAMAX=  -1.0    maximum frequency
   DEG_THRESHOLD= 0.2000000E-02 threshold for treating states as degnerate
   RTIME   =   -0.100 relaxation time in fs
  (WPLASMAI=    0.000 imaginary part of plasma frequency in eV, 0.658/RTIME)
   DFIELD  = 0.0000000 0.0000000 0.0000000 field for delta impulse in time
 
 Orbital magnetization related:
   ORBITALMAG=     F  switch on orbital magnetization
   LCHIMAG   =     F  perturbation theory with respect to B field
   DQ        =  0.001000  dq finite difference perturbation B field
   LLRAUG    =     F  two centre corrections for induced B field



--------------------------------------------------------------------------------------------------------


 Static calculation
 charge density and potential will be updated during run
 spin polarized calculation
 RMM-DIIS sequential band-by-band
 perform sub-space diagonalisation
    before iterative eigenvector-optimisation
 modified Broyden-mixing scheme, WC =      100.0
 initial mixing is a Kerker type mixing with AMIX =  0.4000 and BMIX =      1.0000
 Hartree-type preconditioning will be used
 using additional bands          144
 real space projection scheme for non local part
 use partial core corrections
 calculate Harris-corrections to forces 
   (improved forces if not selfconsistent)
 use gradient corrections 
 use of overlap-Matrix (Vanderbilt PP)
 Gauss-broadening in eV      SIGMA  =   0.05


--------------------------------------------------------------------------------------------------------


  energy-cutoff  :      400.00
  volume of cell :      975.20
      direct lattice vectors                 reciprocal lattice vectors
    10.019000053  0.000000000  0.000000000     0.099810360  0.057625538 -0.000000000
    -5.009500027  8.676708567  0.000000000     0.000000000  0.115251076  0.000000000
     0.000000000  0.000000000 11.218000412     0.000000000  0.000000000  0.089142446

  length of vectors
    10.019000053 10.019000053 11.218000412     0.115251076  0.115251076  0.089142446


 
 k-points in units of 2pi/SCALE and weight: read from INCAR                         
   0.00000000  0.00000000  0.00000000       0.125
   0.04990518  0.02881277 -0.00000000       0.125
   0.00000000  0.05762554  0.00000000       0.125
   0.04990518  0.08643831 -0.00000000       0.125
   0.00000000  0.00000000  0.04457122       0.125
   0.04990518  0.02881277  0.04457122       0.125
   0.00000000  0.05762554  0.04457122       0.125
   0.04990518  0.08643831  0.04457122       0.125
 
 k-points in reciprocal lattice and weights: read from INCAR                         
   0.00000000  0.00000000  0.00000000       0.125
   0.50000000 -0.00000000 -0.00000000       0.125
   0.00000000  0.50000000  0.00000000       0.125
   0.50000000  0.50000000 -0.00000000       0.125
   0.00000000  0.00000000  0.50000000       0.125
   0.50000000 -0.00000000  0.50000000       0.125
   0.00000000  0.50000000  0.50000000       0.125
   0.50000000  0.50000000  0.50000000       0.125
 
 position of ions in fractional coordinates (direct lattice) 
   0.53796828  0.96837891  0.25713317
   0.84018534  0.93633234  0.76261185
   0.36378474  0.95601541  0.74556246
   0.71269460  0.13789544  0.74845157
   0.23281463  0.46419198  0.24831966
   0.35787738  0.12236223  0.24693438
   0.88156627  0.64647424  0.74853447
   0.06866691  0.43754939  0.73944996
   0.87038731  0.28222585  0.23717863
   0.68888339  0.45114738  0.26204938
   0.01901833  0.98549648  0.24650382
   0.20718315  0.14839366  0.74115169
   0.38359434  0.63893237  0.76007307
   0.54942714  0.36904086  0.75565249
   0.54520730  0.66266932  0.25202798
   0.07540671  0.67881023  0.24613923
   0.70439722  0.30881641  0.99836350
   0.70628563  0.30756478  0.50467996
   0.20978669  0.30901464  0.99315403
   0.22785752  0.31840991  0.50300052
   0.21257611  0.81042021  0.00521480
   0.21788860  0.81976362  0.49377962
   0.70719280  0.80989813  0.00119715
   0.71949472  0.80850935  0.50940897
   0.04025116  0.97680934  0.99480348
   0.37431097  0.13657483  0.99890467
   0.05097505  0.98592455  0.50381706
   0.38123689  0.14445800  0.50422355
   0.54153416  0.97898528  0.99586375
   0.87737041  0.14410303  0.99333211
   0.54987720  0.97055928  0.50812086
   0.88961601  0.15080603  0.50487607
   0.54119561  0.47274954  0.00331155
   0.87040124  0.63639685  0.01416108
   0.54916704  0.48665228  0.50117399
   0.88835009  0.64033728  0.48746745
   0.04275342  0.47815482  0.00746794
   0.37382626  0.64304107  0.00303110
   0.04202284  0.46931967  0.48533159
   0.38019654  0.64515363  0.49831697
   0.20683315  0.12300056  0.09113121
   0.39350219  0.98587852  0.09545373
   0.53240131  0.30442535  0.09515243
   0.21278725  0.98070974  0.59440005
   0.39878758  0.30850639  0.60280173
   0.53527423  0.13536930  0.60639417
   0.21905701  0.98554590  0.90797822
   0.37930139  0.29361825  0.90402029
   0.54533355  0.12491603  0.89888569
   0.21848005  0.13638121  0.40714208
   0.39540842  0.98760694  0.41757174
   0.53449245  0.30525400  0.41555980
   0.71701037  0.13729054  0.08760955
   0.89028117  0.98617967  0.07763380
   0.03709228  0.30545915  0.08664066
   0.72131202  0.98500353  0.59245140
   0.89791720  0.32276525  0.58882954
   0.04544755  0.15195509  0.59716257
   0.70204523  0.98429209  0.90436795
   0.88101237  0.30795549  0.90226419
   0.04212168  0.13443001  0.89525759
   0.72138535  0.14015568  0.41376358
   0.90124671  0.99077170  0.41716882
   0.03703616  0.30049413  0.39643429
   0.69817949  0.62091633  0.09795239
   0.87763800  0.47932231  0.10233375
   0.03094371  0.80937719  0.09364236
   0.71331735  0.49361344  0.58814492
   0.90498844  0.80956966  0.59900604
   0.04672222  0.64000997  0.57160098
   0.69976634  0.47973030  0.91193614
   0.88080588  0.80146405  0.91507395
   0.01419419  0.61774462  0.91794434
   0.71711060  0.63950517  0.40249241
   0.89253544  0.48622470  0.38615349
   0.04438232  0.81849816  0.40478693
   0.20369655  0.63378296  0.10699411
   0.38348360  0.49222121  0.09710019
   0.52647722  0.80757466  0.09198431
   0.21694962  0.50063684  0.58296753
   0.39622337  0.80948553  0.59181848
   0.53018868  0.62975954  0.59731590
   0.20277388  0.48650015  0.90676588
   0.37666242  0.80095695  0.90158670
   0.52228338  0.62494205  0.90818324
   0.21880731  0.63629312  0.39242823
   0.40135162  0.49132686  0.40102512
   0.54209526  0.80941061  0.41009091
 
 position of ions in cartesian coordinates  (Angst):
   0.53881003  8.40234157  2.88452000
   3.72726005  8.12428287  8.55498000
  -1.14439995  8.29506713  8.36372000
   6.44969997  1.19647857  8.39613000
   0.00720003  4.02765857  2.78565000
   2.97259992  1.06170143  2.77011000
   5.59389976  5.60926857  8.39706000
  -1.50392997  3.79648857  8.29515000
   7.30660013  2.44879143  2.66067000
   4.64189992  3.91447430  2.93967000
  -4.74629995  8.55086573  2.76528000
   1.33238997  1.28756857  8.31424000
   0.64249995  5.54383000  8.52650000
   3.65600037  3.20206000  8.47691000
   2.14279003  5.74978857  2.82725000
  -2.64500008  5.88983857  2.76119000
   5.51034000  2.67951000 11.19964211
   5.53553000  2.66865000  5.66150000
   0.55384400  2.68123000 11.14120231
   0.68783000  2.76275000  5.64266000
  -1.93000000  7.03178000  0.05849959
  -1.92358000  7.11285000  5.53922000
   3.02818000  7.02725000  0.01342960
   3.15839000  7.01520000  5.71455000
  -4.49005005  8.47549000 11.15970581
   3.06605000  1.18502000 11.20571301
  -4.42827005  8.55458000  5.65182000
   3.09595000  1.25342000  5.65638000
   0.52140400  8.49437000 11.17160000
   8.06849000  1.25034000 11.14320000
   0.64720300  8.42126000  5.70010000
   8.15760000  1.30850000  5.66370000
   3.05400000  4.10191000  0.03714900
   5.53252000  5.52183000  0.15885900
   3.06422000  4.22254000  5.62217000
   5.69261000  5.55602000  5.46841000
  -1.96697005  4.14881000  0.08377540
   0.52405100  5.57948000  0.03400290
  -1.93003005  4.07215000  5.44445000
   0.57729200  5.59781000  5.59012000
   1.45609000  1.06724000  1.02231000
  -0.99626003  8.55418057  1.07080000
   3.80911000  2.64141000  1.06742000
  -2.78095003  8.50933257  6.66798000
   2.44999000  2.67682000  6.76223000
   4.68478000  1.17456000  6.80253000
  -2.74236003  8.55129457 10.18570000
   2.32934000  2.54764000 10.14130000
   4.83793000  1.08386000 10.08370000
   1.50575000  1.18334000  4.56732000
  -0.98582003  8.56917757  4.68432000
   3.82591000  2.64860000  4.66175000
   6.49597000  1.19123000  0.98280400
   3.97945997  8.55679357  0.87089600
  -1.15857005  2.65038000  0.97193500
   2.29244997  8.54658857  6.64612000
   7.37934000  2.80054000  6.60549000
  -0.30588005  1.31847000  6.69897000
   2.10297997  8.54041557 10.14520000
   7.28416000  2.67204000 10.12160000
  -0.25141005  1.16641000 10.04300000
   6.52545000  1.21609000  4.64160000
   4.06631997  8.59663727  4.67980000
  -1.13426005  2.60730000  4.44720000
   3.88458000  5.38751000  1.09883000
   6.39189000  4.15894000  1.14798000
  -3.74455005  7.02273000  1.05048000
   4.67397000  4.28294000  6.59781000
   5.01154000  7.02440000  6.71965000
  -2.73802005  5.55318000  6.41222000
   4.60775000  4.16248000 10.23010000
   4.80986000  6.95407000 10.26530000
  -2.95238005  5.35999000 10.29750000
   3.98113000  5.54880000  4.51516000
   6.50657000  4.21883000  4.33187000
  -3.65560005  7.10187000  4.54090000
  -1.13410000  5.49915000  1.20026000
   1.37634000  4.27086000  1.08927000
   1.22923000  7.00709000  1.03188000
  -0.33432200  4.34388000  6.53973000
  -0.08535580  7.02367000  6.63902000
   2.15718000  5.46424000  6.70069000
  -0.40553100  4.22122000 10.17210000
  -0.23861300  6.94967000 10.11400000
   2.10211000  5.42244000 10.18800000
  -0.99528000  5.52093000  4.40226000
   1.55984000  4.26310000  4.49870000
   1.37651000  7.02302000  4.60040000
 


--------------------------------------------------------------------------------------------------------


 k-point  1 :   0.0000 0.0000 0.0000  plane waves:   17725
 k-point  2 :   0.5000-0.0000-0.0000  plane waves:   17736
 k-point  3 :   0.0000 0.5000 0.0000  plane waves:   17736
 k-point  4 :   0.5000 0.5000-0.0000  plane waves:   17736
 k-point  5 :   0.0000 0.0000 0.5000  plane waves:   17676
 k-point  6 :   0.5000-0.0000 0.5000  plane waves:   17700
 k-point  7 :   0.0000 0.5000 0.5000  plane waves:   17700
 k-point  8 :   0.5000 0.5000 0.5000  plane waves:   17700

 maximum and minimum number of plane-waves per node :     17736    17676

 maximum number of plane-waves:     17736
 maximum index in each direction: 
   IXMAX=   16   IYMAX=   16   IZMAX=   18
   IXMIN=  -16   IYMIN=  -16   IZMIN=  -18


 serial   3D FFT for wavefunctions
 parallel 3D FFT for charge:
    minimum data exchange during FFTs selected (reduces bandwidth)


 total amount of memory used by VASP MPI-rank0    94437. kBytes
=======================================================================

   base      :      30000. kBytes
   nonlr-proj:      13678. kBytes
   fftplans  :       1275. kBytes
   grid      :      22786. kBytes
   one-center:       2737. kBytes
   wavefun   :      23961. kBytes
 
     INWAV:  cpu time    0.0000: real time    0.0000
 Broyden mixing: mesh for mixing (old mesh)
   NGX = 33   NGY = 33   NGZ = 37
  (NGX  =100   NGY  =100   NGZ  =112)
  gives a total of  40293 points

 initial charge density was supplied:
 charge density of overlapping atoms calculated
 number of electron     672.0000000 magnetization      48.0000000
 keeping initial charge density in first step


--------------------------------------------------------------------------------------------------------


 Maximum index for non-local projection operator         1553
 Maximum index for augmentation-charges          444 (set IRDMAX)


--------------------------------------------------------------------------------------------------------


 First call to EWALD:  gamma=   0.179
 Maximum number of real-space cells 3x 3x 2
 Maximum number of reciprocal cells 3x 3x 3

    FEWALD:  cpu time    0.0031: real time    0.0032


--------------------------------------- Iteration      1(   1)  ---------------------------------------


    POTLOK:  cpu time    0.1971: real time    0.1984
    SETDIJ:  cpu time    4.6380: real time    4.6498
    EDDIAG:  cpu time    4.4655: real time    4.8654
  RMM-DIIS:  cpu time    9.1145: real time    9.1224
    ORTHCH:  cpu time    1.1692: real time    1.2496
       DOS:  cpu time    0.0038: real time    0.0039
    --------------------------------------------
      LOOP:  cpu time   19.5881: real time   20.0895

 eigenvalue-minimisations  :  7680
 total energy-change (2. order) : 0.1492613E+04  (-0.3497460E+05)
 number of electron     672.0000000 magnetization      48.0000000
 augmentation part      672.0000000 magnetization      48.0000000

 Free energy of the ion-electron system (eV)
  ---------------------------------------------------
  alpha Z        PSCENC =      2652.81237852
  Ewald energy   TEWEN  =    -41904.15437223
  -Hartree energ DENC   =    -25711.19018541
  -exchange      EXHF   =         0.00000000
  -V(xc)+E(xc)   XCENC  =      3605.53828902
  PAW double counting   =     55594.23204139   -59034.67079123
  entropy T*S    EENTRO =        -0.05814147
  eigenvalues    EBANDS =     -7572.09478024
  atomic energy  EATOM  =     73862.19814772
  Solvation  Ediel_sol  =         0.00000000
  ---------------------------------------------------
  free energy    TOTEN  =      1492.61258607 eV

  energy without entropy =     1492.67072753  energy(sigma->0) =     1492.64165680


--------------------------------------------------------------------------------------------------------




--------------------------------------- Iteration      1(   2)  ---------------------------------------


    EDDIAG:  cpu time    4.3948: real time    4.8035
  RMM-DIIS:  cpu time    9.1062: real time    9.1260
    ORTHCH:  cpu time    1.1670: real time    1.2517
       DOS:  cpu time    0.0020: real time    0.0020
    --------------------------------------------
      LOOP:  cpu time   14.6700: real time   15.1832

 eigenvalue-minimisations  :  7680
 total energy-change (2. order) :-0.2220513E+04  (-0.8009118E+04)
 number of electron     672.0000000 magnetization      48.0000000
 augmentation part      672.0000000 magnetization      48.0000000

 Free energy of the ion-electron system (eV)
  ---------------------------------------------------
  alpha Z        PSCENC =      2652.81237852
  Ewald energy   TEWEN  =    -41904.15437223
  -Hartree energ DENC   =    -25711.19018541
  -exchange      EXHF   =         0.00000000
  -V(xc)+E(xc)   XCENC  =      3605.53828902
  PAW double counting   =     55594.23204139   -59034.67079123
  entropy T*S    EENTRO =        -0.05860146
  eigenvalues    EBANDS =     -9792.60715572
  atomic energy  EATOM  =     73862.19814772
  Solvation  Ediel_sol  =         0.00000000
  ---------------------------------------------------
  free energy    TOTEN  =      -727.90024941 eV

  energy without entropy =     -727.84164795  energy(sigma->0) =     -727.87094868


--------------------------------------------------------------------------------------------------------




--------------------------------------- Iteration      1(   3)  ---------------------------------------


    EDDIAG:  cpu time    4.4422: real time    4.8606
  RMM-DIIS:  cpu time    9.1063: real time    9.1103
    ORTHCH:  cpu time    1.1724: real time    1.2550
       DOS:  cpu time    0.0024: real time    0.0024
    --------------------------------------------
      LOOP:  cpu time   14.7232: real time   15.2283

 eigenvalue-minimisations  :  7680
 total energy-change (2. order) : 0.7969619E+02  (-0.1419072E+04)
 number of electron     672.0000000 magnetization      48.0000000
 augmentation part      672.0000000 magnetization      48.0000000

 Free energy of the ion-electron system (eV)
  ---------------------------------------------------
  alpha Z        PSCENC =      2652.81237852
  Ewald energy   TEWEN  =    -41904.15437223
  -Hartree energ DENC   =    -25711.19018541
  -exchange      EXHF   =         0.00000000
  -V(xc)+E(xc)   XCENC  =      3605.53828902
  PAW double counting   =     55594.23204139   -59034.67079123
  entropy T*S    EENTRO =        -0.03565691
  eigenvalues    EBANDS =     -9712.93391052
  atomic energy  EATOM  =     73862.19814772
  Solvation  Ediel_sol  =         0.00000000
  ---------------------------------------------------
  free energy    TOTEN  =      -648.20405966 eV

  energy without entropy =     -648.16840275  energy(sigma->0) =     -648.18623121


--------------------------------------------------------------------------------------------------------




--------------------------------------- Iteration      1(   4)  ---------------------------------------


    EDDIAG:  cpu time    4.3944: real time    4.8155
  RMM-DIIS:  cpu time    9.0923: real time    9.1324
    ORTHCH:  cpu time    1.1679: real time    1.2527
       DOS:  cpu time    0.0016: real time    0.0016
    --------------------------------------------
      LOOP:  cpu time   14.6561: real time   15.2021

 eigenvalue-minimisations  :  7680
 total energy-change (2. order) :-0.4641987E+03  (-0.4289306E+03)
 number of electron     672.0000000 magnetization      48.0000000
 augmentation part      672.0000000 magnetization      48.0000000

 Free energy of the ion-electron system (eV)
  ---------------------------------------------------
  alpha Z        PSCENC =      2652.81237852
  Ewald energy   TEWEN  =    -41904.15437223
  -Hartree energ DENC   =    -25711.19018541
  -exchange      EXHF   =         0.00000000
  -V(xc)+E(xc)   XCENC  =      3605.53828902
  PAW double counting   =     55594.23204139   -59034.67079123
  entropy T*S    EENTRO =        -0.00000000
  eigenvalues    EBANDS =    -10177.16824788
  atomic energy  EATOM  =     73862.19814772
  Solvation  Ediel_sol  =         0.00000000
  ---------------------------------------------------
  free energy    TOTEN  =     -1112.40274010 eV

  energy without entropy =    -1112.40274010  energy(sigma->0) =    -1112.40274010


--------------------------------------------------------------------------------------------------------




--------------------------------------- Iteration      1(   5)  ---------------------------------------


    EDDIAG:  cpu time    4.4715: real time    4.8754
  RMM-DIIS:  cpu time    9.0978: real time    9.1069
    ORTHCH:  cpu time    1.1713: real time    1.2549
       DOS:  cpu time    0.0016: real time    0.0016
    --------------------------------------------
      LOOP:  cpu time   14.7422: real time   15.2388

 eigenvalue-minimisations  :  7680
 total energy-change (2. order) :-0.1035634E+03  (-0.1590491E+03)
 number of electron     672.0000000 magnetization      48.0000000
 augmentation part      672.0000000 magnetization      48.0000000

 Free energy of the ion-electron system (eV)
  ---------------------------------------------------
  alpha Z        PSCENC =      2652.81237852
  Ewald energy   TEWEN  =    -41904.15437223
  -Hartree energ DENC   =    -25711.19018541
  -exchange      EXHF   =         0.00000000
  -V(xc)+E(xc)   XCENC  =      3605.53828902
  PAW double counting   =     55594.23204139   -59034.67079123
  entropy T*S    EENTRO =        -0.00000000
  eigenvalues    EBANDS =    -10280.73161015
  atomic energy  EATOM  =     73862.19814772
  Solvation  Ediel_sol  =         0.00000000
  ---------------------------------------------------
  free energy    TOTEN  =     -1215.96610238 eV

  energy without entropy =    -1215.96610238  energy(sigma->0) =    -1215.96610238


--------------------------------------------------------------------------------------------------------




--------------------------------------- Iteration      1(   6)  ---------------------------------------


    EDDIAG:  cpu time    4.4059: real time    4.8357
  RMM-DIIS:  cpu time    9.1047: real time    9.1226
    ORTHCH:  cpu time    1.1649: real time    1.2508
       DOS:  cpu time    0.0013: real time    0.0013
    --------------------------------------------
      LOOP:  cpu time   14.6769: real time   15.2105

 eigenvalue-minimisations  :  7680
 total energy-change (2. order) :-0.9053968E+01  (-0.7887036E+02)
 number of electron     672.0000000 magnetization      48.0000000
 augmentation part      672.0000000 magnetization      48.0000000

 Free energy of the ion-electron system (eV)
  ---------------------------------------------------
  alpha Z        PSCENC =      2652.81237852
  Ewald energy   TEWEN  =    -41904.15437223
  -Hartree energ DENC   =    -25711.19018541
  -exchange      EXHF   =         0.00000000
  -V(xc)+E(xc)   XCENC  =      3605.53828902
  PAW double counting   =     55594.23204139   -59034.67079123
  entropy T*S    EENTRO =        -0.00000000
  eigenvalues    EBANDS =    -10289.78557838
  atomic energy  EATOM  =     73862.19814772
  Solvation  Ediel_sol  =         0.00000000
  ---------------------------------------------------
  free energy    TOTEN  =     -1225.02007061 eV

  energy without entropy =    -1225.02007061  energy(sigma->0) =    -1225.02007061


--------------------------------------------------------------------------------------------------------




--------------------------------------- Iteration      1(   7)  ---------------------------------------


    EDDIAG:  cpu time    4.4488: real time    4.8628
  RMM-DIIS:  cpu time    9.1127: real time    9.1315
    ORTHCH:  cpu time    1.1725: real time    1.2554
       DOS:  cpu time    0.0013: real time    0.0013
    --------------------------------------------
      LOOP:  cpu time   14.7352: real time   15.2509

 eigenvalue-minimisations  :  7680
 total energy-change (2. order) :-0.1701536E+01  (-0.4815336E+02)
 number of electron     672.0000000 magnetization      48.0000000
 augmentation part      672.0000000 magnetization      48.0000000

 Free energy of the ion-electron system (eV)
  ---------------------------------------------------
  alpha Z        PSCENC =      2652.81237852
  Ewald energy   TEWEN  =    -41904.15437223
  -Hartree energ DENC   =    -25711.19018541
  -exchange      EXHF   =         0.00000000
  -V(xc)+E(xc)   XCENC  =      3605.53828902
  PAW double counting   =     55594.23204139   -59034.67079123
  entropy T*S    EENTRO =        -0.00000000
  eigenvalues    EBANDS =    -10291.48711406
  atomic energy  EATOM  =     73862.19814772
  Solvation  Ediel_sol  =         0.00000000
  ---------------------------------------------------
  free energy    TOTEN  =     -1226.72160628 eV

  energy without entropy =    -1226.72160628  energy(sigma->0) =    -1226.72160628


--------------------------------------------------------------------------------------------------------




--------------------------------------- Iteration      1(   8)  ---------------------------------------


    EDDIAG:  cpu time    4.4259: real time    4.8479
  RMM-DIIS:  cpu time    9.0932: real time    9.1167
    ORTHCH:  cpu time    1.2226: real time    1.3054
       DOS:  cpu time    0.0015: real time    0.0015
    --------------------------------------------
      LOOP:  cpu time   14.7432: real time   15.2715

 eigenvalue-minimisations  :  7680
 total energy-change (2. order) : 0.4916617E+01  (-0.3001908E+02)
 number of electron     672.0000000 magnetization      48.0000000
 augmentation part      672.0000000 magnetization      48.0000000

 Free energy of the ion-electron system (eV)
  ---------------------------------------------------
  alpha Z        PSCENC =      2652.81237852
  Ewald energy   TEWEN  =    -41904.15437223
  -Hartree energ DENC   =    -25711.19018541
  -exchange      EXHF   =         0.00000000
  -V(xc)+E(xc)   XCENC  =      3605.53828902
  PAW double counting   =     55594.23204139   -59034.67079123
  entropy T*S    EENTRO =        -0.00000000
  eigenvalues    EBANDS =    -10286.57049732
  atomic energy  EATOM  =     73862.19814772
  Solvation  Ediel_sol  =         0.00000000
  ---------------------------------------------------
  free energy    TOTEN  =     -1221.80498955 eV

  energy without entropy =    -1221.80498955  energy(sigma->0) =    -1221.80498955


--------------------------------------------------------------------------------------------------------




--------------------------------------- Iteration      1(   9)  ---------------------------------------


    EDDIAG:  cpu time    4.3919: real time    4.8073
  RMM-DIIS:  cpu time   19.3785: real time   19.3853
    ORTHCH:  cpu time    1.1670: real time    1.2550
       DOS:  cpu time    0.0014: real time    0.0014
    --------------------------------------------
      LOOP:  cpu time   24.9389: real time   25.4490

 eigenvalue-minimisations  : 21803
 total energy-change (2. order) : 0.9323802E+01  (-0.1329271E+02)
 number of electron     672.0000000 magnetization      48.0000000
 augmentation part      672.0000000 magnetization      48.0000000

 Free energy of the ion-electron system (eV)
  ---------------------------------------------------
  alpha Z        PSCENC =      2652.81237852
  Ewald energy   TEWEN  =    -41904.15437223
  -Hartree energ DENC   =    -25711.19018541
  -exchange      EXHF   =         0.00000000
  -V(xc)+E(xc)   XCENC  =      3605.53828902
  PAW double counting   =     55594.23204139   -59034.67079123
  entropy T*S    EENTRO =        -0.00000001
  eigenvalues    EBANDS =    -10277.24669561
  atomic energy  EATOM  =     73862.19814772
  Solvation  Ediel_sol  =         0.00000000
  ---------------------------------------------------
  free energy    TOTEN  =     -1212.48118785 eV

  energy without entropy =    -1212.48118784  energy(sigma->0) =    -1212.48118785


--------------------------------------------------------------------------------------------------------




--------------------------------------- Iteration      1(  10)  ---------------------------------------


    EDDIAG:  cpu time    4.5095: real time    4.8970
  RMM-DIIS:  cpu time   17.9463: real time   17.9551
    ORTHCH:  cpu time    1.1871: real time    1.2713
       DOS:  cpu time    0.0018: real time    0.0018
    --------------------------------------------
      LOOP:  cpu time   23.6448: real time   24.1252

 eigenvalue-minimisations  : 19628
 total energy-change (2. order) :-0.1914209E+01  (-0.5324561E+00)
 number of electron     672.0000000 magnetization      48.0000000
 augmentation part      672.0000000 magnetization      48.0000000

 Free energy of the ion-electron system (eV)
  ---------------------------------------------------
  alpha Z        PSCENC =      2652.81237852
  Ewald energy   TEWEN  =    -41904.15437223
  -Hartree energ DENC   =    -25711.19018541
  -exchange      EXHF   =         0.00000000
  -V(xc)+E(xc)   XCENC  =      3605.53828902
  PAW double counting   =     55594.23204139   -59034.67079123
  entropy T*S    EENTRO =        -0.00000011
  eigenvalues    EBANDS =    -10279.16090494
  atomic energy  EATOM  =     73862.19814772
  Solvation  Ediel_sol  =         0.00000000
  ---------------------------------------------------
  free energy    TOTEN  =     -1214.39539727 eV

  energy without entropy =    -1214.39539716  energy(sigma->0) =    -1214.39539722


--------------------------------------------------------------------------------------------------------




--------------------------------------- Iteration      1(  11)  ---------------------------------------


    EDDIAG:  cpu time    4.4133: real time    4.8095
  RMM-DIIS:  cpu time   19.8413: real time   19.8978
    ORTHCH:  cpu time    1.1648: real time    1.2520
       DOS:  cpu time    0.0017: real time    0.0017
    --------------------------------------------
      LOOP:  cpu time   25.4211: real time   25.9611

 eigenvalue-minimisations  : 22547
 total energy-change (2. order) : 0.7084685E-01  (-0.4355280E-01)
 number of electron     672.0000000 magnetization      48.0000000
 augmentation part      672.0000000 magnetization      48.0000000

 Free energy of the ion-electron system (eV)
  ---------------------------------------------------
  alpha Z        PSCENC =      2652.81237852
  Ewald energy   TEWEN  =    -41904.15437223
  -Hartree energ DENC   =    -25711.19018541
  -exchange      EXHF   =         0.00000000
  -V(xc)+E(xc)   XCENC  =      3605.53828902
  PAW double counting   =     55594.23204139   -59034.67079123
  entropy T*S    EENTRO =        -0.00000010
  eigenvalues    EBANDS =    -10279.09005810
  atomic energy  EATOM  =     73862.19814772
  Solvation  Ediel_sol  =         0.00000000
  ---------------------------------------------------
  free energy    TOTEN  =     -1214.32455042 eV

  energy without entropy =    -1214.32455032  energy(sigma->0) =    -1214.32455037


--------------------------------------------------------------------------------------------------------




--------------------------------------- Iteration      1(  12)  ---------------------------------------


    EDDIAG:  cpu time    4.4516: real time    4.8478
  RMM-DIIS:  cpu time   21.8214: real time   21.8877
    ORTHCH:  cpu time    1.1670: real time    1.2510
       DOS:  cpu time    0.0014: real time    0.0014
    CHARGE:  cpu time    1.7906: real time    1.7931
    MIXING:  cpu time    0.0010: real time    0.0011
    --------------------------------------------
      LOOP:  cpu time   29.2330: real time   29.7820

 eigenvalue-minimisations  : 24435
 total energy-change (2. order) :-0.8703603E-03  (-0.4386642E-02)
 number of electron     671.9999994 magnetization      48.0000047
 augmentation part      238.9903893 magnetization      29.0211256

 Broyden mixing:
  rms(total) = 0.12461E+02    rms(broyden)= 0.12452E+02
  rms(prec ) = 0.14336E+02
  weight for this iteration     100.00

 Free energy of the ion-electron system (eV)
  ---------------------------------------------------
  alpha Z        PSCENC =      2652.81237852
  Ewald energy   TEWEN  =    -41904.15437223
  -Hartree energ DENC   =    -25711.19018541
  -exchange      EXHF   =         0.00000000
  -V(xc)+E(xc)   XCENC  =      3605.53828902
  PAW double counting   =     55594.23204139   -59034.67079123
  entropy T*S    EENTRO =        -0.00000010
  eigenvalues    EBANDS =    -10279.09092846
  atomic energy  EATOM  =     73862.19814772
  Solvation  Ediel_sol  =         0.00000000
  ---------------------------------------------------
  free energy    TOTEN  =     -1214.32542078 eV

  energy without entropy =    -1214.32542068  energy(sigma->0) =    -1214.32542073


--------------------------------------------------------------------------------------------------------




--------------------------------------- Iteration      1(  13)  ---------------------------------------


    POTLOK:  cpu time    0.1692: real time    0.1696
    SETDIJ:  cpu time    4.9814: real time    4.9847
    EDDIAG:  cpu time    4.4097: real time    4.8140
  RMM-DIIS:  cpu time   17.2611: real time   17.3291
    ORTHCH:  cpu time    1.1646: real time    1.2500
       DOS:  cpu time    0.0016: real time    0.0016
    CHARGE:  cpu time    1.7879: real time    1.7933
    MIXING:  cpu time    0.0009: real time    0.0010
    --------------------------------------------
      LOOP:  cpu time   29.7764: real time   30.3433

 eigenvalue-minimisations  : 18779
 total energy-change (2. order) : 0.2260965E+03  (-0.1231658E+03)
 number of electron     671.9999958 magnetization      48.0000055
 augmentation part      269.3000372 magnetization      26.3081102

 Broyden mixing:
  rms(total) = 0.14040E+02    rms(broyden)= 0.14037E+02
  rms(prec ) = 0.15833E+02
  weight for this iteration     100.00

 eigenvalues of (default mixing * dielectric matrix)
  average eigenvalue GAMMA=   0.3146
  0.3146

 Free energy of the ion-electron system (eV)
  ---------------------------------------------------
  alpha Z        PSCENC =      2652.81237852
  Ewald energy   TEWEN  =    -41904.15437223
  -Hartree energ DENC   =    -25031.58497879
  -exchange      EXHF   =         0.00000000
  -V(xc)+E(xc)   XCENC  =      3695.42831892
  PAW double counting   =     59813.26048537   -63237.93793602
  entropy T*S    EENTRO =        -0.10142425
  eigenvalues    EBANDS =    -10838.14955511
  atomic energy  EATOM  =     73862.19814772
  Solvation  Ediel_sol  =         0.00000000
  ---------------------------------------------------
  free energy    TOTEN  =      -988.22893587 eV

  energy without entropy =     -988.12751162  energy(sigma->0) =     -988.17822375


--------------------------------------------------------------------------------------------------------




--------------------------------------- Iteration      1(  14)  ---------------------------------------


    POTLOK:  cpu time    0.1775: real time    0.1778
    SETDIJ:  cpu time    4.9735: real time    4.9765
    EDDIAG:  cpu time    4.4040: real time    4.8129
  RMM-DIIS:  cpu time   17.9971: real time   18.0474
    ORTHCH:  cpu time    1.1667: real time    1.2512
       DOS:  cpu time    0.0011: real time    0.0011
    CHARGE:  cpu time    1.7886: real time    1.7937
    MIXING:  cpu time    0.0010: real time    0.0010
    --------------------------------------------
      LOOP:  cpu time   30.5094: real time   31.0616

 eigenvalue-minimisations  : 19389
 total energy-change (2. order) : 0.7268669E+02  (-0.1799317E+02)
 number of electron     671.9999983 magnetization      48.0000089
 augmentation part      246.4871154 magnetization      32.1514751

 Broyden mixing:
  rms(total) = 0.52312E+01    rms(broyden)= 0.52266E+01
  rms(prec ) = 0.56623E+01
  weight for this iteration     100.00

 eigenvalues of (default mixing * dielectric matrix)
  average eigenvalue GAMMA=   0.7259
  1.0965  0.3553

 Free energy of the ion-electron system (eV)
  ---------------------------------------------------
  alpha Z        PSCENC =      2652.81237852
  Ewald energy   TEWEN  =    -41904.15437223
  -Hartree energ DENC   =    -25646.73400057
  -exchange      EXHF   =         0.00000000
  -V(xc)+E(xc)   XCENC  =      3672.25230585
  PAW double counting   =     63172.17382792   -66654.04687871
  entropy T*S    EENTRO =        -0.00000000
  eigenvalues    EBANDS =    -10070.04365285
  atomic energy  EATOM  =     73862.19814772
  Solvation  Ediel_sol  =         0.00000000
  ---------------------------------------------------
  free energy    TOTEN  =      -915.54224434 eV

  energy without entropy =     -915.54224434  energy(sigma->0) =     -915.54224434


--------------------------------------------------------------------------------------------------------




--------------------------------------- Iteration      1(  15)  ---------------------------------------


    POTLOK:  cpu time    0.1719: real time    0.1719
    SETDIJ:  cpu time    4.9795: real time    4.9824
    EDDIAG:  cpu time    4.4179: real time    4.8240
  RMM-DIIS:  cpu time   18.1525: real time   18.1924
    ORTHCH:  cpu time    1.1655: real time    1.2497
       DOS:  cpu time    0.0012: real time    0.0012
    CHARGE:  cpu time    1.7897: real time    1.7933
    MIXING:  cpu time    0.0009: real time    0.0009
    --------------------------------------------
      LOOP:  cpu time   30.6791: real time   31.2158

 eigenvalue-minimisations  : 20218
 total energy-change (2. order) : 0.1439569E+02  (-0.1948715E+01)
 number of electron     671.9999971 magnetization      48.0000113
 augmentation part      249.7187975 magnetization      33.8389387

 Broyden mixing:
  rms(total) = 0.20906E+01    rms(broyden)= 0.20903E+01
  rms(prec ) = 0.21616E+01
  weight for this iteration     100.00

 eigenvalues of (default mixing * dielectric matrix)
  average eigenvalue GAMMA=   0.9674
  0.3781  0.7730  1.7511

 Free energy of the ion-electron system (eV)
  ---------------------------------------------------
  alpha Z        PSCENC =      2652.81237852
  Ewald energy   TEWEN  =    -41904.15437223
  -Hartree energ DENC   =    -25561.77986013
  -exchange      EXHF   =         0.00000000
  -V(xc)+E(xc)   XCENC  =      3705.86057689
  PAW double counting   =     67210.88251169   -70732.71689012
  entropy T*S    EENTRO =        -0.00000000
  eigenvalues    EBANDS =    -10134.24904508
  atomic energy  EATOM  =     73862.19814772
  Solvation  Ediel_sol  =         0.00000000
  ---------------------------------------------------
  free energy    TOTEN  =      -901.14655274 eV

  energy without entropy =     -901.14655274  energy(sigma->0) =     -901.14655274


--------------------------------------------------------------------------------------------------------




--------------------------------------- Iteration      1(  16)  ---------------------------------------


    POTLOK:  cpu time    0.1699: real time    0.1712
    SETDIJ:  cpu time    5.0345: real time    5.0384
    EDDIAG:  cpu time    4.4938: real time    4.9058
  RMM-DIIS:  cpu time   17.3456: real time   17.3566
    ORTHCH:  cpu time    1.1721: real time    1.2541
       DOS:  cpu time    0.0019: real time    0.0019
    CHARGE:  cpu time    1.7957: real time    1.7975
    MIXING:  cpu time    0.0010: real time    0.0010
    --------------------------------------------
      LOOP:  cpu time   30.0145: real time   30.5266

 eigenvalue-minimisations  : 19019
 total energy-change (2. order) :-0.1769861E+01  (-0.6208716E+00)
 number of electron     671.9999964 magnetization      48.0000119
 augmentation part      251.2698857 magnetization      33.9275342

 Broyden mixing:
  rms(total) = 0.13697E+01    rms(broyden)= 0.13691E+01
  rms(prec ) = 0.14698E+01
  weight for this iteration     100.00

 eigenvalues of (default mixing * dielectric matrix)
  average eigenvalue GAMMA=   0.9819
  2.0750  0.9182  0.3846  0.5496

 Free energy of the ion-electron system (eV)
  ---------------------------------------------------
  alpha Z        PSCENC =      2652.81237852
  Ewald energy   TEWEN  =    -41904.15437223
  -Hartree energ DENC   =    -25509.77782553
  -exchange      EXHF   =         0.00000000
  -V(xc)+E(xc)   XCENC  =      3706.94714468
  PAW double counting   =     70193.37757306   -73745.70097803
  entropy T*S    EENTRO =        -0.00000000
  eigenvalues    EBANDS =    -10158.61848174
  atomic energy  EATOM  =     73862.19814772
  Solvation  Ediel_sol  =         0.00000000
  ---------------------------------------------------
  free energy    TOTEN  =      -902.91641354 eV

  energy without entropy =     -902.91641354  energy(sigma->0) =     -902.91641354


--------------------------------------------------------------------------------------------------------




--------------------------------------- Iteration      1(  17)  ---------------------------------------


    POTLOK:  cpu time    0.1719: real time    0.1725
    SETDIJ:  cpu time    5.0393: real time    5.0414
    EDDIAG:  cpu time    4.4500: real time    4.8462
  RMM-DIIS:  cpu time   18.6264: real time   18.6405
    ORTHCH:  cpu time    1.1623: real time    1.2487
       DOS:  cpu time    0.0020: real time    0.0020
    CHARGE:  cpu time    1.8053: real time    1.8065
    MIXING:  cpu time    0.0015: real time    0.0015
    --------------------------------------------
      LOOP:  cpu time   31.2587: real time   31.7593

 eigenvalue-minimisations  : 20530
 total energy-change (2. order) : 0.2311074E+00  (-0.5058928E-01)
 number of electron     671.9999965 magnetization      48.0000122
 augmentation part      251.0804798 magnetization      33.9225154

 Broyden mixing:
  rms(total) = 0.73784E+00    rms(broyden)= 0.73777E+00
  rms(prec ) = 0.83194E+00
  weight for this iteration     100.00

 eigenvalues of (default mixing * dielectric matrix)
  average eigenvalue GAMMA=   1.0165
  2.2456  1.1604  0.3774  0.7169  0.5823

 Free energy of the ion-electron system (eV)
  ---------------------------------------------------
  alpha Z        PSCENC =      2652.81237852
  Ewald energy   TEWEN  =    -41904.15437223
  -Hartree energ DENC   =    -25504.80429310
  -exchange      EXHF   =         0.00000000
  -V(xc)+E(xc)   XCENC  =      3703.81396379
  PAW double counting   =     70987.96451526   -74548.04505078
  entropy T*S    EENTRO =        -0.00000000
  eigenvalues    EBANDS =    -10152.47059528
  atomic energy  EATOM  =     73862.19814772
  Solvation  Ediel_sol  =         0.00000000
  ---------------------------------------------------
  free energy    TOTEN  =      -902.68530610 eV

  energy without entropy =     -902.68530610  energy(sigma->0) =     -902.68530610


--------------------------------------------------------------------------------------------------------




--------------------------------------- Iteration      1(  18)  ---------------------------------------


    POTLOK:  cpu time    0.1685: real time    0.1688
    SETDIJ:  cpu time    5.0474: real time    5.0487
    EDDIAG:  cpu time    4.4908: real time    4.9065
  RMM-DIIS:  cpu time   17.5547: real time   17.6131
    ORTHCH:  cpu time    1.1673: real time    1.2512
       DOS:  cpu time    0.0012: real time    0.0012
    CHARGE:  cpu time    1.8016: real time    1.8078
    MIXING:  cpu time    0.0011: real time    0.0011
    --------------------------------------------
      LOOP:  cpu time   30.2328: real time   30.7985

 eigenvalue-minimisations  : 19044
 total energy-change (2. order) : 0.3760624E+00  (-0.6577509E-01)
 number of electron     671.9999968 magnetization      48.0000123
 augmentation part      250.5602433 magnetization      33.8778405

 Broyden mixing:
  rms(total) = 0.26013E+00    rms(broyden)= 0.25978E+00
  rms(prec ) = 0.27382E+00
  weight for this iteration     100.00

 eigenvalues of (default mixing * dielectric matrix)
  average eigenvalue GAMMA=   1.0229
[...]
   4      -0.717    -0.982     1.699     0.241    -0.118    -0.017
   5      -0.563    -0.872     1.436     0.126    -0.043    -0.015
   6      -0.889    -0.975     1.864     0.082    -0.095    -0.004
   7      -0.874    -0.842     1.716     0.041    -0.047     0.056
   8      -1.115    -0.633     1.748     0.180     0.030     0.034
   9      -1.077    -0.572     1.649     0.028    -0.008     0.011
  10      -0.621    -0.849     1.470     0.200     0.046     0.063
  11      -0.886    -0.940     1.825    -0.191     0.000     0.100
  12      -0.607    -0.955     1.561     0.156     0.036     0.046
  13      -1.038    -0.892     1.930    -0.078    -0.050    -0.031
  14      -1.170    -0.605     1.775     0.052    -0.039     0.016
  15      -0.653    -0.909     1.562    -0.204    -0.017    -0.041
  16      -0.615    -0.725     1.340    -0.086    -0.019    -0.040
  17       1.444     1.481    -2.925    -0.158     0.013     0.284
  18       1.707     1.130    -2.837    -0.089     0.021    -0.110
  19       1.536     1.327    -2.863    -0.093    -0.096     0.176
  20       1.345     1.507    -2.852     0.036    -0.007    -0.106
  21       1.347     1.523    -2.870     0.094    -0.051    -0.198
  22       1.458     1.635    -3.093     0.293     0.029     0.215
  23       1.535     1.488    -3.023     0.215     0.089    -0.112
  24       1.379     1.558    -2.937     0.113    -0.146     0.090
  25      -1.705    -0.309     2.014    -1.038    -0.266     0.178
  26       0.593     0.183    -0.776    -0.795    -0.883     0.706
  27      -0.951     0.295     0.656     0.707    -2.026     1.024
  28       1.087    -1.313     0.226    -0.444    -1.023     0.178
  29       1.349     0.081    -1.430    -0.578     0.649     1.875
  30      -1.230    -0.254     1.483     0.067     0.354     0.846
  31      -1.298    -0.497     1.795    -0.874    -0.060     0.336
  32      -1.234     0.078     1.156     0.590    -0.536     0.401
  33      -0.503     1.000    -0.498     0.908    -0.246    -0.498
  34      -0.403    -1.286     1.689     0.204     0.475    -0.014
  35      -0.663     1.792    -1.129     1.132    -0.208     0.279
  36      -1.330     0.618     0.712    -1.458    -0.771    -0.814
  37      -0.701     1.068    -0.367     2.009    -1.026    -0.088
  38       0.817     0.241    -1.058     0.876    -0.267    -0.697
  39       1.147    -0.152    -0.995    -0.264    -0.614     0.259
  40       0.626     0.632    -1.258    -1.321     1.105    -0.307
  41      -4.558     6.270    -1.712    -4.375     2.810    -3.291
  42      -2.884     3.549    -0.665     4.206     2.406     2.956
  43       5.071    -6.053     0.982     0.031    -4.951     0.784
  44      -2.643     0.893     1.750    -4.120    -1.694     5.082
  45       6.584    -5.056    -1.528     0.436     3.169    -1.243
  46      -1.762     1.195     0.567     4.406    -2.327    -3.628
  47      -1.494     0.205     1.288    -5.026     0.061    -5.568
  48       6.070    -6.201     0.131     0.392    -4.294     1.853
  49      -1.537     1.661    -0.123     5.246     0.197     6.046
  50      -4.812     4.556     0.256    -5.001    -2.133     3.868
  51      -2.382     1.411     0.971     5.149    -2.615    -2.109
  52       4.287    -5.787     1.500    -0.592     4.097     1.462
  53      -3.865     3.733     0.133    -4.109     3.082    -3.819
  54      -4.738     2.182     2.557     4.640     4.539     3.391
  55       4.451    -6.509     2.058    -0.562    -4.479    -1.551
  56      -2.948    -0.094     3.042    -5.078    -3.526     3.150
  57       5.071    -4.868    -0.203     0.723     4.024     2.005
  58      -2.775     1.288     1.487     4.014    -3.388    -4.542
  59      -3.465     1.288     2.176    -3.677     1.497    -3.565
  60       5.250    -5.319     0.069     0.690    -5.290     1.555
  61      -1.810     1.021     0.789     4.452     1.849     5.670
  62      -3.453     1.908     1.545    -3.708    -3.166     4.948
  63      -4.855     3.151     1.704     4.975    -3.722    -5.175
  64       5.085    -4.424    -0.661     1.832     5.443     0.832
  65      -3.240     1.918     1.322    -6.230    -0.086    -5.653
  66      -3.476     1.033     2.443     4.491     2.699     5.224
  67       3.698    -6.576     2.879    -1.072    -5.566    -0.523
  68      -5.959     5.965    -0.006    -2.889    -0.601     3.883
  69       5.652    -4.948    -0.704     0.978     2.800     0.368
  70      -3.657     1.056     2.601     3.860    -4.425    -4.791
  71      -4.013     5.001    -0.988    -3.287     3.552    -3.232
  72       4.569    -5.759     1.190    -0.278    -3.957     0.616
  73      -2.859     5.786    -2.927     6.892     1.453     3.056
  74      -4.337     3.711     0.627    -4.663    -0.610     6.153
  75      -1.642     1.170     0.473     6.502    -2.726    -4.006
  76       4.699    -6.164     1.465     0.531     4.164     0.235
  77      -1.325     0.819     0.505    -5.190     0.272    -4.640
  78      -2.165     1.304     0.862     5.354     1.501     4.855
  79       5.085    -6.148     1.063    -0.200    -3.895    -1.814
  80      -1.955     2.342    -0.387    -6.459    -1.988     3.371
  81       5.874    -7.265     1.391    -2.536     5.948     0.118
  82      -4.343     5.069    -0.726     5.755    -0.679    -4.892
  83      -3.540     3.835    -0.295    -3.127     2.684    -2.539
  84       5.287    -5.548     0.261    -0.059    -5.163     0.050
  85      -3.940     4.917    -0.977     5.791     3.346     3.709
  86      -1.384     1.136     0.248    -5.911    -3.697     3.819
  87      -3.110     4.276    -1.167     4.286    -2.721    -3.066
  88       5.381    -5.494     0.114     0.598     5.134    -1.718
 ---------------------------------------------------------------------


 Total hyperfine coupling parameters after diagonalization (MHz)
 (convention: |A_zz| > |A_xx| > |A_yy|)
 ----------------------------------------------------------------------
  ion      A_xx      A_yy      A_zz     asymmetry (A_yy - A_xx)/ A_zz 
 ----------------------------------------------------------------------
   1       0.125    -0.019     2.804      -0.051
   2       1.499     1.292     3.253      -0.063
   3       2.153     1.674     4.147      -0.115
   4       2.348     1.802     4.632      -0.118
   5       1.768     1.371     3.725      -0.107
   6      -0.474    -0.290     2.419       0.076
   7       0.348     0.258     2.880      -0.031
   8       1.370     0.770     3.693      -0.162
   9       2.036     1.528     4.256      -0.119
  10       2.096     1.639     4.077      -0.112
  11       0.805     0.418     3.355      -0.115
  12       1.873     1.407     3.984      -0.117
  13      -0.271    -0.056     2.733       0.079
  14       1.691     1.116     4.068      -0.141
  15       2.924     2.442     5.027      -0.096
  16       1.597     1.393     3.507      -0.058
  17      13.941     9.686    14.260      -0.298
  18      12.913     8.954    13.515      -0.293
  19      13.198     9.029    13.478      -0.309
  20      12.403     8.212    12.583      -0.333
  21      13.029     8.843    13.296      -0.315
  22      15.342    10.996    15.959      -0.272
  23      15.996    11.668    16.424      -0.263
  24      14.030     9.754    14.311      -0.299
  25      98.432    95.969   100.294      -0.025
  26      94.750    93.894    96.903      -0.009
  27      96.701    93.318    98.251      -0.034
  28      91.001    90.052    93.281      -0.010
  29      94.583    90.420    94.873      -0.044
  30      97.861    97.174   100.319      -0.007
  31      97.185    95.314    99.032      -0.019
  32      98.439    96.554    99.502      -0.019
  33      96.107    95.823    98.329      -0.003
  34      97.682    96.804    99.932      -0.009
  35      95.166    94.577    98.238      -0.006
  36      97.514    94.185    98.263      -0.034
  37      96.545    94.355    99.238      -0.022
  38      93.499    92.366    95.336      -0.012
  39      98.671    97.666   100.236      -0.010
  40      97.528    96.153   100.206      -0.014
  41       4.137     0.007    16.047      -0.257
  42       6.616     3.609    16.153      -0.186
  43       5.615     1.649    16.223      -0.244
  44       5.619     2.079    15.844      -0.223
  45       4.079     0.491    13.797      -0.260
  46       1.767    -0.953    11.164      -0.244
  47       8.819     1.623    16.878      -0.426
  48       6.328     0.844    16.095      -0.341
  49       9.094     2.643    18.862      -0.342
  50       5.527     0.458    16.418      -0.309
  51       5.255    -0.171    12.752      -0.425
  52       5.690     0.357    13.871      -0.384
  53       2.831    -0.970    13.397      -0.284
  54       8.065     1.245    17.945      -0.380
  55       7.602     1.573    16.449      -0.367
  56       5.779     0.057    15.034      -0.381
  57       9.265     5.369    18.497      -0.211
  58       5.748     3.492    17.199      -0.131
  59       4.807     0.448    12.566      -0.347
  60       4.926     0.960    15.774      -0.251
  61       5.689     2.235    16.793      -0.206
  62       2.395     0.142    14.226      -0.158
  63       7.021     2.339    19.988      -0.234
  64       6.942     6.031    19.494      -0.047
  65       9.352     1.212    18.940      -0.430
  66       5.149     1.611    16.927      -0.209
  67       3.512    -1.325    14.415      -0.336
  68       5.592     0.765    15.847      -0.305
  69      -1.913     1.366     9.930       0.330
  70       5.543     2.255    17.902      -0.184
  71       5.787     0.944    15.495      -0.313
  72       4.324    -0.096    12.924      -0.342
  73       6.945     4.024    21.161      -0.138
  74       4.701    -0.063    16.892      -0.282
  75       7.487     2.772    18.805      -0.251
  76       2.615    -2.192    11.571      -0.416
  77       7.580     1.364    15.456      -0.402
  78       4.749     0.003    14.917      -0.318
  79       6.255     0.363    14.563      -0.405
  80       4.823     0.224    15.539      -0.296
  81       7.445     1.777    19.948      -0.284
  82       7.254     2.194    19.588      -0.258
  83       4.051    -0.052    11.932      -0.344
  84       3.225     0.644    14.710      -0.175
  85       4.389    -0.081    17.036      -0.262
  86       3.456     0.108    15.423      -0.217
  87       6.934     3.801    17.290      -0.181
  88       5.234     0.899    15.859      -0.273
 ---------------------------------------------------------------------



--------------------------------------------------------------------------------------------------------


 stress matrix after NEB project (eV)
    -43.20973      1.45087      1.45322
      1.44739    -51.27755     -6.54016
      1.46448     -6.52405    -66.93186
  FORCES: max atom, RMS     2.574792    1.115808
  FORCE total and by dimension   10.467205    2.278330
  Stress total and by dimension   95.237262   66.931860
     LOOP+:  cpu time 4980.3113: real time 5083.9492
    4ORBIT:  cpu time    0.0000: real time    0.0000
 


 total charge     
 
# of ion       s       p       d       tot
------------------------------------------
    1        0.048   5.991   0.000   6.039
    2        0.047   5.989   0.000   6.036
    3        0.050   5.992   0.000   6.042
    4        0.053   5.995   0.000   6.048
    5        0.052   5.995   0.000   6.048
    6        0.051   5.995   0.000   6.046
    7        0.045   5.988   0.000   6.034
    8        0.054   5.999   0.000   6.053
    9        0.051   5.994   0.000   6.045
   10        0.051   5.993   0.000   6.044
   11        0.047   5.991   0.000   6.038
   12        0.052   5.995   0.000   6.047
   13        0.053   5.998   0.000   6.051
   14        0.057   6.002   0.000   6.060
   15        0.051   5.993   0.000   6.044
   16        0.054   5.997   0.000   6.051
   17        0.152   6.134   0.089   6.375
   18        0.148   6.126   0.082   6.355
   19        0.145   6.123   0.080   6.348
   20        0.143   6.119   0.077   6.338
   21        0.145   6.122   0.080   6.347
   22        0.155   6.139   0.093   6.388
   23        0.145   6.122   0.080   6.347
   24        0.145   6.122   0.079   6.346
   25        0.382   6.463   4.848  11.692
   26        0.375   6.449   4.841  11.665
   27        0.373   6.452   4.833  11.658
   28        0.381   6.466   4.837  11.684
   29        0.381   6.468   4.849  11.699
   30        0.369   6.441   4.814  11.624
   31        0.371   6.442   4.823  11.636
   32        0.375   6.459   4.826  11.659
   33        0.371   6.440   4.821  11.632
   34        0.377   6.457   4.834  11.668
   35        0.374   6.450   4.831  11.654
   36        0.365   6.430   4.811  11.606
   37        0.368   6.439   4.818  11.625
   38        0.375   6.451   4.831  11.656
   39        0.367   6.437   4.820  11.624
   40        0.382   6.471   4.852  11.705
   41        1.600   3.493   0.000   5.094
   42        1.599   3.519   0.000   5.118
   43        1.597   3.501   0.000   5.098
   44        1.599   3.516   0.000   5.115
   45        1.598   3.502   0.000   5.100
   46        1.595   3.483   0.000   5.078
   47        1.599   3.508   0.000   5.108
   48        1.598   3.505   0.000   5.103
   49        1.601   3.503   0.000   5.104
   50        1.600   3.493   0.000   5.093
   51        1.598   3.535   0.000   5.133
   52        1.598   3.525   0.000   5.123
   53        1.599   3.502   0.000   5.102
   54        1.604   3.538   0.000   5.143
   55        1.599   3.517   0.000   5.116
   56        1.597   3.526   0.000   5.123
   57        1.600   3.517   0.000   5.117
   58        1.599   3.503   0.000   5.101
   59        1.598   3.519   0.000   5.117
   60        1.599   3.473   0.000   5.072
   61        1.598   3.484   0.000   5.081
   62        1.596   3.491   0.000   5.087
   63        1.606   3.509   0.000   5.115
   64        1.601   3.473   0.000   5.074
   65        1.601   3.503   0.000   5.104
   66        1.597   3.505   0.000   5.101
   67        1.598   3.500   0.000   5.097
   68        1.597   3.507   0.000   5.105
   69        1.597   3.469   0.000   5.066
   70        1.606   3.506   0.000   5.111
   71        1.600   3.519   0.000   5.120
   72        1.597   3.517   0.000   5.114
   73        1.604   3.494   0.000   5.099
   74        1.599   3.481   0.000   5.080
   75        1.597   3.479   0.000   5.076
   76        1.598   3.494   0.000   5.092
   77        1.599   3.481   0.000   5.079
   78        1.598   3.506   0.000   5.104
   79        1.597   3.512   0.000   5.109
   80        1.600   3.534   0.000   5.135
   81        1.602   3.514   0.000   5.116
   82        1.603   3.483   0.000   5.086
   83        1.598   3.509   0.000   5.107
   84        1.598   3.488   0.000   5.085
   85        1.602   3.478   0.000   5.081
   86        1.598   3.460   0.000   5.058
   87        1.599   3.508   0.000   5.107
   88        1.599   3.508   0.000   5.107
--------------------------------------------------
tot         84.745 416.220  77.947 578.912
 


 magnetization (x)
 
# of ion       s       p       d       tot
------------------------------------------
    1        0.001   0.000   0.000   0.001
    2        0.002  -0.000   0.000   0.001
    3        0.002   0.000   0.000   0.002
    4        0.002   0.000   0.000   0.002
    5        0.002   0.000   0.000   0.002
    6        0.000   0.000   0.000   0.001
    7        0.001   0.000   0.000   0.001
    8        0.001   0.001   0.000   0.002
    9        0.002   0.000   0.000   0.002
   10        0.002   0.000   0.000   0.002
   11        0.001   0.001   0.000   0.002
   12        0.002   0.000   0.000   0.002
   13        0.001   0.000   0.000   0.001
   14        0.001   0.000   0.000   0.002
   15        0.003   0.001   0.000   0.003
   16        0.002  -0.000   0.000   0.001
   17        0.007   0.002   0.001   0.010
   18        0.006   0.002   0.001   0.009
   19        0.007   0.002   0.001   0.009
   20        0.006   0.001   0.001   0.009
   21        0.007   0.002   0.001   0.009
   22        0.008   0.003   0.001   0.012
   23        0.008   0.003   0.001   0.012
   24        0.007   0.002   0.001   0.011
   25        0.016   0.031   2.742   2.789
   26        0.015   0.028   2.748   2.791
   27        0.015   0.029   2.750   2.795
   28        0.014   0.030   2.743   2.786
   29        0.014   0.029   2.729   2.772
   30        0.016   0.030   2.776   2.822
   31        0.015   0.029   2.766   2.810
   32        0.016   0.030   2.762   2.808
   33        0.015   0.029   2.767   2.811
   34        0.016   0.031   2.742   2.789
   35        0.015   0.030   2.748   2.793
   36        0.015   0.029   2.772   2.816
   37        0.015   0.030   2.766   2.811
   38        0.014   0.029   2.751   2.794
   39        0.016   0.030   2.773   2.819
   40        0.016   0.031   2.732   2.779
   41        0.002   0.020   0.000   0.022
   42        0.002   0.048   0.000   0.050
   43        0.002   0.036   0.000   0.038
   44        0.002   0.038   0.000   0.040
   45        0.002   0.017   0.000   0.019
   46        0.001   0.001   0.000   0.002
   47        0.002   0.049   0.000   0.051
   48        0.002   0.034   0.000   0.036
   49        0.003   0.052   0.000   0.055
   50        0.002   0.033   0.000   0.035
   51        0.002   0.027   0.000   0.029
   52        0.002   0.035   0.000   0.036
   53        0.002   0.012   0.000   0.014
   54        0.002   0.054   0.000   0.056
   55        0.002   0.043   0.000   0.045
   56        0.002   0.036   0.000   0.038
   57        0.003   0.058   0.000   0.061
   58        0.002   0.041   0.000   0.044
   59        0.002   0.029   0.000   0.030
   60        0.002   0.018   0.000   0.020
   61        0.002   0.027   0.000   0.030
   62        0.002   0.021   0.000   0.023
   63        0.002   0.055   0.000   0.057
   64        0.003   0.047   0.000   0.050
   65        0.002   0.052   0.000   0.055
   66        0.002   0.041   0.000   0.043
   67        0.002   0.022   0.000   0.023
   68        0.002   0.035   0.000   0.037
   69        0.001  -0.007   0.000  -0.005
   70        0.002   0.038   0.000   0.040
   71        0.002   0.029   0.000   0.031
   72        0.002   0.024   0.000   0.026
   73        0.003   0.053   0.000   0.055
   74        0.002   0.022   0.000   0.024
   75        0.002   0.045   0.000   0.047
   76        0.001   0.002   0.000   0.004
   77        0.002   0.026   0.000   0.028
   78        0.002   0.035   0.000   0.036
   79        0.002   0.039   0.000   0.041
   80        0.002   0.042   0.000   0.044
   81        0.002   0.056   0.000   0.059
   82        0.003   0.044   0.000   0.046
   83        0.001   0.021   0.000   0.022
   84        0.002   0.020   0.000   0.022
   85        0.002   0.021   0.000   0.023
   86        0.002   0.015   0.000   0.017
   87        0.002   0.045   0.000   0.048
   88        0.002   0.036   0.000   0.038
--------------------------------------------------
tot          0.419   2.081  44.076  46.576
 

 total amount of memory used by VASP MPI-rank0    94437. kBytes
=======================================================================

   base      :      30000. kBytes
   nonlr-proj:      13678. kBytes
   fftplans  :       1275. kBytes
   grid      :      22786. kBytes
   one-center:       2737. kBytes
   wavefun   :      23961. kBytes
 
  
  
 General timing and accounting informations for this job:
 ========================================================
  
                  Total CPU time used (sec):     5001.404
                            User time (sec):     4959.458
                          System time (sec):       41.946
                         Elapsed time (sec):     5107.568
  
                   Maximum memory used (kb):      195092.
                   Average memory used (kb):           0.
  
                          Minor page faults:      1458600
                          Major page faults:            0
                 Voluntary context switches:      1821447
