 vasp.5.4.4.18Apr17-6-g9f103f2a35 (build Dec 02 2020 12:53:39) complex          
  
 executed on             LinuxIFC date 2021.08.03  14:42:05
 running on   96 total cores
 distrk:  each k-point on   96 cores,    1 groups
 distr:  one band on NCORES_PER_BAND=   1 cores,   96 groups


--------------------------------------------------------------------------------------------------------


 INCAR:
 POTCAR:    PAW_PBE Na_pv 19Sep2006               
 POTCAR:    PAW_PBE Mg_pv 13Apr2007               
 POTCAR:    PAW_PBE Mn_pv 02Aug2007               
 POTCAR:    PAW_PBE O 08Apr2002                   

 ----------------------------------------------------------------------------- 
|                                                                             |
|           W    W    AA    RRRRR   N    N  II  N    N   GGGG   !!!           |
|           W    W   A  A   R    R  NN   N  II  NN   N  G    G  !!!           |
|           W    W  A    A  R    R  N N  N  II  N N  N  G       !!!           |
|           W WW W  AAAAAA  RRRRR   N  N N  II  N  N N  G  GGG   !            |
|           WW  WW  A    A  R   R   N   NN  II  N   NN  G    G                |
|           W    W  A    A  R    R  N    N  II  N    N   GGGG   !!!           |
|                                                                             |
|      For optimal performance we recommend to set                            |
|        NCORE= 4 - approx SQRT( number of cores)                             |
|      NCORE specifies how many cores store one orbital (NPAR=cpu/NCORE).     |
|      This setting can  greatly improve the performance of VASP for DFT.     |
|      The default,   NCORE=1            might be grossly inefficient         |
|      on modern multi-core architectures or massively parallel machines.     |
|      Do your own testing !!!!                                               |
|      Unfortunately you need to use the default for GW and RPA calculations. |
|      (for HF NCORE is supported but not extensively tested yet)             |
|                                                                             |
 ----------------------------------------------------------------------------- 

 POTCAR:    PAW_PBE Na_pv 19Sep2006               
   VRHFIN =Na: p6s1                                                             
   LEXCH  = PE                                                                  
   EATOM  =   766.0439 eV,   56.3026 Ry                                         
                                                                                
   TITEL  = PAW_PBE Na_pv 19Sep2006                                             
   LULTRA =        F    use ultrasoft PP ?                                      
   IUNSCR =        1    unscreen: 0-lin 1-nonlin 2-no                           
   RPACOR =    1.800    partial core radius                                     
   POMASS =   22.990; ZVAL   =    7.000    mass and valenz                      
   RCORE  =    2.200    outmost cutoff radius                                   
   RWIGS  =    2.200; RWIGS  =    1.164    wigner-seitz radius (au A)           
   ENMAX  =  259.561; ENMIN  =  194.671 eV                                      
   ICORE  =        2    local potential                                         
   LCOR   =        T    correct aug charges                                     
   LPAW   =        T    paw PP                                                  
   EAUG   =  368.056                                                            
   DEXC   =    0.000                                                            
   RMAX   =    2.245    core radius for proj-oper                               
   RAUG   =    1.300    factor for augmentation sphere                          
   RDEP   =    2.259    radius for radial grids                                 
   RDEPT  =    1.738    core radius for aug-charge                              
                                                                                
   Atomic configuration                                                         
    5 entries                                                                   
     n  l   j            E        occ.                                          
     1  0  0.50     -1033.6933   2.0000                                         
     2  0  0.50       -56.7526   2.0000                                         
     2  1  1.50       -28.6721   6.0000                                         
     3  0  0.50        -2.7440   1.0000                                         
     3  2  1.50        -1.3606   0.0000                                         
   Description                                                                  
     l       E           TYP  RCUT    TYP  RCUT                                 
     1    -28.6720912     23  2.000                                             
     1      6.8029130     23  2.000                                             
     0     -2.7439560     23  2.200                                             
     0     34.0145650     23  2.200                                             
     2     -1.3605826     23  2.200                                             
  local pseudopotential read in
  partial core-charges read in
  partial kinetic energy density read in
  atomic valenz-charges read in
  non local Contribution for L=           1  read in
    real space projection operators read in
  non local Contribution for L=           1  read in
    real space projection operators read in
  non local Contribution for L=           0  read in
    real space projection operators read in
  non local Contribution for L=           0  read in
    real space projection operators read in
    PAW grid and wavefunctions read in
 
   number of l-projection  operators is LMAX  =           4
   number of lm-projection operators is LMMAX =           8
 
 POTCAR:    PAW_PBE Mg_pv 13Apr2007               
   VRHFIN =Mg: p6s2                                                             
   LEXCH  = PE                                                                  
   EATOM  =  1056.7344 eV,   77.6678 Ry                                         
                                                                                
   TITEL  = PAW_PBE Mg_pv 13Apr2007                                             
   LULTRA =        F    use ultrasoft PP ?                                      
   IUNSCR =        1    unscreen: 0-lin 1-nonlin 2-no                           
   RPACOR =    1.500    partial core radius                                     
   POMASS =   24.305; ZVAL   =    8.000    mass and valenz                      
   RCORE  =    2.000    outmost cutoff radius                                   
   RWIGS  =    2.000; RWIGS  =    1.058    wigner-seitz radius (au A)           
   ENMAX  =  403.929; ENMIN  =  302.947 eV                                      
   RCLOC  =    1.506    cutoff for local pot                                    
   LCOR   =        T    correct aug charges                                     
   LPAW   =        T    paw PP                                                  
   EAUG   =  758.780                                                            
   DEXC   =    0.000                                                            
   RMAX   =    2.045    core radius for proj-oper                               
   RAUG   =    1.300    factor for augmentation sphere                          
   RDEP   =    2.025    radius for radial grids                                 
   RDEPT  =    1.557    core radius for aug-charge                              
                                                                                
   Atomic configuration                                                         
    5 entries                                                                   
     n  l   j            E        occ.                                          
     1  0  0.50     -1259.6230   2.0000                                         
     2  0  0.50       -79.8442   2.0000                                         
     2  1  1.50       -46.6121   6.0000                                         
     3  0  0.50        -4.7055   2.0000                                         
     3  2  1.50        -1.3606   0.0000                                         
   Description                                                                  
     l       E           TYP  RCUT    TYP  RCUT                                 
     1    -46.6121073     23  1.600                                             
     1      2.7211652     23  1.600                                             
     0     -4.7054661     23  2.000                                             
     0     61.2262170     23  2.000                                             
     2     -1.3605826     23  2.000                                             
  local pseudopotential read in
  partial core-charges read in
  partial kinetic energy density read in
  atomic valenz-charges read in
  non local Contribution for L=           1  read in
    real space projection operators read in
  non local Contribution for L=           1  read in
    real space projection operators read in
  non local Contribution for L=           0  read in
    real space projection operators read in
  non local Contribution for L=           0  read in
    real space projection operators read in
  non local Contribution for L=           2  read in
    real space projection operators read in
    PAW grid and wavefunctions read in
 
   number of l-projection  operators is LMAX  =           5
   number of lm-projection operators is LMMAX =          13
 
 POTCAR:    PAW_PBE Mn_pv 02Aug2007               
   VRHFIN =Mn: 3p4s3d                                                           
   LEXCH  = PE                                                                  
   EATOM  =  2025.2664 eV,  148.8529 Ry                                         
                                                                                
   TITEL  = PAW_PBE Mn_pv 02Aug2007                                             
   LULTRA =        F    use ultrasoft PP ?                                      
   IUNSCR =        1    unscreen: 0-lin 1-nonlin 2-no                           
   RPACOR =    2.080    partial core radius                                     
   POMASS =   54.938; ZVAL   =   13.000    mass and valenz                      
   RCORE  =    2.300    outmost cutoff radius                                   
   RWIGS  =    2.500; RWIGS  =    1.323    wigner-seitz radius (au A)           
   ENMAX  =  269.864; ENMIN  =  202.398 eV                                      
   ICORE  =        3    local potential                                         
   LCOR   =        T    correct aug charges                                     
   LPAW   =        T    paw PP                                                  
   EAUG   =  569.085                                                            
   DEXC   =    0.000                                                            
   RMAX   =    2.343    core radius for proj-oper                               
   RAUG   =    1.300    factor for augmentation sphere                          
   RDEP   =    2.338    radius for radial grids                                 
   RDEPT  =    1.798    core radius for aug-charge                              
                                                                                
   Atomic configuration                                                         
    8 entries                                                                   
     n  l   j            E        occ.                                          
     1  0  0.50     -6424.8287   2.0000                                         
     2  0  0.50      -739.1154   2.0000                                         
     2  1  1.50      -625.3949   6.0000                                         
     3  0  0.50       -81.6100   2.0000                                         
     3  1  1.50       -50.4667   6.0000                                         
     3  2  2.50        -3.3745   6.0000                                         
     4  0  0.50        -4.1331   1.0000                                         
     4  3  2.50        -1.3606   0.0000                                         
   Description                                                                  
     l       E           TYP  RCUT    TYP  RCUT                                 
     1    -50.4666628     23  2.000                                             
     1     -1.3605826     23  2.000                                             
     2     -3.3744729     23  2.300                                             
     2     -4.7350555     23  2.300                                             
     0     -4.1331431     23  2.300                                             
     0      7.6656591     23  2.300                                             
     3      9.5240782     23  2.300                                             
  local pseudopotential read in
  partial core-charges read in
  partial kinetic energy density read in
  atomic valenz-charges read in
  non local Contribution for L=           1  read in
    real space projection operators read in
  non local Contribution for L=           1  read in
    real space projection operators read in
  non local Contribution for L=           2  read in
    real space projection operators read in
  non local Contribution for L=           2  read in
    real space projection operators read in
  non local Contribution for L=           0  read in
    real space projection operators read in
  non local Contribution for L=           0  read in
    real space projection operators read in
    PAW grid and wavefunctions read in
 
   number of l-projection  operators is LMAX  =           6
   number of lm-projection operators is LMMAX =          18
 
 POTCAR:    PAW_PBE O 08Apr2002                   
   VRHFIN =O: s2p4                                                              
   LEXCH  = PE                                                                  
   EATOM  =   432.3788 eV,   31.7789 Ry                                         
                                                                                
   TITEL  = PAW_PBE O 08Apr2002                                                 
   LULTRA =        F    use ultrasoft PP ?                                      
   IUNSCR =        1    unscreen: 0-lin 1-nonlin 2-no                           
   RPACOR =    1.200    partial core radius                                     
   POMASS =   16.000; ZVAL   =    6.000    mass and valenz                      
   RCORE  =    1.520    outmost cutoff radius                                   
   RWIGS  =    1.550; RWIGS  =    0.820    wigner-seitz radius (au A)           
   ENMAX  =  400.000; ENMIN  =  300.000 eV                                      
   ICORE  =        2    local potential                                         
   LCOR   =        T    correct aug charges                                     
   LPAW   =        T    paw PP                                                  
   EAUG   =  605.392                                                            
   DEXC   =    0.000                                                            
   RMAX   =    1.553    core radius for proj-oper                               
   RAUG   =    1.300    factor for augmentation sphere                          
   RDEP   =    1.550    radius for radial grids                                 
   RDEPT  =    1.329    core radius for aug-charge                              
                                                                                
   Atomic configuration                                                         
    4 entries                                                                   
     n  l   j            E        occ.                                          
     1  0  0.50      -514.6923   2.0000                                         
     2  0  0.50       -23.9615   2.0000                                         
     2  1  0.50        -9.0305   4.0000                                         
     3  2  1.50        -9.5241   0.0000                                         
   Description                                                                  
     l       E           TYP  RCUT    TYP  RCUT                                 
     0    -23.9615318     23  1.200                                             
     0     -9.5240782     23  1.200                                             
     1     -9.0304911     23  1.520                                             
     1      8.1634956     23  1.520                                             
     2     -9.5240782      7  1.500                                             
  local pseudopotential read in
  partial core-charges read in
  partial kinetic energy density read in
  kinetic energy density of atom read in
  atomic valenz-charges read in
  non local Contribution for L=           0  read in
    real space projection operators read in
  non local Contribution for L=           0  read in
    real space projection operators read in
  non local Contribution for L=           1  read in
    real space projection operators read in
  non local Contribution for L=           1  read in
    real space projection operators read in
    PAW grid and wavefunctions read in
 
   number of l-projection  operators is LMAX  =           4
   number of lm-projection operators is LMMAX =           8
 
 Optimization of the real space projectors (new method)

 maximal supplied QI-value         = 17.01
 optimisation between [QCUT,QGAM] = [ 10.20, 20.41] = [ 29.16,116.64] Ry 
 Optimized for a Real-space Cutoff    1.30 Angstroem

   l    n(q)    QCUT    max X(q) W(low)/X(q) W(high)/X(q)  e(spline) 
   1      7    10.205     4.940    0.23E-03    0.84E-03    0.11E-06
   1      7    10.205     6.253    0.40E-03    0.13E-02    0.18E-06
   0      8    10.205    37.438    0.23E-03    0.37E-03    0.42E-07
   0      8    10.205     9.606    0.16E-03    0.26E-03    0.31E-07
 Optimization of the real space projectors (new method)

 maximal supplied QI-value         = 18.90
 optimisation between [QCUT,QGAM] = [ 10.20, 20.41] = [ 29.16,116.64] Ry 
 Optimized for a Real-space Cutoff    1.26 Angstroem

   l    n(q)    QCUT    max X(q) W(low)/X(q) W(high)/X(q)  e(spline) 
   1      7    10.205     2.974    0.63E-04    0.14E-03    0.13E-06
   1      7    10.205     4.279    0.11E-03    0.45E-03    0.24E-06
   0      8    10.205    16.381    0.44E-03    0.15E-03    0.55E-07
   0      8    10.205     5.611    0.31E-03    0.11E-03    0.40E-07
   2      7    10.205     4.652    0.50E-03    0.47E-03    0.57E-07
 Optimization of the real space projectors (new method)

 maximal supplied QI-value         = 16.25
 optimisation between [QCUT,QGAM] = [ 10.24, 20.48] = [ 29.35,117.42] Ry 
 Optimized for a Real-space Cutoff    1.34 Angstroem

   l    n(q)    QCUT    max X(q) W(low)/X(q) W(high)/X(q)  e(spline) 
   1      8    10.239     3.658    0.23E-03    0.30E-03    0.98E-07
   1      8    10.239     5.612    0.32E-03    0.65E-03    0.21E-06
   2      7    10.239    55.373    0.42E-03    0.45E-03    0.65E-07
   2      7    10.239    50.863    0.43E-03    0.48E-03    0.67E-07
   0      8    10.239    79.536    0.11E-03    0.21E-03    0.56E-07
   0      8    10.239    38.668    0.96E-04    0.19E-03    0.52E-07
 Optimization of the real space projectors (new method)

 maximal supplied QI-value         = 24.76
 optimisation between [QCUT,QGAM] = [ 10.15, 20.30] = [ 28.85,115.39] Ry 
 Optimized for a Real-space Cutoff    1.38 Angstroem

   l    n(q)    QCUT    max X(q) W(low)/X(q) W(high)/X(q)  e(spline) 
   0      8    10.150    20.381    0.22E-03    0.32E-03    0.29E-06
   0      8    10.150    15.268    0.23E-03    0.35E-03    0.30E-06
   1      8    10.150     5.964    0.46E-03    0.53E-03    0.21E-06
   1      8    10.150     5.382    0.38E-03    0.45E-03    0.19E-06
  PAW_PBE Na_pv 19Sep2006               :
 energy of atom  1       EATOM= -766.0439
 kinetic energy error for atom=    0.0103 (will be added to EATOM!!)
  PAW_PBE Mg_pv 13Apr2007               :
 energy of atom  2       EATOM=-1056.7344
 kinetic energy error for atom=    0.0820 (will be added to EATOM!!)
  PAW_PBE Mn_pv 02Aug2007               :
 energy of atom  3       EATOM=-2025.2664
 kinetic energy error for atom=    0.0284 (will be added to EATOM!!)
  PAW_PBE O 08Apr2002                   :
 energy of atom  4       EATOM= -432.3788
 kinetic energy error for atom=    0.1156 (will be added to EATOM!!)
 
 
 POSCAR: Na Mg Mn  O                             
  positions in cartesian coordinates
  No initial velocities read in

 METAGGA = SCAN     LMAXTAU =  6    LMIXTAU =  F

 exchange correlation table for  LEXCH =        8
   RHO(1)=    0.500       N(1)  =     2000
   RHO(2)=  100.500       N(2)  =     4000

 VTST: version 3.2, (02/03/18)

 CHAIN: initializing optimizer
 
 OPT: Using VASP Dynamics algorithm
 CHAIN: Read ICHAIN            0
 
 POSCAR: Na Mg Mn  O                             
  positions in cartesian coordinates
  No initial velocities read in
 


--------------------------------------------------------------------------------------------------------


 ion  position               nearest neighbor table
   1  0.528  0.639  0.265-  74 2.17  88 2.30  87 2.36
   2  0.451  0.437  0.750-  85 2.30  45 2.33  48 2.37  33 2.89  35 2.93
   3  0.218  0.629  0.752-  84 2.21  81 2.30
   4  0.317  0.111  0.744-  44 2.31  45 2.35  28 2.84  26 2.96
   5  0.051  0.435  0.243-  77 2.16  55 2.18  86 2.31  64 2.33  37 2.89
   6  0.307  0.287  0.264-  87 2.18  52 2.31
   7  0.788  0.436  0.744-  71 2.38
   8  0.769  0.904  0.749-  59 2.31  69 2.35
   9  0.015  0.939  0.247-  67 2.24  41 2.27  76 2.36  25 2.78
  10  0.331  0.788  0.254-  88 2.30  79 2.32  51 2.38
  11  0.539  0.159  0.236-  43 2.30  53 2.32  52 2.38
  12  0.002  0.808  0.752-  44 2.34  72 2.34  47 2.35
  13  0.997  0.266  0.764-  58 2.24  61 2.28  83 2.33
  14  0.542  0.020  0.742-  46 2.18  49 2.24  56 2.35  59 2.35  31 2.84  29 2.95
  15  0.783  0.080  0.248-  54 2.30  63 2.33  53 2.33  62 2.33  30 2.85  32 2.90
  16  0.802  0.581  0.255-  74 2.30  75 2.35  66 2.38  36 2.88
  17  0.649  0.285  0.994-  43 2.02  60 2.04  66 2.05  49 2.12  71 2.15  53 2.16  34 2.84
  18  0.650  0.273  0.496-  75 2.01  46 2.04  62 2.06  52 2.06  68 2.09  57 2.12  32 2.85
  19  0.141  0.274  0.011-  41 1.99  83 2.04  55 2.05  61 2.12  48 2.17  78 2.24  25 2.83
  20  0.154  0.281  0.498-  80 1.97  50 2.03  45 2.07  87 2.15  64 2.17  58 2.25  35 2.83  40 2.85

  21  0.152  0.776  0.007-  77 2.06  47 2.07  84 2.08  73 2.08  42 2.09  67 2.17  38 2.84  29 2.85

  22  0.138  0.766  0.490-  86 1.98  76 2.01  70 2.02  51 2.03  81 2.12  44 2.15  39 2.78  36 2.84

  23  0.647  0.774  0.997-  54 2.05  79 2.07  72 2.08  65 2.12  85 2.13  59 2.13  33 2.82  29 2.84

  24  0.665  0.781  0.493-  69 1.97  74 2.02  56 2.05  88 2.08  63 2.08  82 2.14  27 2.72  36 2.78

  25  0.987  0.948  0.001-  41 1.89  61 1.89  47 1.92  67 1.94  72 1.97  54 1.99   9 2.78  19 2.83
                            26 2.84  34 2.92  30 2.97
  26  0.315  0.114  0.007-  48 1.86  43 1.89  41 1.89  47 1.91  42 1.95  49 2.01  25 2.84  33 2.90
                             4 2.96  29 3.00
  27  0.977  0.948  0.515-  63 1.90  69 1.94  58 1.97  76 1.98  44 1.98  50 2.03  24 2.72  32 2.82
                            36 2.94  28 2.98
  28  0.318  0.103  0.491-  51 1.83  50 1.86  46 1.88  44 1.93  45 1.99  52 2.02  31 2.82   4 2.84
                            35 2.97  27 2.98
  29  0.481  0.935  0.996-  84 1.83  53 1.90  49 1.91  59 1.93  42 1.97  79 2.00  38 2.83  23 2.84
                            21 2.85  30 2.87  14 2.95  26 3.00
  30  0.811  0.113  0.995-  53 1.81  59 1.85  55 1.91  61 1.91  60 1.91  54 1.98  15 2.85  29 2.87
                            37 2.87  25 2.97
  31  0.478  0.938  0.498-  81 1.83  56 1.86  62 1.87  88 1.93  46 1.93  51 2.00  28 2.82  14 2.84
                            40 2.85  32 2.98
  32  0.822  0.116  0.504-  64 1.85  62 1.91  56 1.95  58 1.96  57 1.96  63 1.98  27 2.82  18 2.85
                            39 2.87  15 2.90  31 2.98
  33  0.484  0.449  0.005-  65 1.85  78 1.85  85 1.86  43 1.92  71 1.93  48 1.99  23 2.82  38 2.88
                             2 2.89  34 2.90  26 2.90
  34  0.818  0.611  0.990-  72 1.89  65 1.90  71 1.91  66 1.91  67 1.93  73 1.95  17 2.84  37 2.87
                            33 2.90  25 2.92
  35  0.480  0.445  0.490-  68 1.86  74 1.92  87 1.93  82 1.93  45 1.96  52 1.98  40 2.80  20 2.83
                            36 2.89   2 2.93  28 2.97
  36  0.812  0.609  0.511-  69 1.87  75 1.88  68 1.93  74 1.94  76 1.94  70 1.96  24 2.78  22 2.84
                            16 2.88  39 2.89  35 2.89  27 2.94
  37  0.980  0.444  0.994-  66 1.87  73 1.89  83 1.89  77 1.90  60 1.93  55 1.94  34 2.87  30 2.87
                            38 2.89   5 2.89
  38  0.313  0.609  0.006-  79 1.87  77 1.90  78 1.92  85 1.93  83 1.99  84 2.00  29 2.83  21 2.84
                            33 2.88  37 2.89
  39  0.983  0.447  0.509-  75 1.85  64 1.86  80 1.87  86 1.90  57 1.96  70 2.02  22 2.78  32 2.87
                            36 2.89  40 2.94
  40  0.321  0.609  0.491-  82 1.82  88 1.89  87 1.89  80 1.95  86 1.95  81 1.99  35 2.80  20 2.85
                            31 2.85  39 2.94
  41  0.146  0.101  0.095-  25 1.89  26 1.89  19 1.99   9 2.27
  42  0.334  0.958  0.099-  26 1.95  29 1.97  21 2.09
  43  0.476  0.280  0.091-  26 1.89  33 1.92  17 2.02  11 2.30
  44  0.157  0.956  0.594-  28 1.93  27 1.98  22 2.15   4 2.31  12 2.34
  45  0.330  0.274  0.589-  35 1.96  28 1.99  20 2.07   2 2.33   4 2.35
  46  0.471  0.099  0.587-  28 1.88  31 1.93  18 2.04  14 2.18
  47  0.156  0.956  0.913-  26 1.91  25 1.92  21 2.07  12 2.35
  48  0.325  0.270  0.912-  26 1.86  33 1.99  19 2.17   2 2.37
  49  0.468  0.092  0.907-  29 1.91  26 2.01  17 2.12  14 2.24
  50  0.155  0.103  0.413-  28 1.86  20 2.03  27 2.03
  51  0.313  0.946  0.403-  28 1.83  31 2.00  22 2.03  10 2.38
  52  0.481  0.279  0.395-  35 1.98  28 2.02  18 2.06   6 2.31  11 2.38
  53  0.649  0.093  0.082-  30 1.81  29 1.90  17 2.16  11 2.32  15 2.33
  54  0.819  0.952  0.092-  30 1.98  25 1.99  23 2.05  15 2.30
  55  0.959  0.275  0.094-  30 1.91  37 1.94  19 2.05   5 2.18
  56  0.643  0.947  0.582-  31 1.86  32 1.95  24 2.05  14 2.35
  57  0.826  0.278  0.605-  39 1.96  32 1.96  18 2.12
  58  0.965  0.104  0.614-  32 1.96  27 1.97  13 2.24  20 2.25
  59  0.655  0.963  0.903-  30 1.85  29 1.93  23 2.13   8 2.31  14 2.35
  60  0.821  0.278  0.903-  30 1.91  37 1.93  17 2.04
  61  0.965  0.093  0.909-  25 1.89  30 1.91  19 2.12  13 2.28
  62  0.647  0.088  0.414-  31 1.87  32 1.91  18 2.06  15 2.33
  63  0.844  0.966  0.403-  27 1.90  32 1.98  24 2.08  15 2.33
  64  0.961  0.285  0.415-  32 1.85  39 1.86  20 2.17   5 2.33
  65  0.655  0.592  0.088-  33 1.85  34 1.90  23 2.12
  66  0.831  0.459  0.083-  37 1.87  34 1.91  17 2.05  16 2.38
  67  0.958  0.773  0.096-  34 1.93  25 1.94  21 2.17   9 2.24
  68  0.631  0.445  0.586-  35 1.86  36 1.93  18 2.09
  69  0.816  0.770  0.598-  36 1.87  27 1.94  24 1.97   8 2.35
  70  0.980  0.616  0.605-  36 1.96  22 2.02  39 2.02
  71  0.644  0.468  0.899-  34 1.91  33 1.93  17 2.15   7 2.38
  72  0.829  0.779  0.904-  34 1.89  25 1.97  23 2.08  12 2.34
  73  0.982  0.603  0.903-  37 1.89  34 1.95  21 2.08
  74  0.656  0.600  0.405-  35 1.92  36 1.94  24 2.02   1 2.17  16 2.30
  75  0.831  0.459  0.424-  39 1.85  36 1.88  18 2.01  16 2.35
  76  0.962  0.779  0.415-  36 1.94  27 1.98  22 2.01   9 2.36
  77  0.141  0.590  0.093-  37 1.90  38 1.90  21 2.06   5 2.16
  78  0.344  0.469  0.101-  33 1.85  38 1.92  19 2.24
  79  0.469  0.765  0.097-  38 1.87  29 2.00  23 2.07  10 2.32
  80  0.152  0.451  0.584-  39 1.87  40 1.95  20 1.97
  81  0.327  0.780  0.585-  31 1.83  40 1.99  22 2.12   3 2.30
  82  0.468  0.601  0.582-  40 1.82  35 1.93  24 2.14
  83  0.144  0.444  0.909-  37 1.89  38 1.99  19 2.04  13 2.33
  84  0.329  0.783  0.906-  29 1.83  38 2.00  21 2.08   3 2.21
  85  0.459  0.585  0.909-  33 1.86  38 1.93  23 2.13   2 2.30
  86  0.142  0.593  0.409-  39 1.90  40 1.95  22 1.98   5 2.31
  87  0.331  0.461  0.392-  40 1.89  35 1.93  20 2.15   6 2.18   1 2.36
  88  0.479  0.776  0.406-  40 1.89  31 1.93  24 2.08   1 2.30  10 2.30
 
  LATTYP: Found a hexagonal cell.
 ALAT       =    10.0190000534
 C/A-ratio  =     1.1196726572
  
  Lattice vectors:
  
 A1 = (  10.0190000534,   0.0000000000,   0.0000000000)
 A2 = (  -5.0095000267,   8.6767085668,   0.0000000000)
 A3 = (   0.0000000000,   0.0000000000,  11.2180004120)


Analysis of symmetry for initial positions (statically):
=====================================================================
 Subroutine PRICEL returns:
 Original cell was already a primitive cell.
 

 Routine SETGRP: Setting up the symmetry group for a 
 hexagonal supercell.


 Subroutine GETGRP returns: Found  1 space group operations
 (whereof  1 operations were pure point group operations)
 out of a pool of 24 trial point group operations.


The static configuration has the point symmetry C_1 .


Analysis of symmetry for dynamics (positions and initial velocities):
=====================================================================
 Subroutine PRICEL returns:
 Original cell was already a primitive cell.
 

 Routine SETGRP: Setting up the symmetry group for a 
 hexagonal supercell.


 Subroutine GETGRP returns: Found  1 space group operations
 (whereof  1 operations were pure point group operations)
 out of a pool of 24 trial point group operations.


The dynamic configuration has the point symmetry C_1 .


Analysis of structural, dynamic, and magnetic symmetry:
=====================================================================
 Subroutine PRICEL returns:
 Original cell was already a primitive cell.
 

 Routine SETGRP: Setting up the symmetry group for a 
 hexagonal supercell.


 Subroutine GETGRP returns: Found  1 space group operations
 (whereof  1 operations were pure point group operations)
 out of a pool of 24 trial point group operations.


The magnetic configuration has the point symmetry C_1 .


 Subroutine INISYM returns: Found  1 space group operations
 (whereof  1 operations are pure point group operations),
 and found     1 'primitive' translations

 
 

Automatic generation of k-mesh.
 generate k-points for:    2    2    2
Space group operators:
 irot       det(A)        alpha          n_x          n_y          n_z        tau_x        tau_y        tau_z
    1     1.000000     0.000000     1.000000     0.000000     0.000000     0.000000     0.000000     0.000000
 
 Subroutine IBZKPT returns following result:
 ===========================================
 
 Found      8 irreducible k-points:
 
 Following reciprocal coordinates:
            Coordinates               Weight
  0.000000  0.000000  0.000000      1.000000
  0.500000 -0.000000 -0.000000      1.000000
  0.000000  0.500000  0.000000      1.000000
  0.500000  0.500000 -0.000000      1.000000
  0.000000  0.000000  0.500000      1.000000
  0.500000 -0.000000  0.500000      1.000000
  0.000000  0.500000  0.500000      1.000000
  0.500000  0.500000  0.500000      1.000000
 
 Following cartesian coordinates:
            Coordinates               Weight
  0.000000  0.000000  0.000000      1.000000
  0.049905  0.028813 -0.000000      1.000000
  0.000000  0.057626  0.000000      1.000000
  0.049905  0.086438 -0.000000      1.000000
  0.000000  0.000000  0.044571      1.000000
  0.049905  0.028813  0.044571      1.000000
  0.000000  0.057626  0.044571      1.000000
  0.049905  0.086438  0.044571      1.000000
 


--------------------------------------------------------------------------------------------------------




 Dimension of arrays:
   k-points           NKPTS =      8   k-points in BZ     NKDIM =      8   number of bands    NBANDS=    480
   number of dos      NEDOS =    301   number of ions     NIONS =     88
   non local maximal  LDIM  =      6   non local SUM 2l+1 LMDIM =     18
   total plane-waves  NPLWV = 140000
   max r-space proj   IRMAX =   1632   max aug-charges    IRDMAX=   4555
   dimension x,y,z NGX =    50 NGY =   50 NGZ =   56
   dimension x,y,z NGXF=   100 NGYF=  100 NGZF=  112
   support grid    NGXF=   100 NGYF=  100 NGZF=  112
   ions per type =              16   8  16  48
   NGX,Y,Z   is equivalent  to a cutoff of   8.30,  8.30,  8.30 a.u.
   NGXF,Y,Z  is equivalent  to a cutoff of  16.59, 16.59, 16.60 a.u.

 SYSTEM =  unknown system                          
 POSCAR =  Na Mg Mn  O                             

 Startparameter for this run:
   NWRITE =      2    write-flag & timer
   PREC   = normal    normal or accurate (medium, high low for compatibility)
   ISTART =      0    job   : 0-new  1-cont  2-samecut
   ICHARG =      1    charge: 1-file 2-atom 10-const
   ISPIN  =      2    spin polarized calculation?
   LNONCOLLINEAR =      F non collinear calculations
   LSORBIT =      F    spin-orbit coupling
   INIWAV =      1    electr: 0-lowe 1-rand  2-diag
   LASPH  =      T    aspherical Exc in radial PAW
   METAGGA=      F    non-selfconsistent MetaGGA calc.

 Electronic Relaxation 1
   ENCUT  =  400.0 eV  29.40 Ry    5.42 a.u.  16.34 16.34 18.29*2*pi/ulx,y,z
   ENINI  =  400.0     initial cutoff
   ENAUG  =  758.8 eV  augmentation charge cutoff
   NELM   =    200;   NELMIN=  6; NELMDL=-12     # of ELM steps 
   EDIFF  = 0.1E-04   stopping-criterion for ELM
   LREAL  =      T    real-space projection
   NLSPLINE    = F    spline interpolate recip. space projectors
   LCOMPAT=      F    compatible to vasp.4.4
   GGA_COMPAT  = T    GGA compatible to vasp.4.4-vasp.4.6
   LMAXPAW     = -100 max onsite density
   LMAXMIX     =    4 max onsite mixed and CHGCAR
   VOSKOWN=      0    Vosko Wilk Nusair interpolation
   ROPT   =   -0.00050  -0.00050  -0.00050  -0.00050
 Ionic relaxation
   EDIFFG = 0.1E-03   stopping-criterion for IOM
   NSW    =      1    number of steps for IOM
   NBLOCK =      1;   KBLOCK =      1    inner block; outer block 
   IBRION =     -1    ionic relax: 0-MD 1-quasi-New 2-CG
   NFREE  =      0    steps in history (QN), initial steepest desc. (CG)
   ISIF   =      2    stress and relaxation
   IWAVPR =     10    prediction:  0-non 1-charg 2-wave 3-comb
   ISYM   =      2    0-nonsym 1-usesym 2-fastsym
   LCORR  =      T    Harris-Foulkes like correction to forces

   POTIM  = 0.5000    time-step for ionic-motion
   TEIN   =    0.0    initial temperature
   TEBEG  =    0.0;   TEEND  =   0.0 temperature during run
   SMASS  =  -3.00    Nose mass-parameter (am)
   estimated Nose-frequenzy (Omega)   =  0.10E-29 period in steps =****** mass=  -0.229E-26a.u.
   SCALEE = 1.0000    scale energy and forces
   NPACO  =    256;   APACO  = 16.0  distance and # of slots for P.C.
   PSTRESS=    0.0 pullay stress

  Mass of Ions in am
   POMASS =  22.99 24.30 54.94 16.00
  Ionic Valenz
   ZVAL   =   7.00  8.00 13.00  6.00
  Atomic Wigner-Seitz radii
   RWIGS  =  -1.00 -1.00 -1.00 -1.00
  virtual crystal weights 
   VCA    =   1.00  1.00  1.00  1.00
   NELECT =     672.0000    total number of electrons
   NUPDOWN=      48.0000    fix difference up-down

 DOS related values:
   EMIN   =  10.00;   EMAX   =-10.00  energy-range for DOS
   EFERMI =   0.00
   ISMEAR =     0;   SIGMA  =   0.05  broadening in eV -4-tet -1-fermi 0-gaus

 Electronic relaxation 2 (details)
   IALGO  =     48    algorithm
   LDIAG  =      T    sub-space diagonalisation (order eigenvalues)
   LSUBROT=      F    optimize rotation matrix (better conditioning)
   TURBO    =      0    0=normal 1=particle mesh
   IRESTART =      0    0=no restart 2=restart with 2 vectors
   NREBOOT  =      0    no. of reboots
   NMIN     =      0    reboot dimension
   EREF     =   0.00    reference energy to select bands
   IMIX   =      4    mixing-type and parameters
     AMIX     =   0.40;   BMIX     =  1.00
     AMIX_MAG =   1.60;   BMIX_MAG =  1.00
     AMIN     =   0.10
     WC   =   100.;   INIMIX=   1;  MIXPRE=   1;  MAXMIX= -45

 Intra band minimization:
   WEIMIN = 0.0000     energy-eigenvalue tresh-hold
   EBREAK =  0.52E-08  absolut break condition
   DEPER  =   0.30     relativ break condition  

   TIME   =   0.40     timestep for ELM

  volume/ion in A,a.u.               =      11.08        74.78
  Fermi-wavevector in a.u.,A,eV,Ry     =   1.445993  2.732531 28.448379  2.090897
  Thomas-Fermi vector in A             =   2.564112
 
 Write flags
   LWAVE        =      F    write WAVECAR
   LDOWNSAMPLE  =      F    k-point downsampling of WAVECAR
   LCHARG       =      F    write CHGCAR
   LVTOT        =      F    write LOCPOT, total local potential
   LVHAR        =      F    write LOCPOT, Hartree potential only
   LELF         =      F    write electronic localiz. function (ELF)
   LORBIT       =     11    0 simple, 1 ext, 2 COOP (PROOUT), +10 PAW based schemes


 Dipole corrections
   LMONO  =      F    monopole corrections only (constant potential shift)
   LDIPOL =      F    correct potential (dipole corrections)
   IDIPOL =      0    1-x, 2-y, 3-z, 4-all directions 
   EPSILON=  1.0000000 bulk dielectric constant

 Exchange correlation treatment:
   GGA     =    --    GGA type
   LEXCH   =     8    internal setting for exchange type
   VOSKOWN=      0    Vosko Wilk Nusair interpolation
   LHFCALC =     F    Hartree Fock is set to
   LHFONE  =     F    Hartree Fock one center treatment
   AEXX    =    0.0000 exact exchange contribution

 Linear response parameters
   LEPSILON=     F    determine dielectric tensor
   LRPA    =     F    only Hartree local field effects (RPA)
   LNABLA  =     F    use nabla operator in PAW spheres
   LVEL    =     F    velocity operator in full k-point grid
   LINTERFAST=   F  fast interpolation
   KINTER  =     0    interpolate to denser k-point grid
   CSHIFT  =0.1000    complex shift for real part using Kramers Kronig
   OMEGAMAX=  -1.0    maximum frequency
   DEG_THRESHOLD= 0.2000000E-02 threshold for treating states as degnerate
   RTIME   =   -0.100 relaxation time in fs
  (WPLASMAI=    0.000 imaginary part of plasma frequency in eV, 0.658/RTIME)
   DFIELD  = 0.0000000 0.0000000 0.0000000 field for delta impulse in time
 
 Orbital magnetization related:
   ORBITALMAG=     F  switch on orbital magnetization
   LCHIMAG   =     F  perturbation theory with respect to B field
   DQ        =  0.001000  dq finite difference perturbation B field
   LLRAUG    =     F  two centre corrections for induced B field



--------------------------------------------------------------------------------------------------------


 Static calculation
 charge density and potential will be updated during run
 spin polarized calculation
 RMM-DIIS sequential band-by-band
 perform sub-space diagonalisation
    before iterative eigenvector-optimisation
 modified Broyden-mixing scheme, WC =      100.0
 initial mixing is a Kerker type mixing with AMIX =  0.4000 and BMIX =      1.0000
 Hartree-type preconditioning will be used
 using additional bands          144
 real space projection scheme for non local part
 use partial core corrections
 calculate Harris-corrections to forces 
   (improved forces if not selfconsistent)
 use gradient corrections 
 use of overlap-Matrix (Vanderbilt PP)
 Gauss-broadening in eV      SIGMA  =   0.05


--------------------------------------------------------------------------------------------------------


  energy-cutoff  :      400.00
  volume of cell :      975.20
      direct lattice vectors                 reciprocal lattice vectors
    10.019000053  0.000000000  0.000000000     0.099810360  0.057625538 -0.000000000
    -5.009500027  8.676708567  0.000000000     0.000000000  0.115251076  0.000000000
     0.000000000  0.000000000 11.218000412     0.000000000  0.000000000  0.089142446

  length of vectors
    10.019000053 10.019000053 11.218000412     0.115251076  0.115251076  0.089142446


 
 k-points in units of 2pi/SCALE and weight: read from INCAR                         
   0.00000000  0.00000000  0.00000000       0.125
   0.04990518  0.02881277 -0.00000000       0.125
   0.00000000  0.05762554  0.00000000       0.125
   0.04990518  0.08643831 -0.00000000       0.125
   0.00000000  0.00000000  0.04457122       0.125
   0.04990518  0.02881277  0.04457122       0.125
   0.00000000  0.05762554  0.04457122       0.125
   0.04990518  0.08643831  0.04457122       0.125
 
 k-points in reciprocal lattice and weights: read from INCAR                         
   0.00000000  0.00000000  0.00000000       0.125
   0.50000000 -0.00000000 -0.00000000       0.125
   0.00000000  0.50000000  0.00000000       0.125
   0.50000000  0.50000000 -0.00000000       0.125
   0.00000000  0.00000000  0.50000000       0.125
   0.50000000 -0.00000000  0.50000000       0.125
   0.00000000  0.50000000  0.50000000       0.125
   0.50000000  0.50000000  0.50000000       0.125
 
 position of ions in fractional coordinates (direct lattice) 
   0.52809098  0.63912237  0.26529327
   0.45059548  0.43721451  0.74956139
   0.21797997  0.62897320  0.75183452
   0.31686189  0.11067758  0.74405595
   0.05103295  0.43516501  0.24330004
   0.30712741  0.28721622  0.26401675
   0.78751128  0.43622631  0.74420571
   0.76893591  0.90393230  0.74897305
   0.01453653  0.93913393  0.24706542
   0.33143319  0.78834799  0.25381261
   0.53909375  0.15875441  0.23627473
   0.00248116  0.80797458  0.75247011
   0.99659253  0.26568732  0.76366729
   0.54244744  0.01995819  0.74195665
   0.78349357  0.08001237  0.24772597
   0.80175187  0.58084682  0.25526385
   0.64867707  0.28456643  0.99440944
   0.64950101  0.27287767  0.49614635
   0.14081331  0.27373398  0.01139312
   0.15438786  0.28080925  0.49822872
   0.15219035  0.77629206  0.00707787
   0.13808829  0.76600591  0.48981546
   0.64669404  0.77353180  0.99717963
   0.66486644  0.78072001  0.49265821
   0.98745151  0.94784444  0.00063601
   0.31450190  0.11391048  0.00748931
   0.97694250  0.94768079  0.51529593
   0.31848222  0.10301694  0.49113298
   0.48075360  0.93529360  0.99578353
   0.81086861  0.11310164  0.99548936
   0.47797158  0.93783373  0.49807005
   0.82150459  0.11638976  0.50369761
   0.48363766  0.44866668  0.00549643
   0.81750883  0.61133666  0.98989035
   0.48000839  0.44490949  0.48975395
   0.81234715  0.60940735  0.51087269
   0.98032985  0.44364404  0.99430289
   0.31267947  0.60918722  0.00568381
   0.98319326  0.44697940  0.50909964
   0.32139911  0.60931285  0.49134692
   0.14641143  0.10070628  0.09474683
   0.33358614  0.95821330  0.09867356
   0.47611974  0.27960948  0.09133624
   0.15742264  0.95553199  0.59371989
   0.33049862  0.27411431  0.58873326
   0.47076501  0.09922242  0.58652877
   0.15575525  0.95624551  0.91313956
   0.32502763  0.27039862  0.91239968
   0.46844996  0.09152814  0.90680154
   0.15481213  0.10273135  0.41286324
   0.31301834  0.94649780  0.40344356
   0.48122660  0.27935708  0.39456586
   0.64948392  0.09255203  0.08217427
   0.81921615  0.95162924  0.09174630
   0.95904900  0.27529333  0.09376983
   0.64276682  0.94692100  0.58154393
   0.82580352  0.27811468  0.60455070
   0.96544134  0.10352267  0.61440272
   0.65526524  0.96264148  0.90342304
   0.82070995  0.27787265  0.90250487
   0.96455207  0.09332813  0.90927078
   0.64707713  0.08773246  0.41361471
   0.84390253  0.96555733  0.40345426
   0.96057077  0.28465287  0.41452931
   0.65488325  0.59215196  0.08838001
   0.83098439  0.45861515  0.08337734
   0.95824217  0.77301893  0.09574523
   0.63085912  0.44522758  0.58586644
   0.81627820  0.76976770  0.59834549
   0.97980560  0.61617374  0.60541003
   0.64379125  0.46849678  0.89871632
   0.82940392  0.77912724  0.90389549
   0.98173283  0.60250151  0.90272773
   0.65562962  0.60009046  0.40465322
   0.83122455  0.45873616  0.42407469
   0.96244099  0.77901314  0.41481011
   0.14072498  0.58961644  0.09299964
   0.34400464  0.46865006  0.10146728
   0.46940756  0.76547806  0.09682385
   0.15157445  0.45115149  0.58418967
   0.32666540  0.77977495  0.58541360
   0.46770040  0.60109199  0.58159830
   0.14410131  0.44442659  0.90932427
   0.32932250  0.78250986  0.90624885
   0.45885106  0.58543743  0.90927078
   0.14226414  0.59255304  0.40906755
   0.33072904  0.46145609  0.39208681
   0.47916717  0.77598780  0.40597520
 
 position of ions in cartesian coordinates  (Angst):
   2.08926003  5.54547857  2.97606000
   2.32429005  3.79358287  8.40858000
  -0.96689995  5.45741713  8.43408000
   2.62019995  0.96031713  8.34682000
  -1.66866005  3.77580000  2.72934000
   1.63829987  2.49209143  2.96174000
   5.70479981  3.78500857  8.34850000
   3.17572000  7.84315713  8.40198000
  -4.55894997  8.14859143  2.77158000
  -0.62860011  6.84026573  2.84727000
   4.60590011  1.37746573  2.65053000
  -4.02269000  7.01056000  8.44121000
   8.65389997  2.30529143  8.56682000
   5.33480035  0.17317143  8.32327000
   7.44900011  0.69424400  2.77899000
   5.12299987  5.03983857  2.86355000
   5.07356000  2.46910000 11.15528551
   5.14037000  2.36768000  5.56577000
   0.03953820  2.37511000  0.12780800
   0.14009800  2.43650000  5.58913000
  -2.36404000  6.73566000  0.07939959
  -2.45380000  6.64641000  5.49475000
   2.60422000  6.71171000 11.18636151
   2.75028000  6.77408000  5.52664000
   5.14505000  8.22417000  0.00713471
   2.58036000  0.98836800  0.08401510
   5.04058000  8.22275000  5.78059000
   2.67481000  0.89384800  5.50953000
   0.13131700  8.11527000 11.17070000
   7.55751000  0.98135000 11.16740000
   0.09071920  8.13731000  5.58735000
   7.64760000  1.00988000  5.65048000
   2.59797000  3.89295000  0.06165890
   5.12813000  5.30439000 11.10459041
   2.58043000  3.86035000  5.49406000
   5.08608000  5.28765000  5.73097000
   7.59949000  3.84937000 11.15409021
   0.08101220  5.28574000  0.06376100
   7.61147000  3.87831000  5.71108000
   0.16774500  5.28683000  5.51193000
   0.96240800  0.87379900  1.06287000
  -1.45797003  8.31413757  1.10692000
   3.36954000  2.42609000  1.02461000
  -3.20952003  8.29087257  6.66035000
   1.93809000  2.37841000  6.60441000
   4.21954000  0.86092400  6.57968000
  -3.22980003  8.29706357 10.24360000
   1.90189000  2.34617000 10.23530000
   4.23489000  0.79416300 10.17250000
   1.03643000  0.89137000  4.63150000
  -1.60535003  8.21248557  4.52583000
   3.42197000  2.42390000  4.42624000
   6.04354000  0.80304700  0.92183100
   3.44053997  8.25700957  1.02921000
   8.22963000  2.38864000  1.05191000
   1.69627997  8.21615757  6.52376000
   6.88051000  2.41312000  6.78185000
   9.15416000  0.89823600  6.89237000
   1.74274997  8.35255957 10.13460000
   6.83069000  2.41102000 10.12430000
   9.19632000  0.80978100 10.20020000
   6.04357000  0.76122900  4.63993000
   3.61809997  8.37785957  4.52595000
   8.19799000  2.46985000  4.65019000
   3.59489000  5.13793000  0.99144700
   6.02820000  3.97927000  0.93532700
   5.72819000  6.70726000  1.07407000
   4.09021000  3.86311000  6.57225000
   4.32214000  6.67905000  6.71224000
   6.72995000  5.34636000  6.79149000
   4.10321000  4.06501000 10.08180000
   4.40676000  6.76026000 10.13990000
   6.81775000  5.22773000 10.12680000
   3.56260000  5.20681000  4.53940000
   6.03000000  3.98032000  4.75727000
   5.74023000  6.75927000  4.65334000
  -1.54376000  5.11593000  1.04327000
   1.09888000  4.06634000  1.13826000
   0.86833200  6.64183000  1.08617000
  -0.74141900  3.91451000  6.55344000
  -0.63342200  6.76588000  6.56717000
   1.67472000  5.21550000  6.52437000
  -0.78260400  3.85616000 10.20080000
  -0.62050100  6.78961000 10.16630000
   1.66448000  5.07967000 10.20020000
  -1.54305000  5.14141000  4.58892000
   1.00191000  4.00392000  4.39843000
   0.91346500  6.73302000  4.55423000
 


--------------------------------------------------------------------------------------------------------


 k-point  1 :   0.0000 0.0000 0.0000  plane waves:   17725
 k-point  2 :   0.5000-0.0000-0.0000  plane waves:   17736
 k-point  3 :   0.0000 0.5000 0.0000  plane waves:   17736
 k-point  4 :   0.5000 0.5000-0.0000  plane waves:   17736
 k-point  5 :   0.0000 0.0000 0.5000  plane waves:   17676
 k-point  6 :   0.5000-0.0000 0.5000  plane waves:   17700
 k-point  7 :   0.0000 0.5000 0.5000  plane waves:   17700
 k-point  8 :   0.5000 0.5000 0.5000  plane waves:   17700

 maximum and minimum number of plane-waves per node :     17736    17676

 maximum number of plane-waves:     17736
 maximum index in each direction: 
   IXMAX=   16   IYMAX=   16   IZMAX=   18
   IXMIN=  -16   IYMIN=  -16   IZMIN=  -18


 serial   3D FFT for wavefunctions
 parallel 3D FFT for charge:
    minimum data exchange during FFTs selected (reduces bandwidth)


 total amount of memory used by VASP MPI-rank0    94422. kBytes
=======================================================================

   base      :      30000. kBytes
   nonlr-proj:      13663. kBytes
   fftplans  :       1275. kBytes
   grid      :      22786. kBytes
   one-center:       2737. kBytes
   wavefun   :      23961. kBytes
 
     INWAV:  cpu time    0.0000: real time    0.0001
 Broyden mixing: mesh for mixing (old mesh)
   NGX = 33   NGY = 33   NGZ = 37
  (NGX  =100   NGY  =100   NGZ  =112)
  gives a total of  40293 points

 initial charge density was supplied:
 charge density of overlapping atoms calculated
 number of electron     672.0000000 magnetization      48.0000000
 keeping initial charge density in first step


--------------------------------------------------------------------------------------------------------


 Maximum index for non-local projection operator         1549
 Maximum index for augmentation-charges          556 (set IRDMAX)


--------------------------------------------------------------------------------------------------------


 First call to EWALD:  gamma=   0.179
 Maximum number of real-space cells 3x 3x 2
 Maximum number of reciprocal cells 3x 3x 3

    FEWALD:  cpu time    0.0027: real time    0.0027


--------------------------------------- Iteration      1(   1)  ---------------------------------------


    POTLOK:  cpu time    0.1910: real time    0.1925
    SETDIJ:  cpu time    4.6798: real time    4.6949
    EDDIAG:  cpu time    4.4218: real time    4.8281
  RMM-DIIS:  cpu time    9.0536: real time    9.0578
    ORTHCH:  cpu time    1.1490: real time    1.2300
       DOS:  cpu time    0.0021: real time    0.0021
    --------------------------------------------
      LOOP:  cpu time   19.4973: real time   20.0054

 eigenvalue-minimisations  :  7680
 total energy-change (2. order) : 0.1541372E+04  (-0.3492199E+05)
 number of electron     672.0000000 magnetization      48.0000000
 augmentation part      672.0000000 magnetization      48.0000000

 Free energy of the ion-electron system (eV)
  ---------------------------------------------------
  alpha Z        PSCENC =      2652.81237852
  Ewald energy   TEWEN  =    -41712.59426317
  -Hartree energ DENC   =    -25894.47185485
  -exchange      EXHF   =         0.00000000
  -V(xc)+E(xc)   XCENC  =      3606.59668425
  PAW double counting   =     55594.23204139   -59034.67079123
  entropy T*S    EENTRO =        -0.04868853
  eigenvalues    EBANDS =     -7532.68156698
  atomic energy  EATOM  =     73862.19814772
  Solvation  Ediel_sol  =         0.00000000
  ---------------------------------------------------
  free energy    TOTEN  =      1541.37208711 eV

  energy without entropy =     1541.42077565  energy(sigma->0) =     1541.39643138


--------------------------------------------------------------------------------------------------------




--------------------------------------- Iteration      1(   2)  ---------------------------------------


    EDDIAG:  cpu time    4.3941: real time    4.8077
  RMM-DIIS:  cpu time    9.0623: real time    9.0667
    ORTHCH:  cpu time    1.1673: real time    1.3084
       DOS:  cpu time    0.0018: real time    0.0018
    --------------------------------------------
      LOOP:  cpu time   14.6255: real time   15.1846

 eigenvalue-minimisations  :  7680
 total energy-change (2. order) :-0.2256112E+04  (-0.8005827E+04)
 number of electron     672.0000000 magnetization      48.0000000
 augmentation part      672.0000000 magnetization      48.0000000

 Free energy of the ion-electron system (eV)
  ---------------------------------------------------
  alpha Z        PSCENC =      2652.81237852
  Ewald energy   TEWEN  =    -41712.59426317
  -Hartree energ DENC   =    -25894.47185485
  -exchange      EXHF   =         0.00000000
  -V(xc)+E(xc)   XCENC  =      3606.59668425
  PAW double counting   =     55594.23204139   -59034.67079123
  entropy T*S    EENTRO =        -0.03244385
  eigenvalues    EBANDS =     -9788.81020303
  atomic energy  EATOM  =     73862.19814772
  Solvation  Ediel_sol  =         0.00000000
  ---------------------------------------------------
  free energy    TOTEN  =      -714.74030424 eV

  energy without entropy =     -714.70786040  energy(sigma->0) =     -714.72408232


--------------------------------------------------------------------------------------------------------




--------------------------------------- Iteration      1(   3)  ---------------------------------------


    EDDIAG:  cpu time    4.3676: real time    4.7898
  RMM-DIIS:  cpu time    9.0639: real time    9.0676
    ORTHCH:  cpu time    1.1481: real time    1.2324
       DOS:  cpu time    0.0033: real time    0.0033
    --------------------------------------------
      LOOP:  cpu time   14.5829: real time   15.0930

 eigenvalue-minimisations  :  7680
 total energy-change (2. order) : 0.7339876E+02  (-0.1421384E+04)
 number of electron     672.0000000 magnetization      48.0000000
 augmentation part      672.0000000 magnetization      48.0000000

 Free energy of the ion-electron system (eV)
  ---------------------------------------------------
  alpha Z        PSCENC =      2652.81237852
  Ewald energy   TEWEN  =    -41712.59426317
  -Hartree energ DENC   =    -25894.47185485
  -exchange      EXHF   =         0.00000000
  -V(xc)+E(xc)   XCENC  =      3606.59668425
  PAW double counting   =     55594.23204139   -59034.67079123
  entropy T*S    EENTRO =        -0.04756126
  eigenvalues    EBANDS =     -9715.39632594
  atomic energy  EATOM  =     73862.19814772
  Solvation  Ediel_sol  =         0.00000000
  ---------------------------------------------------
  free energy    TOTEN  =      -641.34154457 eV

  energy without entropy =     -641.29398331  energy(sigma->0) =     -641.31776394


--------------------------------------------------------------------------------------------------------




--------------------------------------- Iteration      1(   4)  ---------------------------------------


    EDDIAG:  cpu time    4.4235: real time    4.8440
  RMM-DIIS:  cpu time    9.0579: real time    9.0786
    ORTHCH:  cpu time    1.1504: real time    1.2501
       DOS:  cpu time    0.0012: real time    0.0012
    --------------------------------------------
      LOOP:  cpu time   14.6329: real time   15.1739

 eigenvalue-minimisations  :  7680
 total energy-change (2. order) :-0.4683406E+03  (-0.4290944E+03)
 number of electron     672.0000000 magnetization      48.0000000
 augmentation part      672.0000000 magnetization      48.0000000

 Free energy of the ion-electron system (eV)
  ---------------------------------------------------
  alpha Z        PSCENC =      2652.81237852
  Ewald energy   TEWEN  =    -41712.59426317
  -Hartree energ DENC   =    -25894.47185485
  -exchange      EXHF   =         0.00000000
  -V(xc)+E(xc)   XCENC  =      3606.59668425
  PAW double counting   =     55594.23204139   -59034.67079123
  entropy T*S    EENTRO =        -0.00000000
  eigenvalues    EBANDS =    -10183.78451739
  atomic energy  EATOM  =     73862.19814772
  Solvation  Ediel_sol  =         0.00000000
  ---------------------------------------------------
  free energy    TOTEN  =     -1109.68217476 eV

  energy without entropy =    -1109.68217476  energy(sigma->0) =    -1109.68217476


--------------------------------------------------------------------------------------------------------




--------------------------------------- Iteration      1(   5)  ---------------------------------------


    EDDIAG:  cpu time    4.3866: real time    4.7837
  RMM-DIIS:  cpu time    9.0779: real time    9.0828
    ORTHCH:  cpu time    1.1442: real time    1.2275
       DOS:  cpu time    0.0013: real time    0.0013
    --------------------------------------------
      LOOP:  cpu time   14.6100: real time   15.0954

 eigenvalue-minimisations  :  7680
 total energy-change (2. order) :-0.1043382E+03  (-0.1599884E+03)
 number of electron     672.0000000 magnetization      48.0000000
 augmentation part      672.0000000 magnetization      48.0000000

 Free energy of the ion-electron system (eV)
  ---------------------------------------------------
  alpha Z        PSCENC =      2652.81237852
  Ewald energy   TEWEN  =    -41712.59426317
  -Hartree energ DENC   =    -25894.47185485
  -exchange      EXHF   =         0.00000000
  -V(xc)+E(xc)   XCENC  =      3606.59668425
  PAW double counting   =     55594.23204139   -59034.67079123
  entropy T*S    EENTRO =        -0.00000000
  eigenvalues    EBANDS =    -10288.12273047
  atomic energy  EATOM  =     73862.19814772
  Solvation  Ediel_sol  =         0.00000000
  ---------------------------------------------------
  free energy    TOTEN  =     -1214.02038784 eV

  energy without entropy =    -1214.02038784  energy(sigma->0) =    -1214.02038784


--------------------------------------------------------------------------------------------------------




--------------------------------------- Iteration      1(   6)  ---------------------------------------


    EDDIAG:  cpu time    4.4751: real time    4.8823
  RMM-DIIS:  cpu time    9.0181: real time    9.0550
    ORTHCH:  cpu time    1.1465: real time    1.2299
       DOS:  cpu time    0.0011: real time    0.0011
    --------------------------------------------
      LOOP:  cpu time   14.6407: real time   15.1683

 eigenvalue-minimisations  :  7680
 total energy-change (2. order) :-0.9073984E+01  (-0.7948158E+02)
 number of electron     672.0000000 magnetization      48.0000000
 augmentation part      672.0000000 magnetization      48.0000000

 Free energy of the ion-electron system (eV)
  ---------------------------------------------------
  alpha Z        PSCENC =      2652.81237852
  Ewald energy   TEWEN  =    -41712.59426317
  -Hartree energ DENC   =    -25894.47185485
  -exchange      EXHF   =         0.00000000
  -V(xc)+E(xc)   XCENC  =      3606.59668425
  PAW double counting   =     55594.23204139   -59034.67079123
  entropy T*S    EENTRO =        -0.00000000
  eigenvalues    EBANDS =    -10297.19671494
  atomic energy  EATOM  =     73862.19814772
  Solvation  Ediel_sol  =         0.00000000
  ---------------------------------------------------
  free energy    TOTEN  =     -1223.09437231 eV

  energy without entropy =    -1223.09437231  energy(sigma->0) =    -1223.09437231


--------------------------------------------------------------------------------------------------------




--------------------------------------- Iteration      1(   7)  ---------------------------------------


    EDDIAG:  cpu time    4.3799: real time    4.7858
  RMM-DIIS:  cpu time    9.0610: real time    9.0688
    ORTHCH:  cpu time    1.1797: real time    1.2613
       DOS:  cpu time    0.0038: real time    0.0038
    --------------------------------------------
      LOOP:  cpu time   14.6243: real time   15.1197

 eigenvalue-minimisations  :  7680
 total energy-change (2. order) :-0.1836148E+01  (-0.4858023E+02)
 number of electron     672.0000000 magnetization      48.0000000
 augmentation part      672.0000000 magnetization      48.0000000

 Free energy of the ion-electron system (eV)
  ---------------------------------------------------
  alpha Z        PSCENC =      2652.81237852
  Ewald energy   TEWEN  =    -41712.59426317
  -Hartree energ DENC   =    -25894.47185485
  -exchange      EXHF   =         0.00000000
  -V(xc)+E(xc)   XCENC  =      3606.59668425
  PAW double counting   =     55594.23204139   -59034.67079123
  entropy T*S    EENTRO =        -0.00000000
  eigenvalues    EBANDS =    -10299.03286255
  atomic energy  EATOM  =     73862.19814772
  Solvation  Ediel_sol  =         0.00000000
  ---------------------------------------------------
  free energy    TOTEN  =     -1224.93051992 eV

  energy without entropy =    -1224.93051992  energy(sigma->0) =    -1224.93051992


--------------------------------------------------------------------------------------------------------




--------------------------------------- Iteration      1(   8)  ---------------------------------------


    EDDIAG:  cpu time    4.4350: real time    4.8381
  RMM-DIIS:  cpu time    9.0564: real time    9.0765
    ORTHCH:  cpu time    1.1469: real time    1.2296
       DOS:  cpu time    0.0015: real time    0.0015
    --------------------------------------------
      LOOP:  cpu time   14.6399: real time   15.1457

 eigenvalue-minimisations  :  7680
 total energy-change (2. order) : 0.4980913E+01  (-0.3029425E+02)
 number of electron     672.0000000 magnetization      48.0000000
 augmentation part      672.0000000 magnetization      48.0000000

 Free energy of the ion-electron system (eV)
  ---------------------------------------------------
  alpha Z        PSCENC =      2652.81237852
  Ewald energy   TEWEN  =    -41712.59426317
  -Hartree energ DENC   =    -25894.47185485
  -exchange      EXHF   =         0.00000000
  -V(xc)+E(xc)   XCENC  =      3606.59668425
  PAW double counting   =     55594.23204139   -59034.67079123
  entropy T*S    EENTRO =        -0.00000000
  eigenvalues    EBANDS =    -10294.05194932
  atomic energy  EATOM  =     73862.19814772
  Solvation  Ediel_sol  =         0.00000000
  ---------------------------------------------------
  free energy    TOTEN  =     -1219.94960669 eV

  energy without entropy =    -1219.94960669  energy(sigma->0) =    -1219.94960669


--------------------------------------------------------------------------------------------------------




--------------------------------------- Iteration      1(   9)  ---------------------------------------


    EDDIAG:  cpu time    4.4201: real time    4.8369
  RMM-DIIS:  cpu time   18.9308: real time   19.0633
    ORTHCH:  cpu time    1.1431: real time    1.2266
       DOS:  cpu time    0.0013: real time    0.0013
    --------------------------------------------
      LOOP:  cpu time   24.4952: real time   25.1281

 eigenvalue-minimisations  : 21806
 total energy-change (2. order) : 0.9423093E+01  (-0.1340346E+02)
 number of electron     672.0000000 magnetization      48.0000000
 augmentation part      672.0000000 magnetization      48.0000000

 Free energy of the ion-electron system (eV)
  ---------------------------------------------------
  alpha Z        PSCENC =      2652.81237852
  Ewald energy   TEWEN  =    -41712.59426317
  -Hartree energ DENC   =    -25894.47185485
  -exchange      EXHF   =         0.00000000
  -V(xc)+E(xc)   XCENC  =      3606.59668425
  PAW double counting   =     55594.23204139   -59034.67079123
  entropy T*S    EENTRO =        -0.00000001
  eigenvalues    EBANDS =    -10284.62885598
  atomic energy  EATOM  =     73862.19814772
  Solvation  Ediel_sol  =         0.00000000
  ---------------------------------------------------
  free energy    TOTEN  =     -1210.52651336 eV

  energy without entropy =    -1210.52651335  energy(sigma->0) =    -1210.52651335


--------------------------------------------------------------------------------------------------------




--------------------------------------- Iteration      1(  10)  ---------------------------------------


    EDDIAG:  cpu time    4.3897: real time    4.8521
  RMM-DIIS:  cpu time   17.7605: real time   17.7732
    ORTHCH:  cpu time    1.1476: real time    1.2308
       DOS:  cpu time    0.0016: real time    0.0016
    --------------------------------------------
      LOOP:  cpu time   23.2993: real time   23.8576

 eigenvalue-minimisations  : 19621
 total energy-change (2. order) :-0.1932849E+01  (-0.5344158E+00)
 number of electron     672.0000000 magnetization      48.0000000
 augmentation part      672.0000000 magnetization      48.0000000

 Free energy of the ion-electron system (eV)
  ---------------------------------------------------
  alpha Z        PSCENC =      2652.81237852
  Ewald energy   TEWEN  =    -41712.59426317
  -Hartree energ DENC   =    -25894.47185485
  -exchange      EXHF   =         0.00000000
  -V(xc)+E(xc)   XCENC  =      3606.59668425
  PAW double counting   =     55594.23204139   -59034.67079123
  entropy T*S    EENTRO =        -0.00000009
  eigenvalues    EBANDS =    -10286.56170446
  atomic energy  EATOM  =     73862.19814772
  Solvation  Ediel_sol  =         0.00000000
  ---------------------------------------------------
  free energy    TOTEN  =     -1212.45936192 eV

  energy without entropy =    -1212.45936183  energy(sigma->0) =    -1212.45936188


--------------------------------------------------------------------------------------------------------




--------------------------------------- Iteration      1(  11)  ---------------------------------------


    EDDIAG:  cpu time    4.3524: real time    4.7729
  RMM-DIIS:  cpu time   19.4888: real time   19.5338
    ORTHCH:  cpu time    1.1503: real time    1.2327
       DOS:  cpu time    0.0015: real time    0.0015
    --------------------------------------------
      LOOP:  cpu time   24.9930: real time   25.5409

 eigenvalue-minimisations  : 22502
 total energy-change (2. order) : 0.7079400E-01  (-0.4347865E-01)
 number of electron     672.0000000 magnetization      48.0000000
 augmentation part      672.0000000 magnetization      48.0000000

 Free energy of the ion-electron system (eV)
  ---------------------------------------------------
  alpha Z        PSCENC =      2652.81237852
  Ewald energy   TEWEN  =    -41712.59426317
  -Hartree energ DENC   =    -25894.47185485
  -exchange      EXHF   =         0.00000000
  -V(xc)+E(xc)   XCENC  =      3606.59668425
  PAW double counting   =     55594.23204139   -59034.67079123
  entropy T*S    EENTRO =        -0.00000011
  eigenvalues    EBANDS =    -10286.49091045
  atomic energy  EATOM  =     73862.19814772
  Solvation  Ediel_sol  =         0.00000000
  ---------------------------------------------------
  free energy    TOTEN  =     -1212.38856792 eV

  energy without entropy =    -1212.38856782  energy(sigma->0) =    -1212.38856787


--------------------------------------------------------------------------------------------------------




--------------------------------------- Iteration      1(  12)  ---------------------------------------


    EDDIAG:  cpu time    4.4237: real time    4.8285
  RMM-DIIS:  cpu time   21.6515: real time   21.7145
    ORTHCH:  cpu time    1.1471: real time    1.2291
       DOS:  cpu time    0.0024: real time    0.0024
    CHARGE:  cpu time    1.7702: real time    1.7710
    MIXING:  cpu time    0.0009: real time    0.0011
    --------------------------------------------
      LOOP:  cpu time   28.9958: real time   29.5466

 eigenvalue-minimisations  : 24431
 total energy-change (2. order) :-0.9793778E-03  (-0.4413375E-02)
 number of electron     671.9999554 magnetization      47.9999992
 augmentation part      239.1636881 magnetization      29.0352573

 Broyden mixing:
  rms(total) = 0.12753E+02    rms(broyden)= 0.12744E+02
  rms(prec ) = 0.14564E+02
  weight for this iteration     100.00

 Free energy of the ion-electron system (eV)
  ---------------------------------------------------
  alpha Z        PSCENC =      2652.81237852
  Ewald energy   TEWEN  =    -41712.59426317
  -Hartree energ DENC   =    -25894.47185485
  -exchange      EXHF   =         0.00000000
  -V(xc)+E(xc)   XCENC  =      3606.59668425
  PAW double counting   =     55594.23204139   -59034.67079123
  entropy T*S    EENTRO =        -0.00000010
  eigenvalues    EBANDS =    -10286.49188983
  atomic energy  EATOM  =     73862.19814772
  Solvation  Ediel_sol  =         0.00000000
  ---------------------------------------------------
  free energy    TOTEN  =     -1212.38954730 eV

  energy without entropy =    -1212.38954720  energy(sigma->0) =    -1212.38954725


--------------------------------------------------------------------------------------------------------




--------------------------------------- Iteration      1(  13)  ---------------------------------------


    POTLOK:  cpu time    0.1718: real time    0.1726
    SETDIJ:  cpu time    5.0386: real time    5.0403
    EDDIAG:  cpu time    4.3498: real time    4.7700
  RMM-DIIS:  cpu time   17.2101: real time   17.2652
    ORTHCH:  cpu time    1.1486: real time    1.2296
       DOS:  cpu time    0.0014: real time    0.0014
    CHARGE:  cpu time    1.7705: real time    1.7713
    MIXING:  cpu time    0.0009: real time    0.0010
    --------------------------------------------
      LOOP:  cpu time   29.6918: real time   30.2514

 eigenvalue-minimisations  : 18816
 total energy-change (2. order) : 0.2279017E+03  (-0.1211400E+03)
 number of electron     671.9999569 magnetization      47.9999989
 augmentation part      268.5465481 magnetization      26.7459536

 Broyden mixing:
  rms(total) = 0.13862E+02    rms(broyden)= 0.13859E+02
  rms(prec ) = 0.15545E+02
  weight for this iteration     100.00

 eigenvalues of (default mixing * dielectric matrix)
  average eigenvalue GAMMA=   0.3211
  0.3211

 Free energy of the ion-electron system (eV)
  ---------------------------------------------------
  alpha Z        PSCENC =      2652.81237852
  Ewald energy   TEWEN  =    -41712.59426317
  -Hartree energ DENC   =    -25231.91319220
  -exchange      EXHF   =         0.00000000
  -V(xc)+E(xc)   XCENC  =      3697.13082972
  PAW double counting   =     60032.85180339   -63458.19077143
  entropy T*S    EENTRO =        -0.08043324
  eigenvalues    EBANDS =    -10826.70235910
  atomic energy  EATOM  =     73862.19814772
  Solvation  Ediel_sol  =         0.00000000
  ---------------------------------------------------
  free energy    TOTEN  =      -984.48785978 eV

  energy without entropy =     -984.40742654  energy(sigma->0) =     -984.44764316


--------------------------------------------------------------------------------------------------------




--------------------------------------- Iteration      1(  14)  ---------------------------------------


    POTLOK:  cpu time    0.1753: real time    0.1761
    SETDIJ:  cpu time    5.0264: real time    5.0273
    EDDIAG:  cpu time    4.3498: real time    4.7724
  RMM-DIIS:  cpu time   17.8093: real time   17.8667
    ORTHCH:  cpu time    1.1480: real time    1.2318
       DOS:  cpu time    0.0013: real time    0.0013
    CHARGE:  cpu time    1.8009: real time    1.8015
    MIXING:  cpu time    0.0020: real time    0.0020
    --------------------------------------------
      LOOP:  cpu time   30.3130: real time   30.8791

 eigenvalue-minimisations  : 19378
 total energy-change (2. order) : 0.6922141E+02  (-0.1737601E+02)
 number of electron     671.9999558 magnetization      47.9999982
 augmentation part      246.6976709 magnetization      32.1579338

 Broyden mixing:
  rms(total) = 0.53907E+01    rms(broyden)= 0.53865E+01
  rms(prec ) = 0.58069E+01
  weight for this iteration     100.00

 eigenvalues of (default mixing * dielectric matrix)
  average eigenvalue GAMMA=   0.7366
  1.1138  0.3595

 Free energy of the ion-electron system (eV)
  ---------------------------------------------------
  alpha Z        PSCENC =      2652.81237852
  Ewald energy   TEWEN  =    -41712.59426317
  -Hartree energ DENC   =    -25842.21678295
  -exchange      EXHF   =         0.00000000
  -V(xc)+E(xc)   XCENC  =      3675.10623338
  PAW double counting   =     63469.49407906   -66952.30197176
  entropy T*S    EENTRO =        -0.00000000
  eigenvalues    EBANDS =    -10067.76426575
  atomic energy  EATOM  =     73862.19814772
  Solvation  Ediel_sol  =         0.00000000
  ---------------------------------------------------
  free energy    TOTEN  =      -915.26644494 eV

  energy without entropy =     -915.26644494  energy(sigma->0) =     -915.26644494


--------------------------------------------------------------------------------------------------------




--------------------------------------- Iteration      1(  15)  ---------------------------------------


    POTLOK:  cpu time    0.1737: real time    0.1745
    SETDIJ:  cpu time    5.0287: real time    5.0295
    EDDIAG:  cpu time    4.3442: real time    4.7637
  RMM-DIIS:  cpu time   18.1258: real time   18.1592
    ORTHCH:  cpu time    1.1483: real time    1.2269
       DOS:  cpu time    0.0023: real time    0.0023
    CHARGE:  cpu time    1.7891: real time    1.7897
    MIXING:  cpu time    0.0014: real time    0.0014
    --------------------------------------------
      LOOP:  cpu time   30.6134: real time   31.1472

 eigenvalue-minimisations  : 20258
 total energy-change (2. order) : 0.1412629E+02  (-0.1967700E+01)
 number of electron     671.9999560 magnetization      47.9999977
 augmentation part      249.5688887 magnetization      33.7331386

 Broyden mixing:
  rms(total) = 0.22693E+01    rms(broyden)= 0.22689E+01
  rms(prec ) = 0.23626E+01
  weight for this iteration     100.00

 eigenvalues of (default mixing * dielectric matrix)
  average eigenvalue GAMMA=   0.9338
  1.6851  0.3896  0.7268

 Free energy of the ion-electron system (eV)
  ---------------------------------------------------
  alpha Z        PSCENC =      2652.81237852
  Ewald energy   TEWEN  =    -41712.59426317
  -Hartree energ DENC   =    -25773.47781459
  -exchange      EXHF   =         0.00000000
  -V(xc)+E(xc)   XCENC  =      3707.63478665
  PAW double counting   =     67629.03072230   -71152.27750890
  entropy T*S    EENTRO =        -0.00000000
  eigenvalues    EBANDS =    -10114.46660513
  atomic energy  EATOM  =     73862.19814772
  Solvation  Ediel_sol  =         0.00000000
  ---------------------------------------------------
  free energy    TOTEN  =      -901.14015658 eV

  energy without entropy =     -901.14015658  energy(sigma->0) =     -901.14015658


--------------------------------------------------------------------------------------------------------




--------------------------------------- Iteration      1(  16)  ---------------------------------------


    POTLOK:  cpu time    0.1716: real time    0.1723
    SETDIJ:  cpu time    5.6000: real time    5.6008
    EDDIAG:  cpu time    4.3485: real time    4.7689
  RMM-DIIS:  cpu time   17.4939: real time   17.5500
    ORTHCH:  cpu time    1.1820: real time    1.2658
       DOS:  cpu time    0.0015: real time    0.0015
    CHARGE:  cpu time    1.7736: real time    1.7741
    MIXING:  cpu time    0.0010: real time    0.0010
    --------------------------------------------
      LOOP:  cpu time   30.5719: real time   31.1345

 eigenvalue-minimisations  : 19121
 total energy-change (2. order) :-0.1369614E+01  (-0.6763161E+00)
 number of electron     671.9999562 magnetization      47.9999976
 augmentation part      251.0733448 magnetization      33.8195383

 Broyden mixing:
  rms(total) = 0.15070E+01    rms(broyden)= 0.15065E+01
  rms(prec ) = 0.15877E+01
  weight for this iteration     100.00

 eigenvalues of (default mixing * dielectric matrix)
  average eigenvalue GAMMA=   0.9718
  2.1032  0.8854  0.3969  0.5016

 Free energy of the ion-electron system (eV)
  ---------------------------------------------------
  alpha Z        PSCENC =      2652.81237852
  Ewald energy   TEWEN  =    -41712.59426317
  -Hartree energ DENC   =    -25722.46648159
  -exchange      EXHF   =         0.00000000
  -V(xc)+E(xc)   XCENC  =      3708.92434546
  PAW double counting   =     70606.50754037   -74159.14536666
  entropy T*S    EENTRO =        -0.00000000
  eigenvalues    EBANDS =    -10138.74607171
  atomic energy  EATOM  =     73862.19814772
  Solvation  Ediel_sol  =         0.00000000
  ---------------------------------------------------
  free energy    TOTEN  =      -902.50977105 eV

  energy without entropy =     -902.50977105  energy(sigma->0) =     -902.50977105


--------------------------------------------------------------------------------------------------------




--------------------------------------- Iteration      1(  17)  ---------------------------------------


    POTLOK:  cpu time    0.1719: real time    0.1728
    SETDIJ:  cpu time    5.0931: real time    5.0937
    EDDIAG:  cpu time    4.3655: real time    4.7743
  RMM-DIIS:  cpu time   18.5186: real time   18.5664
    ORTHCH:  cpu time    1.1463: real time    1.2291
       DOS:  cpu time    0.0011: real time    0.0011
    CHARGE:  cpu time    1.7662: real time    1.7667
    MIXING:  cpu time    0.0022: real time    0.0022
    --------------------------------------------
      LOOP:  cpu time   31.0648: real time   31.6063

 eigenvalue-minimisations  : 20549
 total energy-change (2. order) : 0.9124228E-01  (-0.8036264E-01)
 number of electron     671.9999561 magnetization      47.9999975
 augmentation part      251.1220218 magnetization      33.8102629

 Broyden mixing:
  rms(total) = 0.79380E+00    rms(broyden)= 0.79361E+00
  rms(prec ) = 0.89581E+00
  weight for this iteration     100.00

 eigenvalues of (default mixing * dielectric matrix)
  average eigenvalue GAMMA=   0.9887
  2.2377  1.1022  0.3835  0.6707  0.5496

 Free energy of the ion-electron system (eV)
  ---------------------------------------------------
  alpha Z        PSCENC =      2652.81237852
  Ewald energy   TEWEN  =    -41712.59426317
  -Hartree energ DENC   =    -25710.39318707
  -exchange      EXHF   =         0.00000000
  -V(xc)+E(xc)   XCENC  =      3706.12985472
  PAW double counting   =     71537.51016577   -75099.06868688
  entropy T*S    EENTRO =        -0.00000000
  eigenvalues    EBANDS =    -10139.01293839
  atomic energy  EATOM  =     73862.19814772
  Solvation  Ediel_sol  =         0.00000000
  ---------------------------------------------------
  free energy    TOTEN  =      -902.41852877 eV

  energy without entropy =     -902.41852877  energy(sigma->0) =     -902.41852877


--------------------------------------------------------------------------------------------------------




--------------------------------------- Iteration      1(  18)  ---------------------------------------


    POTLOK:  cpu time    0.1688: real time    0.1697
    SETDIJ:  cpu time    5.0518: real time    5.0527
    EDDIAG:  cpu time    4.4247: real time    4.8368
  RMM-DIIS:  cpu time   17.6448: real time   17.6504
    ORTHCH:  cpu time    1.1476: real time    1.2299
       DOS:  cpu time    0.0014: real time    0.0014
    CHARGE:  cpu time    1.7649: real time    1.7658
    MIXING:  cpu time    0.0011: real time    0.0011
    --------------------------------------------
      LOOP:  cpu time   30.2050: real time   30.7077

 eigenvalue-minimisations  : 19137
 total energy-change (2. order) : 0.4159534E+00  (-0.7188137E-01)
 number of electron     671.9999560 magnetization      47.9999975
 augmentation part      250.6206822 magnetization      33.7780972

 Broyden mixing:
  rms(total) = 0.29500E+00    rms(broyden)= 0.29473E+00
  rms(prec ) = 0.31172E+00
  weight for this iteration     100.00

 eigenvalues of (default mixing * dielectric matrix)
  average eigenvalue GAMMA=   1.0154
  2.4539  1.3779  0.8281  0.5882  0.3858  0.4582

[...]
   4      -0.841    -0.907     1.748     0.049    -0.066     0.066
   5      -0.840    -1.018     1.858     0.314     0.048    -0.098
   6      -0.954    -0.551     1.504    -0.052     0.131     0.060
   7      -0.626    -0.795     1.421    -0.149    -0.000    -0.080
   8      -0.555    -0.695     1.250    -0.118    -0.118    -0.039
   9      -0.850    -0.963     1.813     0.236    -0.014     0.005
  10      -1.100    -0.581     1.682    -0.092     0.044     0.064
  11      -0.450    -0.677     1.127    -0.115     0.045     0.027
  12      -0.970    -0.545     1.515    -0.001     0.049     0.018
  13      -0.907    -0.523     1.430    -0.065    -0.086     0.036
  14      -0.630    -1.083     1.713     0.214     0.105     0.049
  15      -0.771    -1.059     1.830     0.179    -0.022    -0.011
  16      -0.697    -1.070     1.767     0.011    -0.033    -0.031
  17       1.526     1.383    -2.909     0.008    -0.198    -0.035
  18       1.321     1.621    -2.942     0.038     0.107     0.069
  19       1.390     1.438    -2.828    -0.240     0.164    -0.026
  20       1.375     1.441    -2.816    -0.222    -0.255    -0.065
  21       1.370     1.491    -2.861    -0.041     0.058     0.051
  22       1.402     1.493    -2.895     0.139    -0.204    -0.135
  23       1.482     1.436    -2.917     0.032    -0.153    -0.097
  24       1.629     1.378    -3.007     0.080     0.243     0.087
  25      -0.346    -0.292     0.638     0.175    -0.428    -0.284
  26      -0.027    -0.885     0.912    -0.136    -0.038     0.110
  27       0.800    -0.075    -0.725    -0.037    -0.609    -0.178
  28      -1.035     0.185     0.850     0.840    -0.052    -0.678
  29       0.178    -0.028    -0.150    -0.995    -1.016    -0.970
  30      -0.783     0.612     0.171    -0.340    -0.103    -0.478
  31      -2.627    -0.609     3.236    -1.506     0.843    -0.278
  32       2.263    -0.516    -1.748    -0.513    -1.040     0.009
  33      -0.723     2.695    -1.972    -0.189    -1.609     0.148
  34       0.053     1.037    -1.090    -0.387    -0.376     0.805
  35      -0.290     0.820    -0.530     1.100    -1.508     0.601
  36      -0.272    -1.721     1.993    -0.555    -0.920    -0.973
  37      -0.304     0.180     0.124     0.034     0.093     0.014
  38      -0.945     1.587    -0.642     0.105    -0.764    -1.001
  39      -1.245     0.236     1.009    -0.319     0.323    -0.147
  40      -1.813     0.719     1.094    -0.732    -0.239     0.017
  41      -3.362     2.040     1.322    -4.752     1.890    -3.569
  42      -2.071     2.336    -0.266     5.334     3.087     1.231
  43       3.362    -6.403     3.041    -1.812    -5.134    -0.888
  44      -5.632     4.365     1.268    -3.676     0.239     4.995
  45       5.095    -4.487    -0.608     0.610     2.967     1.915
  46      -1.012     0.595     0.417     3.941    -2.818    -3.805
  47      -3.444     2.351     1.094    -3.510     2.952    -4.702
  48       7.443    -5.898    -1.545     1.622    -3.944     2.397
  49      -0.642     0.671    -0.029     5.625     1.499     3.457
  50      -5.168     4.577     0.591    -2.152    -0.550     4.943
  51      -1.974    -0.018     1.992     5.093    -1.845    -4.728
  52       4.118    -5.330     1.212     0.165     3.628    -0.573
  53      -1.730     2.077    -0.348    -6.006     3.493    -2.919
  54      -3.214     2.886     0.328     3.624     2.675     5.071
  55       4.475    -4.270    -0.204    -0.215    -3.324     0.344
  56      -3.976     2.243     1.733    -4.700    -3.891     4.556
  57       5.222    -5.818     0.597     0.077     4.245    -1.033
  58      -1.131     2.417    -1.285     7.698    -2.283    -3.215
  59      -2.294     1.704     0.589    -6.115     2.309    -4.163
  60       4.387    -5.991     1.604    -0.493    -3.910     0.054
  61      -4.318     3.573     0.745     6.129     0.167     3.146
  62      -3.117     2.409     0.708    -5.378    -2.631     3.815
  63       0.331     2.858    -3.188     6.467    -3.234    -2.000
  64       8.058    -6.554    -1.504     1.309     4.077     0.425
  65      -2.896     4.665    -1.769    -6.644     2.251    -3.567
  66      -3.384     3.560    -0.177     4.787     2.536     4.238
  67       8.182    -6.054    -2.129     0.088    -1.974    -0.080
  68      -4.003     1.553     2.450    -5.495    -3.887     3.729
  69       5.157    -6.907     1.750    -0.882     4.873     0.316
  70      -5.161     2.685     2.476     3.013    -2.721    -4.521
  71      -2.736     3.324    -0.588    -6.382     1.109    -2.331
  72       5.457    -6.310     0.853    -0.211    -5.038    -0.412
  73      -3.590     1.089     2.501     5.067     1.630     4.782
  74      -2.425     2.379     0.047    -4.244    -2.623     3.778
  75      -3.281     2.405     0.875     5.272    -2.245    -4.310
  76       6.723    -4.886    -1.836     1.685     3.593     0.205
  77      -3.834     3.450     0.384    -5.322     1.385    -3.671
  78      -4.286     4.429    -0.143     6.088     1.159     3.408
  79       4.868    -5.434     0.566    -2.251    -5.542    -0.610
  80      -4.690     3.123     1.567    -3.857    -1.953     4.469
  81       4.508    -7.181     2.673     0.641     5.608     1.589
  82      -3.073     2.847     0.225     6.609    -4.160    -4.185
  83      -3.887     2.475     1.411    -3.543     2.738    -4.325
  84       6.498    -7.052     0.554    -1.537    -5.106    -0.246
  85      -2.518     5.770    -3.252     6.326     1.533     2.868
  86      -3.319     2.456     0.862    -4.369    -0.484     4.928
  87      -2.215     2.389    -0.174     4.474    -1.871    -4.164
  88       3.728    -5.053     1.324    -0.242     4.703     0.362
 ---------------------------------------------------------------------


 Total hyperfine coupling parameters after diagonalization (MHz)
 (convention: |A_zz| > |A_xx| > |A_yy|)
 ----------------------------------------------------------------------
  ion      A_xx      A_yy      A_zz     asymmetry (A_yy - A_xx)/ A_zz 
 ----------------------------------------------------------------------
   1       2.317     2.102     4.399      -0.049
   2       0.368     0.139     2.860      -0.080
   3       1.428     0.771     3.450      -0.191
   4       0.859     0.739     3.426      -0.035
   5       2.103     1.447     4.567      -0.144
   6       1.762     1.339     3.820      -0.111
   7       1.096     0.752     3.060      -0.112
   8       2.202     1.927     3.951      -0.070
   9       0.328    -0.158     2.805      -0.173
  10       1.651     1.100     3.901      -0.141
  11       2.151     1.828     3.682      -0.088
  12       1.418     0.992     3.479      -0.123
  13       1.972     1.565     3.920      -0.104
  14       0.871     0.253     3.141      -0.197
  15       0.385    -0.075     2.900      -0.159
  16       0.962     0.588     3.426      -0.109
  17      14.763    10.463    14.916      -0.288
  18      14.840    10.576    15.149      -0.281
  19      14.067    10.058    14.551      -0.276
  20      12.880     8.850    13.319      -0.303
  21      13.915     9.693    14.060      -0.300
  22      13.711     9.499    14.013      -0.301
  23      14.615    10.271    14.700      -0.296
  24      14.994    10.619    15.306      -0.286
  25      96.881    96.705    98.127      -0.002
  26      94.854    93.952    95.785      -0.009
  27      98.884    97.949    99.937      -0.009
  28      91.613    90.007    92.887      -0.017
  29      96.418    93.546    96.650      -0.030
  30      92.876    92.013    93.870      -0.009
  31      96.783    93.227   100.133      -0.036
  32      96.957    95.534   100.142      -0.014
  33      96.462    93.034    98.828      -0.035
  34      95.990    94.667    97.543      -0.014
  35      99.072    95.898    99.838      -0.032
  36      96.754    94.672    99.396      -0.021
  37      93.436    92.976    93.493      -0.005
  38      99.241    97.899   101.599      -0.013
  39      96.834    95.240    97.684      -0.016
  40      98.673    95.760    98.923      -0.029
  41       6.947     2.144    15.735      -0.305
  42       5.548    -0.055    13.218      -0.424
  43       6.756     0.871    16.369      -0.359
  44       5.128    -0.853    15.072      -0.397
  45       3.304    -0.796    11.032      -0.372
  46       5.171     3.800    15.198      -0.090
  47       4.956     2.730    16.236      -0.137
  48       7.217     0.892    17.494      -0.362
  49      -3.155     1.298    10.204       0.436
  50       1.677    -1.442    12.480      -0.250
  51       8.533     3.485    18.165      -0.278
  52       5.070     0.825    12.811      -0.331
  53       5.350     1.229    16.281      -0.253
  54      -1.611    -0.279    11.895       0.112
  55       3.873     1.485    11.997      -0.199
  56       2.750    -1.497    14.634      -0.290
  57       5.357     1.030    14.833      -0.292
  58       8.750     4.143    21.335      -0.216
  59       5.332     0.608    16.245      -0.291
  60       6.921     2.046    15.223      -0.320
  61       8.784     1.045    16.978      -0.456
  62       4.296    -0.072    14.797      -0.295
  63       6.841     4.364    19.456      -0.127
  64       5.380     1.714    18.062      -0.203
  65       4.372     0.874    17.675      -0.198
  66       5.136     2.155    16.740      -0.178
  67       5.667     2.104    16.708      -0.213
  68       5.893    -0.245    16.463      -0.373
  69       7.491     2.052    17.723      -0.307
  70       5.779     1.329    16.038      -0.277
  71       6.899     1.438    16.340      -0.334
  72       4.475     0.442    15.501      -0.260
  73       7.080     1.471    16.944      -0.331
  74       2.883     0.621    13.196      -0.171
  75       6.271     1.988    17.032      -0.251
  76       2.068    -0.025    13.380      -0.156
  77       7.603     2.441    17.321      -0.298
  78       6.636     0.673    17.086      -0.349
  79       6.445     2.197    17.559      -0.242
  80       5.894     1.603    16.137      -0.266
  81       7.040     1.577    18.427      -0.296
  82       8.390     3.577    21.621      -0.223
  83       5.429     2.227    15.803      -0.203
  84       9.147     4.004    20.859      -0.247
  85       5.377     3.492    19.416      -0.097
  86       4.742    -0.064    14.179      -0.339
  87       7.392     4.999    17.780      -0.135
  88       4.543     1.683    14.184      -0.202
 ---------------------------------------------------------------------



--------------------------------------------------------------------------------------------------------


 stress matrix after NEB project (eV)
    -40.89534     -1.67340      3.38278
     -1.68106    -41.69435      1.27445
      3.36124      1.27330    -54.14200
  FORCES: max atom, RMS     2.592232    1.135022
  FORCE total and by dimension   10.647454    2.320781
  Stress total and by dimension   79.836185   54.141998
     LOOP+:  cpu time  763.6230: real time  778.6454
    4ORBIT:  cpu time    0.0000: real time    0.0000
 


 total charge     
 
# of ion       s       p       d       tot
------------------------------------------
    1        0.053   5.997   0.000   6.049
    2        0.048   5.992   0.000   6.041
    3        0.047   5.990   0.000   6.036
    4        0.052   5.995   0.000   6.046
    5        0.057   6.002   0.000   6.059
    6        0.052   5.995   0.000   6.047
    7        0.046   5.988   0.000   6.034
    8        0.049   5.991   0.000   6.040
    9        0.051   5.995   0.000   6.046
   10        0.049   5.991   0.000   6.040
   11        0.048   5.989   0.000   6.037
   12        0.050   5.992   0.000   6.042
   13        0.051   5.995   0.000   6.046
   14        0.055   5.999   0.000   6.055
   15        0.052   5.995   0.000   6.047
   16        0.047   5.991   0.000   6.038
   17        0.144   6.119   0.077   6.340
   18        0.147   6.125   0.082   6.355
   19        0.142   6.117   0.075   6.334
   20        0.143   6.117   0.075   6.334
   21        0.142   6.117   0.076   6.335
   22        0.150   6.131   0.086   6.368
   23        0.141   6.115   0.074   6.329
   24        0.150   6.131   0.086   6.366
   25        0.374   6.449   4.825  11.648
   26        0.381   6.465   4.837  11.682
   27        0.355   6.410   4.796  11.561
   28        0.385   6.473   4.846  11.704
   29        0.379   6.461   4.840  11.680
   30        0.397   6.501   4.878  11.776
   31        0.390   6.487   4.864  11.740
   32        0.371   6.445   4.829  11.644
   33        0.394   6.491   4.880  11.766
   34        0.381   6.466   4.843  11.689
   35        0.376   6.455   4.835  11.666
   36        0.380   6.466   4.843  11.689
   37        0.390   6.487   4.860  11.738
   38        0.372   6.445   4.828  11.644
   39        0.388   6.482   4.859  11.729
   40        0.384   6.473   4.854  11.712
   41        1.598   3.535   0.000   5.133
   42        1.596   3.482   0.000   5.077
   43        1.598   3.528   0.000   5.126
   44        1.598   3.484   0.000   5.082
   45        1.597   3.494   0.000   5.091
   46        1.599   3.538   0.000   5.137
   47        1.599   3.510   0.000   5.109
   48        1.600   3.494   0.000   5.094
   49        1.597   3.491   0.000   5.088
   50        1.598   3.508   0.000   5.106
   51        1.600   3.507   0.000   5.107
   52        1.595   3.484   0.000   5.080
   53        1.600   3.546   0.000   5.146
   54        1.598   3.477   0.000   5.075
   55        1.597   3.524   0.000   5.121
   56        1.599   3.524   0.000   5.123
   57        1.597   3.477   0.000   5.074
   58        1.600   3.457   0.000   5.058
   59        1.599   3.525   0.000   5.124
   60        1.598   3.510   0.000   5.108
   61        1.599   3.512   0.000   5.111
   62        1.598   3.532   0.000   5.130
   63        1.601   3.479   0.000   5.081
   64        1.603   3.515   0.000   5.118
   65        1.602   3.513   0.000   5.116
   66        1.602   3.514   0.000   5.116
   67        1.598   3.489   0.000   5.087
   68        1.601   3.509   0.000   5.110
   69        1.600   3.529   0.000   5.129
   70        1.596   3.485   0.000   5.081
   71        1.599   3.497   0.000   5.095
   72        1.598   3.507   0.000   5.104
   73        1.597   3.500   0.000   5.097
   74        1.599   3.532   0.000   5.130
   75        1.603   3.534   0.000   5.137
   76        1.600   3.491   0.000   5.091
   77        1.600   3.528   0.000   5.127
   78        1.600   3.495   0.000   5.095
   79        1.600   3.498   0.000   5.098
   80        1.599   3.528   0.000   5.127
   81        1.602   3.498   0.000   5.099
   82        1.606   3.491   0.000   5.097
   83        1.597   3.512   0.000   5.109
   84        1.602   3.504   0.000   5.107
   85        1.604   3.493   0.000   5.097
   86        1.597   3.528   0.000   5.125
   87        1.598   3.519   0.000   5.117
   88        1.598   3.526   0.000   5.125
--------------------------------------------------
tot         84.826 416.680  78.147 579.653
 


 magnetization (x)
 
# of ion       s       p       d       tot
------------------------------------------
    1        0.002   0.000   0.000   0.002
    2        0.001   0.000   0.000   0.001
    3        0.001   0.000   0.000   0.002
    4        0.001   0.001   0.000   0.002
    5        0.002   0.001   0.000   0.003
    6        0.002  -0.000   0.000   0.001
    7        0.001  -0.000   0.000   0.001
    8        0.002   0.000   0.000   0.003
    9        0.001   0.000   0.000   0.001
   10        0.002  -0.000   0.000   0.002
   11        0.002   0.000   0.000   0.002
   12        0.001  -0.000   0.000   0.001
   13        0.002   0.000   0.000   0.002
   14        0.001   0.000   0.000   0.001
   15        0.001   0.000   0.000   0.001
   16        0.001   0.001   0.000   0.002
   17        0.007   0.002   0.001   0.011
   18        0.007   0.003   0.001   0.011
   19        0.007   0.002   0.001   0.010
   20        0.006   0.001   0.001   0.009
   21        0.007   0.002   0.001   0.010
   22        0.007   0.003   0.001   0.011
   23        0.008   0.002   0.001   0.011
   24        0.008   0.003   0.002   0.012
   25        0.015   0.031   2.763   2.809
   26        0.015   0.030   2.744   2.789
   27        0.015   0.031   2.790   2.836
   28        0.014   0.029   2.730   2.773
   29        0.015   0.030   2.747   2.792
   30        0.014   0.031   2.712   2.757
   31        0.015   0.030   2.722   2.767
   32        0.016   0.031   2.752   2.798
   33        0.015   0.033   2.701   2.749
   34        0.015   0.032   2.734   2.781
   35        0.016   0.031   2.755   2.802
   36        0.016   0.032   2.742   2.789
   37        0.014   0.030   2.732   2.777
   38        0.016   0.031   2.768   2.815
   39        0.015   0.031   2.734   2.780
   40        0.016   0.031   2.737   2.784
   41        0.002   0.042   0.000   0.044
   42        0.002   0.019   0.000   0.021
   43        0.002   0.046   0.000   0.048
   44        0.002   0.022   0.000   0.024
   45        0.001   0.011   0.000   0.013
   46        0.002   0.041   0.000   0.043
   47        0.002   0.038   0.000   0.040
   48        0.002   0.040   0.000   0.042
   49        0.001  -0.002   0.000  -0.001
   50        0.001   0.013   0.000   0.015
   51        0.002   0.056   0.000   0.059
   52        0.002   0.014   0.000   0.016
   53        0.002   0.050   0.000   0.052
   54        0.001  -0.006   0.000  -0.005
   55        0.001   0.030   0.000   0.031
   56        0.002   0.024   0.000   0.025
   57        0.002   0.026   0.000   0.028
   58        0.003   0.054   0.000   0.057
   59        0.002   0.041   0.000   0.043
   60        0.002   0.036   0.000   0.038
   61        0.002   0.054   0.000   0.056
   62        0.002   0.036   0.000   0.037
   63        0.003   0.039   0.000   0.041
   64        0.002   0.046   0.000   0.048
   65        0.002   0.035   0.000   0.037
   66        0.002   0.040   0.000   0.042
   67        0.002   0.033   0.000   0.035
   68        0.002   0.042   0.000   0.044
   69        0.002   0.043   0.000   0.046
   70        0.002   0.031   0.000   0.033
   71        0.002   0.042   0.000   0.044
   72        0.002   0.027   0.000   0.029
   73        0.002   0.046   0.000   0.048
   74        0.002   0.020   0.000   0.021
   75        0.002   0.050   0.000   0.052
   76        0.002   0.001   0.000   0.003
   77        0.002   0.047   0.000   0.049
   78        0.002   0.044   0.000   0.046
   79        0.002   0.037   0.000   0.039
   80        0.002   0.041   0.000   0.043
   81        0.002   0.055   0.000   0.057
   82        0.003   0.055   0.000   0.058
   83        0.002   0.038   0.000   0.040
   84        0.003   0.063   0.000   0.066
   85        0.003   0.036   0.000   0.039
   86        0.002   0.033   0.000   0.035
   87        0.002   0.053   0.000   0.055
   88        0.002   0.030   0.000   0.031
--------------------------------------------------
tot          0.421   2.228  43.872  46.521
 

 total amount of memory used by VASP MPI-rank0    94422. kBytes
=======================================================================

   base      :      30000. kBytes
   nonlr-proj:      13663. kBytes
   fftplans  :       1275. kBytes
   grid      :      22786. kBytes
   one-center:       2737. kBytes
   wavefun   :      23961. kBytes
 
  
  
 General timing and accounting informations for this job:
 ========================================================
  
                  Total CPU time used (sec):      784.588
                            User time (sec):      776.479
                          System time (sec):        8.109
                         Elapsed time (sec):      802.180
  
                   Maximum memory used (kb):      192196.
                   Average memory used (kb):           0.
  
                          Minor page faults:       331212
                          Major page faults:            0
                 Voluntary context switches:       258645
