 vasp.5.4.4.18Apr17-6-g9f103f2a35 (build Dec 02 2020 12:53:39) complex          
  
 executed on             LinuxIFC date 2021.08.03  23:19:15
 running on   96 total cores
 distrk:  each k-point on   96 cores,    1 groups
 distr:  one band on NCORES_PER_BAND=   1 cores,   96 groups


--------------------------------------------------------------------------------------------------------


 INCAR:
 POTCAR:    PAW_PBE Na_pv 19Sep2006               
 POTCAR:    PAW_PBE Mg_pv 13Apr2007               
 POTCAR:    PAW_PBE Mn_pv 02Aug2007               
 POTCAR:    PAW_PBE O 08Apr2002                   

 ----------------------------------------------------------------------------- 
|                                                                             |
|           W    W    AA    RRRRR   N    N  II  N    N   GGGG   !!!           |
|           W    W   A  A   R    R  NN   N  II  NN   N  G    G  !!!           |
|           W    W  A    A  R    R  N N  N  II  N N  N  G       !!!           |
|           W WW W  AAAAAA  RRRRR   N  N N  II  N  N N  G  GGG   !            |
|           WW  WW  A    A  R   R   N   NN  II  N   NN  G    G                |
|           W    W  A    A  R    R  N    N  II  N    N   GGGG   !!!           |
|                                                                             |
|      For optimal performance we recommend to set                            |
|        NCORE= 4 - approx SQRT( number of cores)                             |
|      NCORE specifies how many cores store one orbital (NPAR=cpu/NCORE).     |
|      This setting can  greatly improve the performance of VASP for DFT.     |
|      The default,   NCORE=1            might be grossly inefficient         |
|      on modern multi-core architectures or massively parallel machines.     |
|      Do your own testing !!!!                                               |
|      Unfortunately you need to use the default for GW and RPA calculations. |
|      (for HF NCORE is supported but not extensively tested yet)             |
|                                                                             |
 ----------------------------------------------------------------------------- 

 POTCAR:    PAW_PBE Na_pv 19Sep2006               
   VRHFIN =Na: p6s1                                                             
   LEXCH  = PE                                                                  
   EATOM  =   766.0439 eV,   56.3026 Ry                                         
                                                                                
   TITEL  = PAW_PBE Na_pv 19Sep2006                                             
   LULTRA =        F    use ultrasoft PP ?                                      
   IUNSCR =        1    unscreen: 0-lin 1-nonlin 2-no                           
   RPACOR =    1.800    partial core radius                                     
   POMASS =   22.990; ZVAL   =    7.000    mass and valenz                      
   RCORE  =    2.200    outmost cutoff radius                                   
   RWIGS  =    2.200; RWIGS  =    1.164    wigner-seitz radius (au A)           
   ENMAX  =  259.561; ENMIN  =  194.671 eV                                      
   ICORE  =        2    local potential                                         
   LCOR   =        T    correct aug charges                                     
   LPAW   =        T    paw PP                                                  
   EAUG   =  368.056                                                            
   DEXC   =    0.000                                                            
   RMAX   =    2.245    core radius for proj-oper                               
   RAUG   =    1.300    factor for augmentation sphere                          
   RDEP   =    2.259    radius for radial grids                                 
   RDEPT  =    1.738    core radius for aug-charge                              
                                                                                
   Atomic configuration                                                         
    5 entries                                                                   
     n  l   j            E        occ.                                          
     1  0  0.50     -1033.6933   2.0000                                         
     2  0  0.50       -56.7526   2.0000                                         
     2  1  1.50       -28.6721   6.0000                                         
     3  0  0.50        -2.7440   1.0000                                         
     3  2  1.50        -1.3606   0.0000                                         
   Description                                                                  
     l       E           TYP  RCUT    TYP  RCUT                                 
     1    -28.6720912     23  2.000                                             
     1      6.8029130     23  2.000                                             
     0     -2.7439560     23  2.200                                             
     0     34.0145650     23  2.200                                             
     2     -1.3605826     23  2.200                                             
  local pseudopotential read in
  partial core-charges read in
  partial kinetic energy density read in
  atomic valenz-charges read in
  non local Contribution for L=           1  read in
    real space projection operators read in
  non local Contribution for L=           1  read in
    real space projection operators read in
  non local Contribution for L=           0  read in
    real space projection operators read in
  non local Contribution for L=           0  read in
    real space projection operators read in
    PAW grid and wavefunctions read in
 
   number of l-projection  operators is LMAX  =           4
   number of lm-projection operators is LMMAX =           8
 
 POTCAR:    PAW_PBE Mg_pv 13Apr2007               
   VRHFIN =Mg: p6s2                                                             
   LEXCH  = PE                                                                  
   EATOM  =  1056.7344 eV,   77.6678 Ry                                         
                                                                                
   TITEL  = PAW_PBE Mg_pv 13Apr2007                                             
   LULTRA =        F    use ultrasoft PP ?                                      
   IUNSCR =        1    unscreen: 0-lin 1-nonlin 2-no                           
   RPACOR =    1.500    partial core radius                                     
   POMASS =   24.305; ZVAL   =    8.000    mass and valenz                      
   RCORE  =    2.000    outmost cutoff radius                                   
   RWIGS  =    2.000; RWIGS  =    1.058    wigner-seitz radius (au A)           
   ENMAX  =  403.929; ENMIN  =  302.947 eV                                      
   RCLOC  =    1.506    cutoff for local pot                                    
   LCOR   =        T    correct aug charges                                     
   LPAW   =        T    paw PP                                                  
   EAUG   =  758.780                                                            
   DEXC   =    0.000                                                            
   RMAX   =    2.045    core radius for proj-oper                               
   RAUG   =    1.300    factor for augmentation sphere                          
   RDEP   =    2.025    radius for radial grids                                 
   RDEPT  =    1.557    core radius for aug-charge                              
                                                                                
   Atomic configuration                                                         
    5 entries                                                                   
     n  l   j            E        occ.                                          
     1  0  0.50     -1259.6230   2.0000                                         
     2  0  0.50       -79.8442   2.0000                                         
     2  1  1.50       -46.6121   6.0000                                         
     3  0  0.50        -4.7055   2.0000                                         
     3  2  1.50        -1.3606   0.0000                                         
   Description                                                                  
     l       E           TYP  RCUT    TYP  RCUT                                 
     1    -46.6121073     23  1.600                                             
     1      2.7211652     23  1.600                                             
     0     -4.7054661     23  2.000                                             
     0     61.2262170     23  2.000                                             
     2     -1.3605826     23  2.000                                             
  local pseudopotential read in
  partial core-charges read in
  partial kinetic energy density read in
  atomic valenz-charges read in
  non local Contribution for L=           1  read in
    real space projection operators read in
  non local Contribution for L=           1  read in
    real space projection operators read in
  non local Contribution for L=           0  read in
    real space projection operators read in
  non local Contribution for L=           0  read in
    real space projection operators read in
  non local Contribution for L=           2  read in
    real space projection operators read in
    PAW grid and wavefunctions read in
 
   number of l-projection  operators is LMAX  =           5
   number of lm-projection operators is LMMAX =          13
 
 POTCAR:    PAW_PBE Mn_pv 02Aug2007               
   VRHFIN =Mn: 3p4s3d                                                           
   LEXCH  = PE                                                                  
   EATOM  =  2025.2664 eV,  148.8529 Ry                                         
                                                                                
   TITEL  = PAW_PBE Mn_pv 02Aug2007                                             
   LULTRA =        F    use ultrasoft PP ?                                      
   IUNSCR =        1    unscreen: 0-lin 1-nonlin 2-no                           
   RPACOR =    2.080    partial core radius                                     
   POMASS =   54.938; ZVAL   =   13.000    mass and valenz                      
   RCORE  =    2.300    outmost cutoff radius                                   
   RWIGS  =    2.500; RWIGS  =    1.323    wigner-seitz radius (au A)           
   ENMAX  =  269.864; ENMIN  =  202.398 eV                                      
   ICORE  =        3    local potential                                         
   LCOR   =        T    correct aug charges                                     
   LPAW   =        T    paw PP                                                  
   EAUG   =  569.085                                                            
   DEXC   =    0.000                                                            
   RMAX   =    2.343    core radius for proj-oper                               
   RAUG   =    1.300    factor for augmentation sphere                          
   RDEP   =    2.338    radius for radial grids                                 
   RDEPT  =    1.798    core radius for aug-charge                              
                                                                                
   Atomic configuration                                                         
    8 entries                                                                   
     n  l   j            E        occ.                                          
     1  0  0.50     -6424.8287   2.0000                                         
     2  0  0.50      -739.1154   2.0000                                         
     2  1  1.50      -625.3949   6.0000                                         
     3  0  0.50       -81.6100   2.0000                                         
     3  1  1.50       -50.4667   6.0000                                         
     3  2  2.50        -3.3745   6.0000                                         
     4  0  0.50        -4.1331   1.0000                                         
     4  3  2.50        -1.3606   0.0000                                         
   Description                                                                  
     l       E           TYP  RCUT    TYP  RCUT                                 
     1    -50.4666628     23  2.000                                             
     1     -1.3605826     23  2.000                                             
     2     -3.3744729     23  2.300                                             
     2     -4.7350555     23  2.300                                             
     0     -4.1331431     23  2.300                                             
     0      7.6656591     23  2.300                                             
     3      9.5240782     23  2.300                                             
  local pseudopotential read in
  partial core-charges read in
  partial kinetic energy density read in
  atomic valenz-charges read in
  non local Contribution for L=           1  read in
    real space projection operators read in
  non local Contribution for L=           1  read in
    real space projection operators read in
  non local Contribution for L=           2  read in
    real space projection operators read in
  non local Contribution for L=           2  read in
    real space projection operators read in
  non local Contribution for L=           0  read in
    real space projection operators read in
  non local Contribution for L=           0  read in
    real space projection operators read in
    PAW grid and wavefunctions read in
 
   number of l-projection  operators is LMAX  =           6
   number of lm-projection operators is LMMAX =          18
 
 POTCAR:    PAW_PBE O 08Apr2002                   
   VRHFIN =O: s2p4                                                              
   LEXCH  = PE                                                                  
   EATOM  =   432.3788 eV,   31.7789 Ry                                         
                                                                                
   TITEL  = PAW_PBE O 08Apr2002                                                 
   LULTRA =        F    use ultrasoft PP ?                                      
   IUNSCR =        1    unscreen: 0-lin 1-nonlin 2-no                           
   RPACOR =    1.200    partial core radius                                     
   POMASS =   16.000; ZVAL   =    6.000    mass and valenz                      
   RCORE  =    1.520    outmost cutoff radius                                   
   RWIGS  =    1.550; RWIGS  =    0.820    wigner-seitz radius (au A)           
   ENMAX  =  400.000; ENMIN  =  300.000 eV                                      
   ICORE  =        2    local potential                                         
   LCOR   =        T    correct aug charges                                     
   LPAW   =        T    paw PP                                                  
   EAUG   =  605.392                                                            
   DEXC   =    0.000                                                            
   RMAX   =    1.553    core radius for proj-oper                               
   RAUG   =    1.300    factor for augmentation sphere                          
   RDEP   =    1.550    radius for radial grids                                 
   RDEPT  =    1.329    core radius for aug-charge                              
                                                                                
   Atomic configuration                                                         
    4 entries                                                                   
     n  l   j            E        occ.                                          
     1  0  0.50      -514.6923   2.0000                                         
     2  0  0.50       -23.9615   2.0000                                         
     2  1  0.50        -9.0305   4.0000                                         
     3  2  1.50        -9.5241   0.0000                                         
   Description                                                                  
     l       E           TYP  RCUT    TYP  RCUT                                 
     0    -23.9615318     23  1.200                                             
     0     -9.5240782     23  1.200                                             
     1     -9.0304911     23  1.520                                             
     1      8.1634956     23  1.520                                             
     2     -9.5240782      7  1.500                                             
  local pseudopotential read in
  partial core-charges read in
  partial kinetic energy density read in
  kinetic energy density of atom read in
  atomic valenz-charges read in
  non local Contribution for L=           0  read in
    real space projection operators read in
  non local Contribution for L=           0  read in
    real space projection operators read in
  non local Contribution for L=           1  read in
    real space projection operators read in
  non local Contribution for L=           1  read in
    real space projection operators read in
    PAW grid and wavefunctions read in
 
   number of l-projection  operators is LMAX  =           4
   number of lm-projection operators is LMMAX =           8
 
 Optimization of the real space projectors (new method)

 maximal supplied QI-value         = 17.01
 optimisation between [QCUT,QGAM] = [ 10.20, 20.41] = [ 29.16,116.64] Ry 
 Optimized for a Real-space Cutoff    1.30 Angstroem

   l    n(q)    QCUT    max X(q) W(low)/X(q) W(high)/X(q)  e(spline) 
   1      7    10.205     4.940    0.23E-03    0.84E-03    0.11E-06
   1      7    10.205     6.253    0.40E-03    0.13E-02    0.18E-06
   0      8    10.205    37.438    0.23E-03    0.37E-03    0.42E-07
   0      8    10.205     9.606    0.16E-03    0.26E-03    0.31E-07
 Optimization of the real space projectors (new method)

 maximal supplied QI-value         = 18.90
 optimisation between [QCUT,QGAM] = [ 10.20, 20.41] = [ 29.16,116.64] Ry 
 Optimized for a Real-space Cutoff    1.26 Angstroem

   l    n(q)    QCUT    max X(q) W(low)/X(q) W(high)/X(q)  e(spline) 
   1      7    10.205     2.974    0.63E-04    0.14E-03    0.13E-06
   1      7    10.205     4.279    0.11E-03    0.45E-03    0.24E-06
   0      8    10.205    16.381    0.44E-03    0.15E-03    0.55E-07
   0      8    10.205     5.611    0.31E-03    0.11E-03    0.40E-07
   2      7    10.205     4.652    0.50E-03    0.47E-03    0.57E-07
 Optimization of the real space projectors (new method)

 maximal supplied QI-value         = 16.25
 optimisation between [QCUT,QGAM] = [ 10.24, 20.48] = [ 29.35,117.42] Ry 
 Optimized for a Real-space Cutoff    1.34 Angstroem

   l    n(q)    QCUT    max X(q) W(low)/X(q) W(high)/X(q)  e(spline) 
   1      8    10.239     3.658    0.23E-03    0.30E-03    0.98E-07
   1      8    10.239     5.612    0.32E-03    0.65E-03    0.21E-06
   2      7    10.239    55.373    0.42E-03    0.45E-03    0.65E-07
   2      7    10.239    50.863    0.43E-03    0.48E-03    0.67E-07
   0      8    10.239    79.536    0.11E-03    0.21E-03    0.56E-07
   0      8    10.239    38.668    0.96E-04    0.19E-03    0.52E-07
 Optimization of the real space projectors (new method)

 maximal supplied QI-value         = 24.76
 optimisation between [QCUT,QGAM] = [ 10.15, 20.30] = [ 28.85,115.39] Ry 
 Optimized for a Real-space Cutoff    1.38 Angstroem

   l    n(q)    QCUT    max X(q) W(low)/X(q) W(high)/X(q)  e(spline) 
   0      8    10.150    20.381    0.22E-03    0.32E-03    0.29E-06
   0      8    10.150    15.268    0.23E-03    0.35E-03    0.30E-06
   1      8    10.150     5.964    0.46E-03    0.53E-03    0.21E-06
   1      8    10.150     5.382    0.38E-03    0.45E-03    0.19E-06
  PAW_PBE Na_pv 19Sep2006               :
 energy of atom  1       EATOM= -766.0439
 kinetic energy error for atom=    0.0103 (will be added to EATOM!!)
  PAW_PBE Mg_pv 13Apr2007               :
 energy of atom  2       EATOM=-1056.7344
 kinetic energy error for atom=    0.0820 (will be added to EATOM!!)
  PAW_PBE Mn_pv 02Aug2007               :
 energy of atom  3       EATOM=-2025.2664
 kinetic energy error for atom=    0.0284 (will be added to EATOM!!)
  PAW_PBE O 08Apr2002                   :
 energy of atom  4       EATOM= -432.3788
 kinetic energy error for atom=    0.1156 (will be added to EATOM!!)
 
 
 POSCAR: Na Mg Mn  O                             
  positions in cartesian coordinates
  No initial velocities read in

 METAGGA = SCAN     LMAXTAU =  6    LMIXTAU =  F

 exchange correlation table for  LEXCH =        8
   RHO(1)=    0.500       N(1)  =     2000
   RHO(2)=  100.500       N(2)  =     4000

 VTST: version 3.2, (02/03/18)

 CHAIN: initializing optimizer
 
 OPT: Using VASP Dynamics algorithm
 CHAIN: Read ICHAIN            0
 
 POSCAR: Na Mg Mn  O                             
  positions in cartesian coordinates
  No initial velocities read in
 


--------------------------------------------------------------------------------------------------------


 ion  position               nearest neighbor table
   1  0.438  0.868  0.247-  51 2.23  42 2.29  79 2.31  88 2.38  29 2.98
   2  0.515  0.746  0.758-  85 2.22  84 2.29  82 2.35
   3  0.894  0.954  0.755-  61 2.27  72 2.33
   4  0.718  0.155  0.754-  60 2.30  49 2.35
   5  0.069  0.663  0.247-  76 2.35  67 2.36  77 2.37
   6  0.215  0.452  0.238-  77 2.29  78 2.35
   7  0.989  0.708  0.750-  73 2.17  70 2.20  69 2.35
   8  0.376  0.967  0.735-  44 2.23  46 2.28
   9  0.860  0.132  0.254-  62 2.13  53 2.28  64 2.38  32 2.78  30 2.89
  10  0.723  0.451  0.255-  66 2.34
  11  0.059  0.963  0.239-  54 2.36  67 2.36  41 2.37  25 2.76  27 2.98
  12  0.072  0.454  0.752-  83 2.25  57 2.30  80 2.33  37 2.86  39 2.90
  13  0.232  0.168  0.749-  45 2.25  58 2.34  48 2.38
  14  0.581  0.473  0.756-  71 2.25  82 2.37  35 2.77  33 2.79
  15  0.579  0.650  0.266-  88 2.25  74 2.30  65 2.31  87 2.37
  16  0.394  0.158  0.255-  43 2.34  52 2.35  50 2.35  28 2.85  26 2.96
  17  0.716  0.304  0.999-  71 1.99  43 2.01  60 2.01  66 2.07  49 2.16  53 2.17  37 2.78  33 2.82
                            26 2.84  34 2.86
  18  0.718  0.288  0.499-  52 1.99  68 2.02  46 2.03  62 2.03  75 2.15  57 2.16
  19  0.214  0.299  0.000-  83 1.97  55 1.99  78 2.01  41 2.06  61 2.10  48 2.18  38 2.82  25 2.83

  20  0.237  0.303  0.502-  50 1.95  87 2.03  80 2.04  45 2.05  58 2.08  64 2.18  28 2.80  35 2.82
                            40 2.84
  21  0.218  0.802  0.997-  67 1.97  42 1.98  84 2.03  47 2.04  77 2.15  73 2.15  29 2.85
  22  0.228  0.793  0.502-  81 1.98  70 1.98  86 2.11  51 2.12  44 2.13  76 2.14  39 2.83  31 2.85

  23  0.719  0.796  0.006-  72 2.02  79 2.03  54 2.03  65 2.06  85 2.08  59 2.12  34 2.80  30 2.83

  24  0.720  0.799  0.498-  56 1.99  88 2.00  63 2.05  74 2.09  69 2.09  82 2.16  40 2.79  31 2.81

  25  0.057  0.974  0.993-  41 1.84  61 1.89  47 1.94  54 1.95  72 1.95  67 1.98  11 2.76  19 2.83
                            26 2.89  30 2.89  34 2.96
  26  0.390  0.133  0.992-  49 1.87  48 1.87  42 1.88  43 1.91  41 1.91  47 2.02  29 2.84  17 2.84
                            33 2.87  25 2.89  16 2.96
  27  0.053  0.961  0.504-  69 1.88  58 1.90  63 1.91  76 1.91  44 1.92  50 2.01  32 2.84  28 2.91
                            36 2.91  11 2.98
  28  0.388  0.131  0.508-  45 1.85  46 1.89  44 1.91  50 1.92  52 1.92  51 1.95  20 2.80  16 2.85
                            35 2.88  27 2.91  31 2.96
  29  0.546  0.962  0.997-  84 1.88  49 1.89  79 1.91  42 1.91  59 1.91  53 1.93  30 2.83  26 2.84
                            21 2.85  38 2.93   1 2.98
  30  0.872  0.122  0.997-  53 1.86  54 1.93  59 1.94  61 1.96  55 1.96  60 2.03  29 2.83  23 2.83
                             9 2.89  25 2.89  37 2.92
  31  0.556  0.958  0.498-  81 1.82  46 1.90  88 1.90  56 1.92  62 1.95  51 1.99  24 2.81  40 2.85
                            22 2.85  32 2.94  28 2.96
  32  0.895  0.130  0.500-  63 1.89  64 1.89  56 1.92  62 1.93  58 1.97  57 2.04   9 2.78  27 2.84
                            39 2.92  31 2.94
  33  0.550  0.463  0.003-  48 1.88  43 1.89  65 1.89  78 1.91  71 1.92  85 1.93  14 2.79  17 2.82
                            34 2.85  26 2.87  38 2.92
  34  0.879  0.633  0.002-  71 1.83  67 1.89  72 1.89  73 1.93  66 1.98  65 2.05  23 2.80  33 2.85
                            17 2.86  37 2.89  25 2.96
  35  0.562  0.462  0.509-  87 1.85  52 1.87  82 1.88  74 1.90  68 1.94  45 1.96  14 2.77  20 2.82
                            36 2.87  40 2.88  28 2.88
  36  0.893  0.626  0.496-  68 1.85  75 1.87  70 1.91  74 1.93  76 1.95  69 2.00  35 2.87  39 2.89
                            27 2.91
  37  0.037  0.458  0.005-  66 1.89  73 1.90  60 1.92  55 1.93  77 1.95  83 1.96  17 2.78  12 2.86
                            34 2.89  30 2.92  38 2.93
  38  0.375  0.624  0.998-  83 1.86  85 1.88  84 1.91  78 1.93  77 1.97  79 2.01  19 2.82  33 2.92
                            37 2.93  29 2.93
  39  0.066  0.466  0.494-  80 1.86  75 1.86  86 1.90  57 1.98  70 1.99  64 1.99  22 2.83  40 2.89
                            36 2.89  12 2.90  32 2.92
  40  0.399  0.631  0.499-  87 1.88  88 1.91  82 1.92  80 1.94  81 1.96  86 1.96  24 2.79  20 2.84
                            31 2.85  35 2.88  39 2.89
  41  0.220  0.117  0.082-  25 1.84  26 1.91  19 2.06  11 2.37
  42  0.389  0.975  0.084-  26 1.88  29 1.91  21 1.98   1 2.29
  43  0.539  0.296  0.089-  33 1.89  26 1.91  17 2.01  16 2.34
  44  0.220  0.973  0.596-  28 1.91  27 1.92  22 2.13   8 2.23
  45  0.403  0.290  0.602-  28 1.85  35 1.96  20 2.05  13 2.25
  46  0.543  0.112  0.589-  28 1.89  31 1.90  18 2.03   8 2.28
  47  0.215  0.969  0.895-  25 1.94  26 2.02  21 2.04
  48  0.406  0.301  0.907-  26 1.87  33 1.88  19 2.18  13 2.38
  49  0.536  0.113  0.902-  26 1.87  29 1.89  17 2.16   4 2.35
  50  0.228  0.131  0.413-  28 1.92  20 1.95  27 2.01  16 2.35
  51  0.400  0.981  0.404-  28 1.95  31 1.99  22 2.12   1 2.23
  52  0.546  0.299  0.418-  35 1.87  28 1.92  18 1.99  16 2.35
  53  0.715  0.113  0.091-  30 1.86  29 1.93  17 2.17   9 2.28
  54  0.897  0.974  0.092-  30 1.93  25 1.95  23 2.03  11 2.36
  55  0.037  0.290  0.089-  37 1.93  30 1.96  19 1.99
  56  0.724  0.972  0.588-  31 1.92  32 1.92  24 1.99
  57  0.910  0.307  0.601-  39 1.98  32 2.04  18 2.16  12 2.30
  58  0.057  0.124  0.595-  27 1.90  32 1.97  20 2.08  13 2.34
  59  0.707  0.966  0.902-  29 1.91  30 1.94  23 2.12
  60  0.885  0.301  0.904-  37 1.92  17 2.01  30 2.03   4 2.30
  61  0.036  0.121  0.902-  25 1.89  30 1.96  19 2.10   3 2.27
  62  0.728  0.119  0.407-  32 1.93  31 1.95  18 2.03   9 2.13
  63  0.902  0.975  0.410-  32 1.89  27 1.91  24 2.05
  64  0.044  0.287  0.401-  32 1.89  39 1.99  20 2.18   9 2.38
  65  0.701  0.614  0.104-  33 1.89  34 2.05  23 2.06  15 2.31
  66  0.890  0.475  0.100-  37 1.89  34 1.98  17 2.07  10 2.34
  67  0.044  0.797  0.083-  34 1.89  21 1.97  25 1.98   5 2.36  11 2.36
  68  0.740  0.473  0.588-  36 1.85  35 1.94  18 2.02
  69  0.898  0.796  0.593-  27 1.88  36 2.00  24 2.09   7 2.35
  70  0.052  0.626  0.590-  36 1.91  22 1.98  39 1.99   7 2.20
  71  0.722  0.481  0.914-  34 1.83  33 1.92  17 1.99  14 2.25
  72  0.891  0.798  0.910-  34 1.89  25 1.95  23 2.02   3 2.33
  73  0.029  0.610  0.909-  37 1.90  34 1.93  21 2.15   7 2.17
  74  0.719  0.614  0.412-  35 1.90  36 1.93  24 2.09  15 2.30
  75  0.911  0.477  0.410-  39 1.86  36 1.87  18 2.15
  76  0.048  0.803  0.407-  27 1.91  36 1.95  22 2.14   5 2.35
  77  0.208  0.616  0.098-  37 1.95  38 1.97  21 2.15   6 2.29   5 2.37
  78  0.390  0.470  0.091-  33 1.91  38 1.93  19 2.01   6 2.35
  79  0.542  0.801  0.090-  29 1.91  38 2.01  23 2.03   1 2.31
  80  0.224  0.475  0.588-  39 1.86  40 1.94  20 2.04  12 2.33
  81  0.406  0.804  0.586-  31 1.82  40 1.96  22 1.98
  82  0.543  0.610  0.599-  35 1.88  40 1.92  24 2.16   2 2.35  14 2.37
  83  0.210  0.469  0.915-  38 1.86  37 1.96  19 1.97  12 2.25
  84  0.393  0.796  0.910-  29 1.88  38 1.91  21 2.03   2 2.29
  85  0.534  0.620  0.914-  38 1.88  33 1.93  23 2.08   2 2.22
  86  0.231  0.617  0.401-  39 1.90  40 1.96  22 2.11
  87  0.419  0.478  0.416-  35 1.85  40 1.88  20 2.03  15 2.37
  88  0.549  0.796  0.404-  31 1.90  40 1.91  24 2.00  15 2.25   1 2.38
 
  LATTYP: Found a hexagonal cell.
 ALAT       =    10.0190000534
 C/A-ratio  =     1.1196726572
  
  Lattice vectors:
  
 A1 = (  10.0190000534,   0.0000000000,   0.0000000000)
 A2 = (  -5.0095000267,   8.6767085668,   0.0000000000)
 A3 = (   0.0000000000,   0.0000000000,  11.2180004120)


Analysis of symmetry for initial positions (statically):
=====================================================================
 Subroutine PRICEL returns:
 Original cell was already a primitive cell.
 

 Routine SETGRP: Setting up the symmetry group for a 
 hexagonal supercell.


 Subroutine GETGRP returns: Found  1 space group operations
 (whereof  1 operations were pure point group operations)
 out of a pool of 24 trial point group operations.


The static configuration has the point symmetry C_1 .


Analysis of symmetry for dynamics (positions and initial velocities):
=====================================================================
 Subroutine PRICEL returns:
 Original cell was already a primitive cell.
 

 Routine SETGRP: Setting up the symmetry group for a 
 hexagonal supercell.


 Subroutine GETGRP returns: Found  1 space group operations
 (whereof  1 operations were pure point group operations)
 out of a pool of 24 trial point group operations.


The dynamic configuration has the point symmetry C_1 .


Analysis of structural, dynamic, and magnetic symmetry:
=====================================================================
 Subroutine PRICEL returns:
 Original cell was already a primitive cell.
 

 Routine SETGRP: Setting up the symmetry group for a 
 hexagonal supercell.


 Subroutine GETGRP returns: Found  1 space group operations
 (whereof  1 operations were pure point group operations)
 out of a pool of 24 trial point group operations.


The magnetic configuration has the point symmetry C_1 .


 Subroutine INISYM returns: Found  1 space group operations
 (whereof  1 operations are pure point group operations),
 and found     1 'primitive' translations

 
 

Automatic generation of k-mesh.
 generate k-points for:    2    2    2
Space group operators:
 irot       det(A)        alpha          n_x          n_y          n_z        tau_x        tau_y        tau_z
    1     1.000000     0.000000     1.000000     0.000000     0.000000     0.000000     0.000000     0.000000
 
 Subroutine IBZKPT returns following result:
 ===========================================
 
 Found      8 irreducible k-points:
 
 Following reciprocal coordinates:
            Coordinates               Weight
  0.000000  0.000000  0.000000      1.000000
  0.500000 -0.000000 -0.000000      1.000000
  0.000000  0.500000  0.000000      1.000000
  0.500000  0.500000 -0.000000      1.000000
  0.000000  0.000000  0.500000      1.000000
  0.500000 -0.000000  0.500000      1.000000
  0.000000  0.500000  0.500000      1.000000
  0.500000  0.500000  0.500000      1.000000
 
 Following cartesian coordinates:
            Coordinates               Weight
  0.000000  0.000000  0.000000      1.000000
  0.049905  0.028813 -0.000000      1.000000
  0.000000  0.057626  0.000000      1.000000
  0.049905  0.086438 -0.000000      1.000000
  0.000000  0.000000  0.044571      1.000000
  0.049905  0.028813  0.044571      1.000000
  0.000000  0.057626  0.044571      1.000000
  0.049905  0.086438  0.044571      1.000000
 


--------------------------------------------------------------------------------------------------------




 Dimension of arrays:
   k-points           NKPTS =      8   k-points in BZ     NKDIM =      8   number of bands    NBANDS=    480
   number of dos      NEDOS =    301   number of ions     NIONS =     88
   non local maximal  LDIM  =      6   non local SUM 2l+1 LMDIM =     18
   total plane-waves  NPLWV = 140000
   max r-space proj   IRMAX =   1632   max aug-charges    IRDMAX=   4555
   dimension x,y,z NGX =    50 NGY =   50 NGZ =   56
   dimension x,y,z NGXF=   100 NGYF=  100 NGZF=  112
   support grid    NGXF=   100 NGYF=  100 NGZF=  112
   ions per type =              16   8  16  48
   NGX,Y,Z   is equivalent  to a cutoff of   8.30,  8.30,  8.30 a.u.
   NGXF,Y,Z  is equivalent  to a cutoff of  16.59, 16.59, 16.60 a.u.

 SYSTEM =  unknown system                          
 POSCAR =  Na Mg Mn  O                             

 Startparameter for this run:
   NWRITE =      2    write-flag & timer
   PREC   = normal    normal or accurate (medium, high low for compatibility)
   ISTART =      0    job   : 0-new  1-cont  2-samecut
   ICHARG =      1    charge: 1-file 2-atom 10-const
   ISPIN  =      2    spin polarized calculation?
   LNONCOLLINEAR =      F non collinear calculations
   LSORBIT =      F    spin-orbit coupling
   INIWAV =      1    electr: 0-lowe 1-rand  2-diag
   LASPH  =      T    aspherical Exc in radial PAW
   METAGGA=      F    non-selfconsistent MetaGGA calc.

 Electronic Relaxation 1
   ENCUT  =  400.0 eV  29.40 Ry    5.42 a.u.  16.34 16.34 18.29*2*pi/ulx,y,z
   ENINI  =  400.0     initial cutoff
   ENAUG  =  758.8 eV  augmentation charge cutoff
   NELM   =    200;   NELMIN=  6; NELMDL=-12     # of ELM steps 
   EDIFF  = 0.1E-04   stopping-criterion for ELM
   LREAL  =      T    real-space projection
   NLSPLINE    = F    spline interpolate recip. space projectors
   LCOMPAT=      F    compatible to vasp.4.4
   GGA_COMPAT  = T    GGA compatible to vasp.4.4-vasp.4.6
   LMAXPAW     = -100 max onsite density
   LMAXMIX     =    4 max onsite mixed and CHGCAR
   VOSKOWN=      0    Vosko Wilk Nusair interpolation
   ROPT   =   -0.00050  -0.00050  -0.00050  -0.00050
 Ionic relaxation
   EDIFFG = 0.1E-03   stopping-criterion for IOM
   NSW    =      1    number of steps for IOM
   NBLOCK =      1;   KBLOCK =      1    inner block; outer block 
   IBRION =     -1    ionic relax: 0-MD 1-quasi-New 2-CG
   NFREE  =      0    steps in history (QN), initial steepest desc. (CG)
   ISIF   =      2    stress and relaxation
   IWAVPR =     10    prediction:  0-non 1-charg 2-wave 3-comb
   ISYM   =      2    0-nonsym 1-usesym 2-fastsym
   LCORR  =      T    Harris-Foulkes like correction to forces

   POTIM  = 0.5000    time-step for ionic-motion
   TEIN   =    0.0    initial temperature
   TEBEG  =    0.0;   TEEND  =   0.0 temperature during run
   SMASS  =  -3.00    Nose mass-parameter (am)
   estimated Nose-frequenzy (Omega)   =  0.10E-29 period in steps =****** mass=  -0.229E-26a.u.
   SCALEE = 1.0000    scale energy and forces
   NPACO  =    256;   APACO  = 16.0  distance and # of slots for P.C.
   PSTRESS=    0.0 pullay stress

  Mass of Ions in am
   POMASS =  22.99 24.30 54.94 16.00
  Ionic Valenz
   ZVAL   =   7.00  8.00 13.00  6.00
  Atomic Wigner-Seitz radii
   RWIGS  =  -1.00 -1.00 -1.00 -1.00
  virtual crystal weights 
   VCA    =   1.00  1.00  1.00  1.00
   NELECT =     672.0000    total number of electrons
   NUPDOWN=      48.0000    fix difference up-down

 DOS related values:
   EMIN   =  10.00;   EMAX   =-10.00  energy-range for DOS
   EFERMI =   0.00
   ISMEAR =     0;   SIGMA  =   0.05  broadening in eV -4-tet -1-fermi 0-gaus

 Electronic relaxation 2 (details)
   IALGO  =     48    algorithm
   LDIAG  =      T    sub-space diagonalisation (order eigenvalues)
   LSUBROT=      F    optimize rotation matrix (better conditioning)
   TURBO    =      0    0=normal 1=particle mesh
   IRESTART =      0    0=no restart 2=restart with 2 vectors
   NREBOOT  =      0    no. of reboots
   NMIN     =      0    reboot dimension
   EREF     =   0.00    reference energy to select bands
   IMIX   =      4    mixing-type and parameters
     AMIX     =   0.40;   BMIX     =  1.00
     AMIX_MAG =   1.60;   BMIX_MAG =  1.00
     AMIN     =   0.10
     WC   =   100.;   INIMIX=   1;  MIXPRE=   1;  MAXMIX= -45

 Intra band minimization:
   WEIMIN = 0.0000     energy-eigenvalue tresh-hold
   EBREAK =  0.52E-08  absolut break condition
   DEPER  =   0.30     relativ break condition  

   TIME   =   0.40     timestep for ELM

  volume/ion in A,a.u.               =      11.08        74.78
  Fermi-wavevector in a.u.,A,eV,Ry     =   1.445993  2.732531 28.448379  2.090897
  Thomas-Fermi vector in A             =   2.564112
 
 Write flags
   LWAVE        =      F    write WAVECAR
   LDOWNSAMPLE  =      F    k-point downsampling of WAVECAR
   LCHARG       =      F    write CHGCAR
   LVTOT        =      F    write LOCPOT, total local potential
   LVHAR        =      F    write LOCPOT, Hartree potential only
   LELF         =      F    write electronic localiz. function (ELF)
   LORBIT       =     11    0 simple, 1 ext, 2 COOP (PROOUT), +10 PAW based schemes


 Dipole corrections
   LMONO  =      F    monopole corrections only (constant potential shift)
   LDIPOL =      F    correct potential (dipole corrections)
   IDIPOL =      0    1-x, 2-y, 3-z, 4-all directions 
   EPSILON=  1.0000000 bulk dielectric constant

 Exchange correlation treatment:
   GGA     =    --    GGA type
   LEXCH   =     8    internal setting for exchange type
   VOSKOWN=      0    Vosko Wilk Nusair interpolation
   LHFCALC =     F    Hartree Fock is set to
   LHFONE  =     F    Hartree Fock one center treatment
   AEXX    =    0.0000 exact exchange contribution

 Linear response parameters
   LEPSILON=     F    determine dielectric tensor
   LRPA    =     F    only Hartree local field effects (RPA)
   LNABLA  =     F    use nabla operator in PAW spheres
   LVEL    =     F    velocity operator in full k-point grid
   LINTERFAST=   F  fast interpolation
   KINTER  =     0    interpolate to denser k-point grid
   CSHIFT  =0.1000    complex shift for real part using Kramers Kronig
   OMEGAMAX=  -1.0    maximum frequency
   DEG_THRESHOLD= 0.2000000E-02 threshold for treating states as degnerate
   RTIME   =   -0.100 relaxation time in fs
  (WPLASMAI=    0.000 imaginary part of plasma frequency in eV, 0.658/RTIME)
   DFIELD  = 0.0000000 0.0000000 0.0000000 field for delta impulse in time
 
 Orbital magnetization related:
   ORBITALMAG=     F  switch on orbital magnetization
   LCHIMAG   =     F  perturbation theory with respect to B field
   DQ        =  0.001000  dq finite difference perturbation B field
   LLRAUG    =     F  two centre corrections for induced B field



--------------------------------------------------------------------------------------------------------


 Static calculation
 charge density and potential will be updated during run
 spin polarized calculation
 RMM-DIIS sequential band-by-band
 perform sub-space diagonalisation
    before iterative eigenvector-optimisation
 modified Broyden-mixing scheme, WC =      100.0
 initial mixing is a Kerker type mixing with AMIX =  0.4000 and BMIX =      1.0000
 Hartree-type preconditioning will be used
 using additional bands          144
 real space projection scheme for non local part
 use partial core corrections
 calculate Harris-corrections to forces 
   (improved forces if not selfconsistent)
 use gradient corrections 
 use of overlap-Matrix (Vanderbilt PP)
 Gauss-broadening in eV      SIGMA  =   0.05


--------------------------------------------------------------------------------------------------------


  energy-cutoff  :      400.00
  volume of cell :      975.20
      direct lattice vectors                 reciprocal lattice vectors
    10.019000053  0.000000000  0.000000000     0.099810360  0.057625538 -0.000000000
    -5.009500027  8.676708567  0.000000000     0.000000000  0.115251076  0.000000000
     0.000000000  0.000000000 11.218000412     0.000000000  0.000000000  0.089142446

  length of vectors
    10.019000053 10.019000053 11.218000412     0.115251076  0.115251076  0.089142446


 
 k-points in units of 2pi/SCALE and weight: read from INCAR                         
   0.00000000  0.00000000  0.00000000       0.125
   0.04990518  0.02881277 -0.00000000       0.125
   0.00000000  0.05762554  0.00000000       0.125
   0.04990518  0.08643831 -0.00000000       0.125
   0.00000000  0.00000000  0.04457122       0.125
   0.04990518  0.02881277  0.04457122       0.125
   0.00000000  0.05762554  0.04457122       0.125
   0.04990518  0.08643831  0.04457122       0.125
 
 k-points in reciprocal lattice and weights: read from INCAR                         
   0.00000000  0.00000000  0.00000000       0.125
   0.50000000 -0.00000000 -0.00000000       0.125
   0.00000000  0.50000000  0.00000000       0.125
   0.50000000  0.50000000 -0.00000000       0.125
   0.00000000  0.00000000  0.50000000       0.125
   0.50000000 -0.00000000  0.50000000       0.125
   0.00000000  0.50000000  0.50000000       0.125
   0.50000000  0.50000000  0.50000000       0.125
 
 position of ions in fractional coordinates (direct lattice) 
   0.43823013  0.86788654  0.24661347
   0.51492904  0.74629484  0.75849525
   0.89399472  0.95361473  0.75481634
   0.71845979  0.15499524  0.75443213
   0.06859703  0.66300701  0.24702620
   0.21483571  0.45182933  0.23756462
   0.98912905  0.70831105  0.75026116
   0.37565516  0.96700650  0.73513280
   0.85971626  0.13232799  0.25420395
   0.72260848  0.45098602  0.25516847
   0.05911269  0.96308014  0.23884560
   0.07222419  0.45429768  0.75210997
   0.23224066  0.16758544  0.74872969
   0.58054743  0.47330159  0.75579869
   0.57901795  0.64980154  0.26607416
   0.39400946  0.15827546  0.25526474
   0.71618196  0.30408766  0.99916552
   0.71790971  0.28849534  0.49901852
   0.21444955  0.29935084  0.00025043
   0.23704366  0.30268160  0.50221071
   0.21790374  0.80239297  0.99693346
   0.22764756  0.79269805  0.50199053
   0.71850989  0.79552862  0.00551503
   0.72016911  0.79932614  0.49766356
   0.05681322  0.97365838  0.99317707
   0.38954165  0.13263555  0.99225002
   0.05253937  0.96118015  0.50445265
   0.38758407  0.13079845  0.50795060
   0.54608129  0.96242947  0.99675518
   0.87245323  0.12184229  0.99711175
   0.55598672  0.95844754  0.49754054
   0.89488725  0.13033744  0.50016490
   0.55007094  0.46341766  0.00341292
   0.87886980  0.63318826  0.00164930
   0.56236838  0.46246108  0.50939738
   0.89279524  0.62627320  0.49617577
   0.03688806  0.45831550  0.00472464
   0.37454378  0.62443840  0.99844899
   0.06609859  0.46619060  0.49379210
   0.39888418  0.63050176  0.49918789
   0.22013901  0.11746735  0.08154020
   0.38910836  0.97534618  0.08399251
   0.53869930  0.29599127  0.08914690
   0.21980539  0.97260009  0.59638436
   0.40257150  0.29003971  0.60172488
   0.54322389  0.11196331  0.58855052
   0.21464379  0.96949120  0.89525759
   0.40623531  0.30103235  0.90697091
   0.53572681  0.11310648  0.90203241
   0.22837710  0.13140236  0.41321000
   0.39994753  0.98087120  0.40392849
   0.54602746  0.29851066  0.41831965
   0.71517854  0.11253495  0.09118916
   0.89668801  0.97377128  0.09156534
   0.03744547  0.28994635  0.08867472
   0.72440665  0.97184555  0.58809590
   0.90959428  0.30719137  0.60071223
   0.05696936  0.12376006  0.59452752
   0.70659216  0.96616367  0.90160453
   0.88481303  0.30128591  0.90377961
   0.03552641  0.12087418  0.90206807
   0.72756039  0.11867403  0.40736315
   0.90218213  0.97511983  0.40952307
   0.04422812  0.28671356  0.40107237
   0.70092570  0.61396438  0.10449902
   0.89030858  0.47527930  0.10037261
   0.04409072  0.79730810  0.08338055
   0.73965133  0.47309645  0.58827240
   0.89803426  0.79648175  0.59282223
   0.05212472  0.62608995  0.58957299
   0.72189183  0.48086322  0.91423602
   0.89119028  0.79765155  0.91045638
   0.02881049  0.61013920  0.90905684
   0.71947885  0.61432051  0.41169547
   0.91079963  0.47658279  0.41003475
   0.04798076  0.80325966  0.40653056
   0.20801568  0.61559518  0.09796933
   0.38989852  0.46950061  0.09073988
   0.54249717  0.80144907  0.08990729
   0.22361282  0.47531388  0.58777320
   0.40614255  0.80351552  0.58592260
   0.54270916  0.60993175  0.59918432
   0.20987345  0.46898775  0.91458367
   0.39266678  0.79581675  0.91038506
   0.53419953  0.61970158  0.91412904
   0.23081723  0.61692979  0.40080851
   0.41860001  0.47848559  0.41633356
   0.54875504  0.79645409  0.40384470
 
 position of ions in cartesian coordinates  (Angst):
   0.04295003  7.53039857  2.76651000
   1.42051005  6.47538287  8.50880000
   4.17980011  8.27423713  8.46753000
   6.42179997  1.34484857  8.46322000
  -2.63405997  5.75271857  2.77114000
  -0.11100008  3.92039143  2.66500000
   6.36179976  6.14580857  8.41643000
  -1.08052997  8.39043357  8.24672000
   7.95060013  1.14817143  2.85166000
   4.98059992  3.91307430  2.86248000
  -4.23229995  8.35636573  2.67937000
  -1.55219003  3.94180857  8.43717000
   1.48729995  1.45409000  8.39925000
   3.44550037  4.10670000  8.47855000
   2.54600003  5.63813857  2.98482000
   3.15469995  1.37331000  2.86356000
   5.65210000  2.63848000 11.20863922
   5.74752000  2.50319000  5.59799000
   0.64897200  2.59738000  0.00280932
   0.85865700  2.62628000  5.63380000
  -1.83641000  6.96213000 11.18360000
  -1.69022000  6.87801000  5.63133000
   3.21355000  6.90257000  0.06186760
   3.21115000  6.93552000  5.58279000
  -4.30833005  8.44815000 11.14146081
   3.23838000  1.15084000 11.13106111
  -4.28864005  8.33988000  5.65895000
   3.22797000  1.13490000  5.69819000
   0.64989800  8.35072000 11.18160000
   8.13074000  1.05719000 11.18560000
   0.76908800  8.31617000  5.58141000
   8.31295000  1.13090000  5.61085000
   3.18967000  4.02094000  0.03828610
   5.63344000  5.49399000  0.01850190
   3.31767000  4.01264000  5.71442000
   5.80760000  5.43399000  5.56610000
  -1.92635005  3.97667000  0.05300100
   0.62443000  5.41807000 11.20060121
  -1.67314005  4.04500000  5.53936000
   0.83792200  5.47068000  5.59989000
   1.61712000  1.01923000  0.91471800
  -0.98752003  8.46279457  0.94222800
   3.91446000  2.56823000  1.00005000
  -2.67001003  8.43896757  6.69024000
   2.58041000  2.51659000  6.75015000
   4.88168000  0.97147300  6.60236000
  -2.70615003  8.41199257 10.04300000
   2.56205000  2.61197000 10.17440000
   4.80084000  0.98139200 10.11900000
   1.62985000  1.14014000  4.63539000
  -0.90660003  8.51073357  4.53127000
   3.97526000  2.59009000  4.69271000
   6.60163000  0.97643300  1.02296000
   4.10580997  8.44912957  1.02718000
  -1.07732005  2.51578000  0.99475300
   2.38936997  8.43242057  6.59726000
   7.57435000  2.66541000  6.73879000
  -0.04920005  1.07383000  6.66941000
   2.23934997  8.38312057 10.11420000
   7.35565000  2.61417000 10.13860000
  -0.24958005  1.04879000 10.11940000
   6.69493000  1.02970000  4.56980000
   4.15409997  8.46083057  4.59403000
  -0.99317005  2.48773000  4.49923000
   3.94692000  5.32719000  1.17227000
   6.53909000  4.12386000  1.12598000
  -3.55237005  6.91801000  0.93536300
   5.04059000  4.10492000  6.59924000
   5.00743000  6.91084000  6.65028000
  -2.61416005  5.43240000  6.61383000
   4.82375000  4.17231000 10.25590000
   4.93300000  6.92099000 10.21350000
  -2.76784005  5.29400000 10.19780000
   4.13102000  5.33028000  4.61840000
   6.73786000  4.13517000  4.59977000
  -3.54321005  6.96965000  4.56046000
  -0.99971500  5.34134000  1.09902000
   1.55443000  4.07372000  1.01792000
   1.42042000  6.95394000  1.00858000
  -0.14070800  4.12416000  6.59364000
   0.04393120  6.97187000  6.57288000
   2.38195000  5.29220000  6.72165000
  -0.24667200  4.06927000 10.25980000
  -0.05251550  6.90507000 10.21270000
   2.24775000  5.37697000 10.25470000
  -0.77795200  5.35292000  4.49627000
   1.79698000  4.15168000  4.67043000
   1.50814000  6.91060000  4.53033000
 


--------------------------------------------------------------------------------------------------------


 k-point  1 :   0.0000 0.0000 0.0000  plane waves:   17725
 k-point  2 :   0.5000-0.0000-0.0000  plane waves:   17736
 k-point  3 :   0.0000 0.5000 0.0000  plane waves:   17736
 k-point  4 :   0.5000 0.5000-0.0000  plane waves:   17736
 k-point  5 :   0.0000 0.0000 0.5000  plane waves:   17676
 k-point  6 :   0.5000-0.0000 0.5000  plane waves:   17700
 k-point  7 :   0.0000 0.5000 0.5000  plane waves:   17700
 k-point  8 :   0.5000 0.5000 0.5000  plane waves:   17700

 maximum and minimum number of plane-waves per node :     17736    17676

 maximum number of plane-waves:     17736
 maximum index in each direction: 
   IXMAX=   16   IYMAX=   16   IZMAX=   18
   IXMIN=  -16   IYMIN=  -16   IZMIN=  -18


 serial   3D FFT for wavefunctions
 parallel 3D FFT for charge:
    minimum data exchange during FFTs selected (reduces bandwidth)


 total amount of memory used by VASP MPI-rank0    94434. kBytes
=======================================================================

   base      :      30000. kBytes
   nonlr-proj:      13675. kBytes
   fftplans  :       1275. kBytes
   grid      :      22786. kBytes
   one-center:       2737. kBytes
   wavefun   :      23961. kBytes
 
     INWAV:  cpu time    0.0000: real time    0.0001
 Broyden mixing: mesh for mixing (old mesh)
   NGX = 33   NGY = 33   NGZ = 37
  (NGX  =100   NGY  =100   NGZ  =112)
  gives a total of  40293 points

 initial charge density was supplied:
 charge density of overlapping atoms calculated
 number of electron     672.0000000 magnetization      48.0000000
 keeping initial charge density in first step


--------------------------------------------------------------------------------------------------------


 Maximum index for non-local projection operator         1552
 Maximum index for augmentation-charges          514 (set IRDMAX)


--------------------------------------------------------------------------------------------------------


 First call to EWALD:  gamma=   0.179
 Maximum number of real-space cells 3x 3x 2
 Maximum number of reciprocal cells 3x 3x 3

    FEWALD:  cpu time    0.0026: real time    0.0026


--------------------------------------- Iteration      1(   1)  ---------------------------------------


    POTLOK:  cpu time    0.1977: real time    0.1986
    SETDIJ:  cpu time    4.6095: real time    4.6116
    EDDIAG:  cpu time    4.3606: real time    4.7779
  RMM-DIIS:  cpu time    9.1343: real time    9.1463
    ORTHCH:  cpu time    1.1472: real time    1.2324
       DOS:  cpu time    0.0019: real time    0.0020
    --------------------------------------------
      LOOP:  cpu time   19.4512: real time   19.9688

 eigenvalue-minimisations  :  7680
 total energy-change (2. order) : 0.1576885E+04  (-0.3497355E+05)
 number of electron     672.0000000 magnetization      48.0000000
 augmentation part      672.0000000 magnetization      48.0000000

 Free energy of the ion-electron system (eV)
  ---------------------------------------------------
  alpha Z        PSCENC =      2652.81237852
  Ewald energy   TEWEN  =    -41605.96128961
  -Hartree energ DENC   =    -25993.05195031
  -exchange      EXHF   =         0.00000000
  -V(xc)+E(xc)   XCENC  =      3606.94969683
  PAW double counting   =     55594.23204139   -59034.67079123
  entropy T*S    EENTRO =        -0.05872230
  eigenvalues    EBANDS =     -7505.56492293
  atomic energy  EATOM  =     73862.19814772
  Solvation  Ediel_sol  =         0.00000000
  ---------------------------------------------------
  free energy    TOTEN  =      1576.88458809 eV

  energy without entropy =     1576.94331038  energy(sigma->0) =     1576.91394923


--------------------------------------------------------------------------------------------------------




--------------------------------------- Iteration      1(   2)  ---------------------------------------


    EDDIAG:  cpu time    4.3823: real time    4.7767
  RMM-DIIS:  cpu time    9.1407: real time    9.1501
    ORTHCH:  cpu time    1.1377: real time    1.2369
       DOS:  cpu time    0.0022: real time    0.0022
    --------------------------------------------
      LOOP:  cpu time   14.6629: real time   15.1658

 eigenvalue-minimisations  :  7680
 total energy-change (2. order) :-0.2300344E+04  (-0.8033555E+04)
 number of electron     672.0000000 magnetization      48.0000000
 augmentation part      672.0000000 magnetization      48.0000000

 Free energy of the ion-electron system (eV)
  ---------------------------------------------------
  alpha Z        PSCENC =      2652.81237852
  Ewald energy   TEWEN  =    -41605.96128961
  -Hartree energ DENC   =    -25993.05195031
  -exchange      EXHF   =         0.00000000
  -V(xc)+E(xc)   XCENC  =      3606.94969683
  PAW double counting   =     55594.23204139   -59034.67079123
  entropy T*S    EENTRO =        -0.05274263
  eigenvalues    EBANDS =     -9805.91475823
  atomic energy  EATOM  =     73862.19814772
  Solvation  Ediel_sol  =         0.00000000
  ---------------------------------------------------
  free energy    TOTEN  =      -723.45926755 eV

  energy without entropy =     -723.40652492  energy(sigma->0) =     -723.43289624


--------------------------------------------------------------------------------------------------------




--------------------------------------- Iteration      1(   3)  ---------------------------------------


    EDDIAG:  cpu time    4.3541: real time    4.7851
  RMM-DIIS:  cpu time    9.1296: real time    9.1361
    ORTHCH:  cpu time    1.1420: real time    1.2291
       DOS:  cpu time    0.0021: real time    0.0021
    --------------------------------------------
      LOOP:  cpu time   14.6277: real time   15.1524

 eigenvalue-minimisations  :  7680
 total energy-change (2. order) : 0.8045376E+02  (-0.1422054E+04)
 number of electron     672.0000000 magnetization      48.0000000
 augmentation part      672.0000000 magnetization      48.0000000

 Free energy of the ion-electron system (eV)
  ---------------------------------------------------
  alpha Z        PSCENC =      2652.81237852
  Ewald energy   TEWEN  =    -41605.96128961
  -Hartree energ DENC   =    -25993.05195031
  -exchange      EXHF   =         0.00000000
  -V(xc)+E(xc)   XCENC  =      3606.94969683
  PAW double counting   =     55594.23204139   -59034.67079123
  entropy T*S    EENTRO =        -0.03337549
  eigenvalues    EBANDS =     -9725.48036229
  atomic energy  EATOM  =     73862.19814772
  Solvation  Ediel_sol  =         0.00000000
  ---------------------------------------------------
  free energy    TOTEN  =      -643.00550447 eV

  energy without entropy =     -642.97212898  energy(sigma->0) =     -642.98881672


--------------------------------------------------------------------------------------------------------




--------------------------------------- Iteration      1(   4)  ---------------------------------------


    EDDIAG:  cpu time    4.3852: real time    4.8121
  RMM-DIIS:  cpu time    9.1378: real time    9.1433
    ORTHCH:  cpu time    1.1463: real time    1.2282
       DOS:  cpu time    0.0011: real time    0.0011
    --------------------------------------------
      LOOP:  cpu time   14.6705: real time   15.1848

 eigenvalue-minimisations  :  7680
 total energy-change (2. order) :-0.4680123E+03  (-0.4307344E+03)
 number of electron     672.0000000 magnetization      48.0000000
 augmentation part      672.0000000 magnetization      48.0000000

 Free energy of the ion-electron system (eV)
  ---------------------------------------------------
  alpha Z        PSCENC =      2652.81237852
  Ewald energy   TEWEN  =    -41605.96128961
  -Hartree energ DENC   =    -25993.05195031
  -exchange      EXHF   =         0.00000000
  -V(xc)+E(xc)   XCENC  =      3606.94969683
  PAW double counting   =     55594.23204139   -59034.67079123
  entropy T*S    EENTRO =        -0.00000000
  eigenvalues    EBANDS =    -10193.52601002
  atomic energy  EATOM  =     73862.19814772
  Solvation  Ediel_sol  =         0.00000000
  ---------------------------------------------------
  free energy    TOTEN  =     -1111.01777671 eV

  energy without entropy =    -1111.01777671  energy(sigma->0) =    -1111.01777671


--------------------------------------------------------------------------------------------------------




--------------------------------------- Iteration      1(   5)  ---------------------------------------


    EDDIAG:  cpu time    4.3594: real time    4.7783
  RMM-DIIS:  cpu time    9.1274: real time    9.1330
    ORTHCH:  cpu time    1.1450: real time    1.2289
       DOS:  cpu time    0.0017: real time    0.0017
    --------------------------------------------
      LOOP:  cpu time   14.6336: real time   15.1418

 eigenvalue-minimisations  :  7680
 total energy-change (2. order) :-0.1045042E+03  (-0.1602540E+03)
 number of electron     672.0000000 magnetization      48.0000000
 augmentation part      672.0000000 magnetization      48.0000000

 Free energy of the ion-electron system (eV)
  ---------------------------------------------------
  alpha Z        PSCENC =      2652.81237852
  Ewald energy   TEWEN  =    -41605.96128961
  -Hartree energ DENC   =    -25993.05195031
  -exchange      EXHF   =         0.00000000
  -V(xc)+E(xc)   XCENC  =      3606.94969683
  PAW double counting   =     55594.23204139   -59034.67079123
  entropy T*S    EENTRO =        -0.00000000
  eigenvalues    EBANDS =    -10298.03025032
  atomic energy  EATOM  =     73862.19814772
  Solvation  Ediel_sol  =         0.00000000
  ---------------------------------------------------
  free energy    TOTEN  =     -1215.52201701 eV

  energy without entropy =    -1215.52201701  energy(sigma->0) =    -1215.52201701


--------------------------------------------------------------------------------------------------------




--------------------------------------- Iteration      1(   6)  ---------------------------------------


    EDDIAG:  cpu time    4.3875: real time    4.7929
  RMM-DIIS:  cpu time    9.1495: real time    9.1551
    ORTHCH:  cpu time    1.1527: real time    1.2345
       DOS:  cpu time    0.0011: real time    0.0011
    --------------------------------------------
      LOOP:  cpu time   14.6908: real time   15.1836

 eigenvalue-minimisations  :  7680
 total energy-change (2. order) :-0.9179771E+01  (-0.7956487E+02)
 number of electron     672.0000000 magnetization      48.0000000
 augmentation part      672.0000000 magnetization      48.0000000

 Free energy of the ion-electron system (eV)
  ---------------------------------------------------
  alpha Z        PSCENC =      2652.81237852
  Ewald energy   TEWEN  =    -41605.96128961
  -Hartree energ DENC   =    -25993.05195031
  -exchange      EXHF   =         0.00000000
  -V(xc)+E(xc)   XCENC  =      3606.94969683
  PAW double counting   =     55594.23204139   -59034.67079123
  entropy T*S    EENTRO =        -0.00000000
  eigenvalues    EBANDS =    -10307.21002144
  atomic energy  EATOM  =     73862.19814772
  Solvation  Ediel_sol  =         0.00000000
  ---------------------------------------------------
  free energy    TOTEN  =     -1224.70178813 eV

  energy without entropy =    -1224.70178813  energy(sigma->0) =    -1224.70178813


--------------------------------------------------------------------------------------------------------




--------------------------------------- Iteration      1(   7)  ---------------------------------------


    EDDIAG:  cpu time    4.3528: real time    4.7741
  RMM-DIIS:  cpu time    9.1706: real time    9.1762
    ORTHCH:  cpu time    1.1524: real time    1.2369
       DOS:  cpu time    0.0015: real time    0.0015
    --------------------------------------------
      LOOP:  cpu time   14.6774: real time   15.1886

 eigenvalue-minimisations  :  7680
 total energy-change (2. order) :-0.1792699E+01  (-0.4847295E+02)
 number of electron     672.0000000 magnetization      48.0000000
 augmentation part      672.0000000 magnetization      48.0000000

 Free energy of the ion-electron system (eV)
  ---------------------------------------------------
  alpha Z        PSCENC =      2652.81237852
  Ewald energy   TEWEN  =    -41605.96128961
  -Hartree energ DENC   =    -25993.05195031
  -exchange      EXHF   =         0.00000000
  -V(xc)+E(xc)   XCENC  =      3606.94969683
  PAW double counting   =     55594.23204139   -59034.67079123
  entropy T*S    EENTRO =        -0.00000000
  eigenvalues    EBANDS =    -10309.00272070
  atomic energy  EATOM  =     73862.19814772
  Solvation  Ediel_sol  =         0.00000000
  ---------------------------------------------------
  free energy    TOTEN  =     -1226.49448739 eV

  energy without entropy =    -1226.49448739  energy(sigma->0) =    -1226.49448739


--------------------------------------------------------------------------------------------------------




--------------------------------------- Iteration      1(   8)  ---------------------------------------


    EDDIAG:  cpu time    4.3727: real time    4.8489
  RMM-DIIS:  cpu time    9.1701: real time    9.1785
    ORTHCH:  cpu time    1.1483: real time    1.2319
       DOS:  cpu time    0.0016: real time    0.0016
    --------------------------------------------
      LOOP:  cpu time   14.6927: real time   15.2608

 eigenvalue-minimisations  :  7680
 total energy-change (2. order) : 0.5010904E+01  (-0.3004187E+02)
 number of electron     672.0000000 magnetization      48.0000000
 augmentation part      672.0000000 magnetization      48.0000000

 Free energy of the ion-electron system (eV)
  ---------------------------------------------------
  alpha Z        PSCENC =      2652.81237852
  Ewald energy   TEWEN  =    -41605.96128961
  -Hartree energ DENC   =    -25993.05195031
  -exchange      EXHF   =         0.00000000
  -V(xc)+E(xc)   XCENC  =      3606.94969683
  PAW double counting   =     55594.23204139   -59034.67079123
  entropy T*S    EENTRO =        -0.00000000
  eigenvalues    EBANDS =    -10303.99181720
  atomic energy  EATOM  =     73862.19814772
  Solvation  Ediel_sol  =         0.00000000
  ---------------------------------------------------
  free energy    TOTEN  =     -1221.48358389 eV

  energy without entropy =    -1221.48358389  energy(sigma->0) =    -1221.48358389


--------------------------------------------------------------------------------------------------------




--------------------------------------- Iteration      1(   9)  ---------------------------------------


    EDDIAG:  cpu time    4.3890: real time    4.7788
  RMM-DIIS:  cpu time   19.3192: real time   19.3471
    ORTHCH:  cpu time    1.1484: real time    1.2314
       DOS:  cpu time    0.0016: real time    0.0016
    --------------------------------------------
      LOOP:  cpu time   24.8582: real time   25.3588

 eigenvalue-minimisations  : 21779
 total energy-change (2. order) : 0.9286821E+01  (-0.1325732E+02)
 number of electron     672.0000000 magnetization      48.0000000
 augmentation part      672.0000000 magnetization      48.0000000

 Free energy of the ion-electron system (eV)
  ---------------------------------------------------
  alpha Z        PSCENC =      2652.81237852
  Ewald energy   TEWEN  =    -41605.96128961
  -Hartree energ DENC   =    -25993.05195031
  -exchange      EXHF   =         0.00000000
  -V(xc)+E(xc)   XCENC  =      3606.94969683
  PAW double counting   =     55594.23204139   -59034.67079123
  entropy T*S    EENTRO =        -0.00000000
  eigenvalues    EBANDS =    -10294.70499575
  atomic energy  EATOM  =     73862.19814772
  Solvation  Ediel_sol  =         0.00000000
  ---------------------------------------------------
  free energy    TOTEN  =     -1212.19676244 eV

  energy without entropy =    -1212.19676244  energy(sigma->0) =    -1212.19676244


--------------------------------------------------------------------------------------------------------




--------------------------------------- Iteration      1(  10)  ---------------------------------------


    EDDIAG:  cpu time    4.3746: real time    4.7783
  RMM-DIIS:  cpu time   17.9402: real time   17.9472
    ORTHCH:  cpu time    1.1680: real time    1.2631
       DOS:  cpu time    0.0015: real time    0.0015
    --------------------------------------------
      LOOP:  cpu time   23.4843: real time   23.9901

 eigenvalue-minimisations  : 19745
 total energy-change (2. order) :-0.1884260E+01  (-0.5300041E+00)
 number of electron     672.0000000 magnetization      48.0000000
 augmentation part      672.0000000 magnetization      48.0000000

 Free energy of the ion-electron system (eV)
  ---------------------------------------------------
  alpha Z        PSCENC =      2652.81237852
  Ewald energy   TEWEN  =    -41605.96128961
  -Hartree energ DENC   =    -25993.05195031
  -exchange      EXHF   =         0.00000000
  -V(xc)+E(xc)   XCENC  =      3606.94969683
  PAW double counting   =     55594.23204139   -59034.67079123
  entropy T*S    EENTRO =        -0.00000000
  eigenvalues    EBANDS =    -10296.58925570
  atomic energy  EATOM  =     73862.19814772
  Solvation  Ediel_sol  =         0.00000000
  ---------------------------------------------------
  free energy    TOTEN  =     -1214.08102239 eV

  energy without entropy =    -1214.08102239  energy(sigma->0) =    -1214.08102239


--------------------------------------------------------------------------------------------------------




--------------------------------------- Iteration      1(  11)  ---------------------------------------


    EDDIAG:  cpu time    4.3852: real time    4.7904
  RMM-DIIS:  cpu time   19.6670: real time   19.6774
    ORTHCH:  cpu time    1.1665: real time    1.2504
       DOS:  cpu time    0.0016: real time    0.0016
    --------------------------------------------
      LOOP:  cpu time   25.2203: real time   25.7198

 eigenvalue-minimisations  : 22633
 total energy-change (2. order) : 0.7003319E-01  (-0.4346806E-01)
 number of electron     672.0000000 magnetization      48.0000000
 augmentation part      672.0000000 magnetization      48.0000000

 Free energy of the ion-electron system (eV)
  ---------------------------------------------------
  alpha Z        PSCENC =      2652.81237852
  Ewald energy   TEWEN  =    -41605.96128961
  -Hartree energ DENC   =    -25993.05195031
  -exchange      EXHF   =         0.00000000
  -V(xc)+E(xc)   XCENC  =      3606.94969683
  PAW double counting   =     55594.23204139   -59034.67079123
  entropy T*S    EENTRO =        -0.00000000
  eigenvalues    EBANDS =    -10296.51922251
  atomic energy  EATOM  =     73862.19814772
  Solvation  Ediel_sol  =         0.00000000
  ---------------------------------------------------
  free energy    TOTEN  =     -1214.01098920 eV

  energy without entropy =    -1214.01098920  energy(sigma->0) =    -1214.01098920


--------------------------------------------------------------------------------------------------------




--------------------------------------- Iteration      1(  12)  ---------------------------------------


    EDDIAG:  cpu time    4.3898: real time    4.8092
  RMM-DIIS:  cpu time   21.6990: real time   21.7088
    ORTHCH:  cpu time    1.1594: real time    1.2421
       DOS:  cpu time    0.0025: real time    0.0025
    CHARGE:  cpu time    1.8188: real time    1.8193
    MIXING:  cpu time    0.0011: real time    0.0012
    --------------------------------------------
      LOOP:  cpu time   29.0705: real time   29.5831

 eigenvalue-minimisations  : 24413
 total energy-change (2. order) :-0.6952500E-03  (-0.4276650E-02)
 number of electron     672.0000145 magnetization      48.0000003
 augmentation part      239.1834016 magnetization      29.0665321

 Broyden mixing:
  rms(total) = 0.12687E+02    rms(broyden)= 0.12678E+02
  rms(prec ) = 0.14507E+02
  weight for this iteration     100.00

 Free energy of the ion-electron system (eV)
  ---------------------------------------------------
  alpha Z        PSCENC =      2652.81237852
  Ewald energy   TEWEN  =    -41605.96128961
  -Hartree energ DENC   =    -25993.05195031
  -exchange      EXHF   =         0.00000000
  -V(xc)+E(xc)   XCENC  =      3606.94969683
  PAW double counting   =     55594.23204139   -59034.67079123
  entropy T*S    EENTRO =        -0.00000000
  eigenvalues    EBANDS =    -10296.51991776
  atomic energy  EATOM  =     73862.19814772
  Solvation  Ediel_sol  =         0.00000000
  ---------------------------------------------------
  free energy    TOTEN  =     -1214.01168445 eV

  energy without entropy =    -1214.01168445  energy(sigma->0) =    -1214.01168445


--------------------------------------------------------------------------------------------------------




--------------------------------------- Iteration      1(  13)  ---------------------------------------


    POTLOK:  cpu time    0.1733: real time    0.1746
    SETDIJ:  cpu time    4.9020: real time    4.9611
    EDDIAG:  cpu time    4.3803: real time    4.7856
  RMM-DIIS:  cpu time   17.2717: real time   17.3081
    ORTHCH:  cpu time    1.1450: real time    1.2317
       DOS:  cpu time    0.0019: real time    0.0019
    CHARGE:  cpu time    1.8061: real time    1.8093
    MIXING:  cpu time    0.0009: real time    0.0009
    --------------------------------------------
      LOOP:  cpu time   29.6813: real time   30.2732

 eigenvalue-minimisations  : 18773
 total energy-change (2. order) : 0.2301866E+03  (-0.1207144E+03)
 number of electron     672.0000007 magnetization      48.0000008
 augmentation part      268.5203397 magnetization      26.7538793

 Broyden mixing:
  rms(total) = 0.13769E+02    rms(broyden)= 0.13766E+02
  rms(prec ) = 0.15441E+02
  weight for this iteration     100.00

 eigenvalues of (default mixing * dielectric matrix)
  average eigenvalue GAMMA=   0.3224
  0.3224

 Free energy of the ion-electron system (eV)
  ---------------------------------------------------
  alpha Z        PSCENC =      2652.81237852
  Ewald energy   TEWEN  =    -41605.96128961
  -Hartree energ DENC   =    -25332.92922434
  -exchange      EXHF   =         0.00000000
  -V(xc)+E(xc)   XCENC  =      3697.57087767
  PAW double counting   =     60008.52423692   -63434.21459897
  entropy T*S    EENTRO =        -0.07636887
  eigenvalues    EBANDS =    -10831.74926364
  atomic energy  EATOM  =     73862.19814772
  Solvation  Ediel_sol  =         0.00000000
  ---------------------------------------------------
  free energy    TOTEN  =      -983.82510458 eV

  energy without entropy =     -983.74873571  energy(sigma->0) =     -983.78692015


--------------------------------------------------------------------------------------------------------




--------------------------------------- Iteration      1(  14)  ---------------------------------------


    POTLOK:  cpu time    0.1759: real time    0.1761
    SETDIJ:  cpu time    4.9388: real time    4.9512
    EDDIAG:  cpu time    4.3690: real time    4.7776
  RMM-DIIS:  cpu time   17.7413: real time   17.7660
    ORTHCH:  cpu time    1.1423: real time    1.2273
       DOS:  cpu time    0.0012: real time    0.0012
    CHARGE:  cpu time    1.8091: real time    1.8098
    MIXING:  cpu time    0.0012: real time    0.0012
    --------------------------------------------
      LOOP:  cpu time   30.1787: real time   30.7104

 eigenvalue-minimisations  : 19337
 total energy-change (2. order) : 0.6775311E+02  (-0.1749807E+02)
 number of electron     672.0000096 magnetization      48.0000012
 augmentation part      246.6891473 magnetization      32.2114396

 Broyden mixing:
  rms(total) = 0.53502E+01    rms(broyden)= 0.53462E+01
  rms(prec ) = 0.57609E+01
  weight for this iteration     100.00

 eigenvalues of (default mixing * dielectric matrix)
  average eigenvalue GAMMA=   0.7364
  1.1126  0.3601

 Free energy of the ion-electron system (eV)
  ---------------------------------------------------
  alpha Z        PSCENC =      2652.81237852
  Ewald energy   TEWEN  =    -41605.96128961
  -Hartree energ DENC   =    -25943.21290865
  -exchange      EXHF   =         0.00000000
  -V(xc)+E(xc)   XCENC  =      3675.45306598
  PAW double counting   =     63438.07208558   -66921.28452281
  entropy T*S    EENTRO =        -0.00000000
  eigenvalues    EBANDS =    -10074.14894830
  atomic energy  EATOM  =     73862.19814772
  Solvation  Ediel_sol  =         0.00000000
  ---------------------------------------------------
  free energy    TOTEN  =      -916.07199155 eV

  energy without entropy =     -916.07199155  energy(sigma->0) =     -916.07199155


--------------------------------------------------------------------------------------------------------




--------------------------------------- Iteration      1(  15)  ---------------------------------------


    POTLOK:  cpu time    0.1696: real time    0.1701
    SETDIJ:  cpu time    4.9457: real time    4.9567
    EDDIAG:  cpu time    4.3841: real time    4.7955
  RMM-DIIS:  cpu time   18.2018: real time   18.2114
    ORTHCH:  cpu time    1.1741: real time    1.2566
       DOS:  cpu time    0.0058: real time    0.0058
    CHARGE:  cpu time    1.8134: real time    1.8141
    MIXING:  cpu time    0.0087: real time    0.0087
    --------------------------------------------
      LOOP:  cpu time   30.7031: real time   31.2190

 eigenvalue-minimisations  : 20272
 total energy-change (2. order) : 0.1401964E+02  (-0.1856204E+01)
 number of electron     672.0000083 magnetization      48.0000012
 augmentation part      249.6356385 magnetization      33.7996898

 Broyden mixing:
  rms(total) = 0.21632E+01    rms(broyden)= 0.21629E+01
  rms(prec ) = 0.22492E+01
  weight for this iteration     100.00

 eigenvalues of (default mixing * dielectric matrix)
  average eigenvalue GAMMA=   0.9653
  0.3881  0.7554  1.7523

 Free energy of the ion-electron system (eV)
  ---------------------------------------------------
  alpha Z        PSCENC =      2652.81237852
  Ewald energy   TEWEN  =    -41605.96128961
  -Hartree energ DENC   =    -25871.61288817
  -exchange      EXHF   =         0.00000000
  -V(xc)+E(xc)   XCENC  =      3708.15907270
  PAW double counting   =     67593.88207197   -71117.61300753
  entropy T*S    EENTRO =        -0.00000000
  eigenvalues    EBANDS =    -10123.91683232
  atomic energy  EATOM  =     73862.19814772
  Solvation  Ediel_sol  =         0.00000000
  ---------------------------------------------------
  free energy    TOTEN  =      -902.05234671 eV

  energy without entropy =     -902.05234671  energy(sigma->0) =     -902.05234671


--------------------------------------------------------------------------------------------------------




--------------------------------------- Iteration      1(  16)  ---------------------------------------


    POTLOK:  cpu time    0.1837: real time    0.1840
    SETDIJ:  cpu time    5.6113: real time    5.6233
    EDDIAG:  cpu time    4.4131: real time    4.8023
  RMM-DIIS:  cpu time   17.4362: real time   17.4431
    ORTHCH:  cpu time    1.1456: real time    1.2307
       DOS:  cpu time    0.0019: real time    0.0019
    CHARGE:  cpu time    1.8104: real time    1.8110
    MIXING:  cpu time    0.0012: real time    0.0012
    --------------------------------------------
      LOOP:  cpu time   30.6033: real time   31.0976

 eigenvalue-minimisations  : 18979
 total energy-change (2. order) :-0.1534144E+01  (-0.6710208E+00)
 number of electron     672.0000071 magnetization      48.0000010
 augmentation part      251.2234652 magnetization      33.8774037

 Broyden mixing:
  rms(total) = 0.13981E+01    rms(broyden)= 0.13975E+01
  rms(prec ) = 0.14859E+01
  weight for this iteration     100.00

 eigenvalues of (default mixing * dielectric matrix)
  average eigenvalue GAMMA=   0.9826
  2.1027  0.9023  0.3958  0.5295

 Free energy of the ion-electron system (eV)
  ---------------------------------------------------
  alpha Z        PSCENC =      2652.81237852
  Ewald energy   TEWEN  =    -41605.96128961
  -Hartree energ DENC   =    -25818.68503367
  -exchange      EXHF   =         0.00000000
  -V(xc)+E(xc)   XCENC  =      3709.54055224
  PAW double counting   =     70668.71245675   -74222.97582783
  entropy T*S    EENTRO =        -0.00000000
  eigenvalues    EBANDS =    -10149.22787461
  atomic energy  EATOM  =     73862.19814772
  Solvation  Ediel_sol  =         0.00000000
  ---------------------------------------------------
  free energy    TOTEN  =      -903.58649049 eV

  energy without entropy =     -903.58649049  energy(sigma->0) =     -903.58649049


--------------------------------------------------------------------------------------------------------




--------------------------------------- Iteration      1(  17)  ---------------------------------------


    POTLOK:  cpu time    0.1695: real time    0.1704
    SETDIJ:  cpu time    5.0005: real time    5.0190
    EDDIAG:  cpu time    4.3578: real time    4.7743
  RMM-DIIS:  cpu time   18.6343: real time   18.6474
    ORTHCH:  cpu time    1.1454: real time    1.2299
       DOS:  cpu time    0.0010: real time    0.0010
    CHARGE:  cpu time    1.8165: real time    1.8650
    MIXING:  cpu time    0.0018: real time    0.0018
    --------------------------------------------
      LOOP:  cpu time   31.1269: real time   31.7089

 eigenvalue-minimisations  : 20717
 total energy-change (2. order) : 0.1689660E+00  (-0.5422601E-01)
 number of electron     672.0000074 magnetization      48.0000009
 augmentation part      251.1214139 magnetization      33.8666451

 Broyden mixing:
  rms(total) = 0.75045E+00    rms(broyden)= 0.75036E+00
  rms(prec ) = 0.84480E+00
  weight for this iteration     100.00

 eigenvalues of (default mixing * dielectric matrix)
  average eigenvalue GAMMA=   1.0127
  2.2553  1.1476  0.3857  0.6997  0.5752

 Free energy of the ion-electron system (eV)
  ---------------------------------------------------
  alpha Z        PSCENC =      2652.81237852
  Ewald energy   TEWEN  =    -41605.96128961
  -Hartree energ DENC   =    -25810.43767677
  -exchange      EXHF   =         0.00000000
  -V(xc)+E(xc)   XCENC  =      3706.30749417
  PAW double counting   =     71482.29194143   -75044.38360434
  entropy T*S    EENTRO =        -0.00000000
  eigenvalues    EBANDS =    -10146.24491564
  atomic energy  EATOM  =     73862.19814772
  Solvation  Ediel_sol  =         0.00000000
  ---------------------------------------------------
  free energy    TOTEN  =      -903.41752451 eV

  energy without entropy =     -903.41752451  energy(sigma->0) =     -903.41752451


--------------------------------------------------------------------------------------------------------




--------------------------------------- Iteration      1(  18)  ---------------------------------------


    POTLOK:  cpu time    0.1682: real time    0.1696
    SETDIJ:  cpu time    4.9913: real time    4.9955
    EDDIAG:  cpu time    4.3871: real time    4.7807
  RMM-DIIS:  cpu time   17.6042: real time   17.6151
    ORTHCH:  cpu time    1.1447: real time    1.2312
       DOS:  cpu time    0.0012: real time    0.0012
    CHARGE:  cpu time    1.8365: real time    1.8518
    MIXING:  cpu time    0.0011: real time    0.0011
    --------------------------------------------
      LOOP:  cpu time   30.1343: real time   30.6462

 eigenvalue-minimisations  : 18965
 total energy-change (2. order) : 0.3808487E+00  (-0.7130428E-01)
 number of electron     672.0000077 magnetization      48.0000008
 augmentation part      250.6179072 magnetization      33.8278398

 Broyden mixing:
  rms(total) = 0.26076E+00    rms(broyden)= 0.26045E+00
  rms(prec ) = 0.27326E+00
  weight for this iteration     100.00

 eigenvalues of (default mixing * dielectric matrix)
[...]
   4      -0.530    -0.795     1.326     0.077     0.021    -0.055
   5      -0.671    -0.739     1.411    -0.161     0.058    -0.011
   6      -0.635    -0.881     1.516     0.176     0.037    -0.030
   7      -1.054    -0.508     1.562    -0.096    -0.020    -0.005
   8      -0.652    -0.930     1.582    -0.235    -0.003    -0.024
   9      -1.013    -0.910     1.923     0.167     0.051    -0.033
  10      -0.633    -0.904     1.537     0.130     0.041     0.049
  11      -0.987    -0.899     1.886    -0.006    -0.052    -0.038
  12      -0.913    -0.897     1.810     0.124    -0.056     0.015
  13      -0.595    -0.744     1.339     0.200    -0.014    -0.006
  14      -1.006    -1.045     2.051     0.128     0.020     0.040
  15      -0.625    -0.804     1.429    -0.163    -0.135    -0.074
  16      -1.030    -0.793     1.823     0.037    -0.016    -0.030
  17       1.534     1.449    -2.983    -0.100     0.041     0.043
  18       1.385     1.591    -2.976    -0.066    -0.144     0.032
  19       1.413     1.634    -3.047    -0.083     0.020     0.050
  20       1.376     1.620    -2.995    -0.052     0.064    -0.038
  21       1.590     1.354    -2.944     0.188    -0.049    -0.100
  22       1.621     1.322    -2.943     0.061     0.035     0.119
  23       1.456     1.456    -2.911    -0.015    -0.009    -0.082
  24       1.499     1.478    -2.977    -0.017     0.070     0.002
  25      -1.399     0.401     0.998    -0.194    -1.269    -0.220
  26       0.970    -1.040     0.070     0.924     0.823    -0.247
  27       0.718    -1.777     1.059     0.038    -1.072    -0.210
  28      -0.466    -0.200     0.666    -0.145     0.263    -0.653
  29      -0.646     0.213     0.433     0.359     0.255     0.075
  30      -1.541     1.222     0.319    -0.515    -0.072    -0.008
  31      -0.798    -0.396     1.193     0.141     0.933     0.488
  32      -0.178    -0.337     0.515    -0.829    -0.012     0.145
  33       0.149    -0.517     0.368     0.696    -0.472    -0.917
  34       0.286    -1.438     1.153    -0.731    -0.041    -0.363
  35      -0.820     0.155     0.665     1.201     0.694     0.061
  36      -1.542    -0.270     1.812     0.493     0.319     0.986
  37      -0.961     0.397     0.565     1.368    -0.519    -1.270
  38      -1.524    -1.464     2.989    -0.946     0.051     0.627
  39      -0.895     1.146    -0.250    -0.521    -0.528     0.197
  40      -0.253     0.270    -0.017     1.733    -0.027     1.245
  41      -3.260     3.494    -0.234    -5.589    -0.155    -3.991
  42      -3.479     2.253     1.227     4.314     2.264     4.573
  43       5.999    -6.091     0.093     0.489    -5.070    -1.114
  44      -2.429     0.934     1.495    -4.921    -1.460     3.828
  45       5.014    -6.549     1.534     0.228     4.985    -1.393
  46      -3.449     1.470     1.979     4.694    -1.035    -4.336
  47      -3.808     2.284     1.523    -2.809     2.833    -4.390
  48       5.523    -6.808     1.285     1.282    -4.844    -0.149
  49      -2.168     2.142     0.026     6.262     3.116     3.396
  50      -1.910     2.048    -0.138    -3.666    -3.638     2.692
  51      -2.916     3.791    -0.875     4.617    -2.256    -2.831
  52       5.100    -5.733     0.632    -0.459     4.030    -0.720
  53      -5.428     5.422     0.006    -4.877     3.735    -3.906
  54      -4.440     3.950     0.490     3.538     1.613     5.237
  55       2.333    -6.058     3.724     0.533    -5.157    -0.737
  56      -3.331     1.826     1.505    -4.800    -2.911     3.408
  57       5.678    -4.774    -0.904    -0.437     4.395     0.429
  58      -1.626    -0.424     2.050     4.682    -2.872    -4.401
  59      -2.298     2.777    -0.479    -4.548     1.888    -4.415
  60       5.599    -5.582    -0.017     0.015    -4.648    -0.824
  61      -3.634     3.064     0.569     4.691    -0.192     4.746
  62      -3.787     2.656     1.130    -4.680    -3.642     4.467
  63      -1.969     1.227     0.742     5.840    -2.516    -3.826
  64       6.842    -6.593    -0.249     0.308     4.851     0.649
  65      -1.551     1.838    -0.286    -5.572     1.656    -3.552
  66      -2.184     2.820    -0.636     5.094     2.583     2.851
  67       3.639    -5.461     1.822    -1.351    -4.898     0.282
  68      -4.601     2.350     2.251    -4.878    -0.641     5.271
  69       4.899    -5.434     0.535    -1.522     4.303     1.723
  70      -3.147     3.312    -0.166     3.137    -2.734    -4.016
  71      -2.309     1.339     0.970    -5.490     2.647    -4.868
  72       4.589    -6.494     1.905     0.425    -5.024     1.170
  73      -2.928     3.117    -0.189     4.859     2.336     3.346
  74      -3.705     2.418     1.287    -3.599    -1.238     5.630
  75      -3.919     1.836     2.084     5.553    -0.460    -4.932
  76       4.438    -4.889     0.451     0.821     4.454    -0.713
  77      -2.063     1.964     0.098    -4.412     2.865    -3.859
  78      -3.534     2.968     0.566     4.299     1.086     4.022
  79       4.394    -5.178     0.784     0.488    -5.118     0.492
  80      -3.430     3.486    -0.057    -6.463    -3.094     4.387
  81       4.757    -5.914     1.157    -0.726     4.800     1.210
  82      -3.590     4.522    -0.932     5.967    -2.921    -3.086
  83      -3.418     0.620     2.797    -5.549     1.625    -4.891
  84       5.411    -6.750     1.339    -0.273    -4.116    -0.193
  85      -5.193     3.304     1.889     3.259     1.999     4.667
  86      -3.178     1.851     1.327    -5.360    -2.556     4.472
  87      -1.646     2.436    -0.790     6.750    -2.058    -4.417
  88       5.841    -5.666    -0.175     0.855     4.050     0.773
 ---------------------------------------------------------------------


 Total hyperfine coupling parameters after diagonalization (MHz)
 (convention: |A_zz| > |A_xx| > |A_yy|)
 ----------------------------------------------------------------------
  ion      A_xx      A_yy      A_zz     asymmetry (A_yy - A_xx)/ A_zz 
 ----------------------------------------------------------------------
   1       1.046     0.505     3.251      -0.167
   2       2.025     1.435     4.189      -0.141
   3       2.037     1.611     4.206      -0.101
   4       1.639     1.331     3.476      -0.089
   5       2.057     1.730     4.012      -0.082
   6       2.013     1.583     4.073      -0.106
   7       1.251     0.671     3.305      -0.175
   8       2.728     2.182     4.828      -0.113
   9       0.345    -0.006     3.055      -0.115
  10       2.363     1.989     4.484      -0.084
  11      -0.059     0.031     2.818       0.032
  12       0.473     0.225     3.065      -0.081
  13       2.321     1.895     4.116      -0.104
  14      -0.589    -0.329     2.619       0.099
  15       2.279     1.903     4.251      -0.088
  16       0.526     0.277     3.137      -0.079
  17      14.623    10.256    14.841      -0.294
  18      15.399    11.049    15.642      -0.278
  19      15.703    11.270    15.980      -0.277
  20      14.845    10.484    15.111      -0.289
  21      14.367    10.170    14.811      -0.283
  22      13.711     9.452    14.032      -0.303
  23      13.484     9.129    13.514      -0.322
  24      14.683    10.236    14.724      -0.302
  25      96.877    94.485    98.019      -0.024
  26      98.407    96.874   100.100      -0.015
  27      95.031    93.428    97.204      -0.016
  28      93.294    93.267    94.893      -0.000
  29      97.239    96.186    97.574      -0.011
  30      98.967    97.009    99.961      -0.020
  31      94.857    94.202    97.057      -0.007
  32      97.543    96.007    97.761      -0.016
  33      97.504    96.530    99.156      -0.010
  34      97.981    95.689    98.646      -0.023
  35     100.487    98.293   101.360      -0.022
  36      97.229    96.073   100.050      -0.012
  37      95.240    93.868    98.011      -0.014
  38      97.716    95.828   101.388      -0.019
  39      96.882    95.723    98.309      -0.012
  40     101.850    99.808   104.105      -0.020
  41       8.403     2.217    17.442      -0.355
  42       5.236     1.903    15.964      -0.209
  43       3.978     0.347    15.628      -0.232
  44       6.081     1.063    14.417      -0.348
  45       6.717     1.493    16.974      -0.308
  46       4.425    -1.094    13.061      -0.423
  47       4.059     1.349    14.241      -0.190
  48       7.020     1.879    17.614      -0.292
  49       7.590     3.152    18.807      -0.236
  50       4.448     1.114    13.038      -0.256
  51       3.077    -0.134    12.917      -0.249
  52       4.260     0.152    13.483      -0.305
  53       8.668     2.576    20.436      -0.298
  54       3.318     0.641    15.231      -0.176
  55       3.148    -0.796    13.610      -0.290
  56       5.174     0.398    14.503      -0.329
  57       3.234     1.199    14.037      -0.145
  58       5.010     1.453    15.465      -0.230
  59       5.724     3.591    16.808      -0.127
  60       4.471     1.193    15.183      -0.216
  61       7.968     2.011    16.884      -0.353
  62       3.611    -0.276    15.381      -0.253
  63       5.651     1.170    16.021      -0.280
  64       4.599     0.601    16.588      -0.241
  65       6.162     2.314    15.939      -0.241
  66       5.580     2.321    15.525      -0.210
  67       4.206     0.644    14.161      -0.252
  68       8.984     2.668    19.006      -0.332
  69       6.073     0.447    14.590      -0.386
  70       2.508     0.311    12.725      -0.173
  71       7.222     3.528    18.954      -0.195
  72       4.998    -0.135    15.116      -0.340
  73       3.491     0.015    13.553      -0.257
  74       3.043     0.034    14.329      -0.210
  75       7.781     0.541    16.866      -0.429
  76       5.930     2.702    15.313      -0.211
  77       3.141     1.059    13.789      -0.151
  78       4.731     0.631    13.965      -0.294
  79       3.169     0.458    13.839      -0.196
  80       6.695     2.196    19.693      -0.228
  81       7.467     2.782    17.250      -0.272
  82       7.104     2.410    18.749      -0.250
  83       6.269    -0.140    16.145      -0.397
  84       6.360     0.792    15.528      -0.359
  85       3.971    -0.310    14.386      -0.298
  86       5.265     0.877    16.272      -0.270
  87       6.349     2.250    18.764      -0.218
  88       7.340     3.743    17.494      -0.206
 ---------------------------------------------------------------------



--------------------------------------------------------------------------------------------------------


 stress matrix after NEB project (eV)
    -39.82447      0.67675      0.10867
      0.67743    -42.94591      1.48559
      0.14484      1.47500    -51.46467
  FORCES: max atom, RMS     2.333547    1.007852
  FORCE total and by dimension    9.454488    2.140883
  Stress total and by dimension   78.001818   51.464669
     LOOP+:  cpu time  735.6170: real time  750.3009
    4ORBIT:  cpu time    0.0000: real time    0.0000
 


 total charge     
 
# of ion       s       p       d       tot
------------------------------------------
    1        0.053   5.995   0.000   6.048
    2        0.050   5.993   0.000   6.044
    3        0.050   5.992   0.000   6.042
    4        0.047   5.989   0.000   6.035
    5        0.049   5.990   0.000   6.039
    6        0.048   5.990   0.000   6.038
    7        0.054   5.998   0.000   6.053
    8        0.053   5.996   0.000   6.049
    9        0.053   5.999   0.000   6.052
   10        0.046   5.987   0.000   6.033
   11        0.048   5.991   0.000   6.039
   12        0.051   5.995   0.000   6.045
   13        0.051   5.993   0.000   6.043
   14        0.049   5.993   0.000   6.043
   15        0.051   5.994   0.000   6.045
   16        0.048   5.991   0.000   6.039
   17        0.148   6.127   0.083   6.358
   18        0.147   6.126   0.082   6.355
   19        0.150   6.130   0.086   6.367
   20        0.150   6.130   0.086   6.366
   21        0.150   6.131   0.086   6.367
   22        0.148   6.126   0.082   6.356
   23        0.148   6.128   0.084   6.361
   24        0.149   6.129   0.084   6.362
   25        0.379   6.459   4.841  11.680
   26        0.386   6.478   4.856  11.720
   27        0.378   6.460   4.830  11.668
   28        0.387   6.479   4.853  11.719
   29        0.387   6.481   4.854  11.722
   30        0.365   6.433   4.813  11.610
   31        0.385   6.476   4.849  11.710
   32        0.369   6.440   4.815  11.624
   33        0.389   6.484   4.857  11.730
   34        0.377   6.459   4.836  11.671
   35        0.392   6.491   4.875  11.758
   36        0.381   6.463   4.839  11.683
   37        0.374   6.453   4.822  11.650
   38        0.375   6.451   4.825  11.650
   39        0.373   6.453   4.826  11.652
   40        0.374   6.452   4.834  11.661
   41        1.600   3.529   0.000   5.130
   42        1.599   3.536   0.000   5.135
   43        1.599   3.524   0.000   5.123
   44        1.597   3.512   0.000   5.109
   45        1.599   3.523   0.000   5.122
   46        1.598   3.536   0.000   5.134
   47        1.596   3.486   0.000   5.082
   48        1.599   3.518   0.000   5.117
   49        1.600   3.519   0.000   5.119
   50        1.598   3.506   0.000   5.105
   51        1.596   3.491   0.000   5.086
   52        1.599   3.537   0.000   5.137
   53        1.603   3.489   0.000   5.092
   54        1.600   3.490   0.000   5.090
   55        1.598   3.504   0.000   5.102
   56        1.597   3.516   0.000   5.113
   57        1.597   3.452   0.000   5.050
   58        1.598   3.502   0.000   5.100
   59        1.597   3.498   0.000   5.095
   60        1.599   3.492   0.000   5.090
   61        1.598   3.504   0.000   5.102
   62        1.601   3.504   0.000   5.105
   63        1.601   3.504   0.000   5.105
   64        1.599   3.472   0.000   5.072
   65        1.598   3.491   0.000   5.089
   66        1.598   3.498   0.000   5.096
   67        1.597   3.532   0.000   5.129
   68        1.603   3.506   0.000   5.109
   69        1.597   3.501   0.000   5.098
   70        1.599   3.514   0.000   5.112
   71        1.604   3.533   0.000   5.137
   72        1.597   3.523   0.000   5.120
   73        1.600   3.504   0.000   5.104
   74        1.599   3.515   0.000   5.114
   75        1.600   3.515   0.000   5.115
   76        1.595   3.503   0.000   5.099
   77        1.595   3.494   0.000   5.089
   78        1.598   3.511   0.000   5.110
   79        1.598   3.500   0.000   5.098
   80        1.603   3.500   0.000   5.104
   81        1.600   3.541   0.000   5.142
   82        1.598   3.512   0.000   5.110
   83        1.602   3.517   0.000   5.119
   84        1.599   3.527   0.000   5.126
   85        1.598   3.524   0.000   5.122
   86        1.597   3.497   0.000   5.094
   87        1.604   3.527   0.000   5.131
   88        1.599   3.533   0.000   5.132
--------------------------------------------------
tot         84.813 416.789  78.099 579.701
 


 magnetization (x)
 
# of ion       s       p       d       tot
------------------------------------------
    1        0.001   0.000   0.000   0.001
    2        0.002   0.000   0.000   0.002
    3        0.002   0.000   0.000   0.002
    4        0.002   0.000   0.000   0.002
    5        0.002   0.000   0.000   0.002
    6        0.002   0.000   0.000   0.002
    7        0.001   0.000   0.000   0.001
    8        0.002   0.000   0.000   0.003
    9        0.001   0.000   0.000   0.001
   10        0.002   0.000   0.000   0.003
   11        0.001   0.000   0.000   0.001
   12        0.001   0.000   0.000   0.001
   13        0.002   0.000   0.000   0.002
   14        0.000   0.000   0.000   0.001
   15        0.002   0.000   0.000   0.002
   16        0.001   0.000   0.000   0.001
   17        0.007   0.002   0.001   0.010
   18        0.008   0.003   0.001   0.012
   19        0.008   0.003   0.001   0.012
   20        0.007   0.002   0.001   0.011
   21        0.007   0.003   0.001   0.011
   22        0.007   0.002   0.001   0.011
   23        0.007   0.002   0.001   0.010
   24        0.007   0.002   0.001   0.011
   25        0.015   0.030   2.746   2.792
   26        0.016   0.031   2.731   2.778
   27        0.015   0.029   2.752   2.795
   28        0.015   0.031   2.727   2.773
   29        0.016   0.031   2.734   2.781
   30        0.016   0.029   2.772   2.817
   31        0.015   0.030   2.743   2.789
   32        0.015   0.029   2.772   2.817
   33        0.016   0.032   2.730   2.778
   34        0.015   0.030   2.751   2.796
   35        0.016   0.033   2.722   2.771
   36        0.015   0.030   2.747   2.793
   37        0.015   0.030   2.753   2.798
   38        0.016   0.030   2.761   2.807
   39        0.016   0.031   2.758   2.804
   40        0.017   0.032   2.761   2.810
   41        0.002   0.054   0.000   0.056
   42        0.002   0.044   0.000   0.046
   43        0.002   0.031   0.000   0.033
   44        0.002   0.037   0.000   0.039
   45        0.002   0.047   0.000   0.049
   46        0.001   0.033   0.000   0.034
   47        0.002   0.019   0.000   0.021
   48        0.002   0.056   0.000   0.058
   49        0.002   0.057   0.000   0.059
   50        0.002   0.017   0.000   0.019
   51        0.002   0.016   0.000   0.017
   52        0.002   0.032   0.000   0.033
   53        0.003   0.059   0.000   0.061
   54        0.002   0.019   0.000   0.021
   55        0.002   0.021   0.000   0.023
   56        0.002   0.031   0.000   0.032
   57        0.002   0.013   0.000   0.015
   58        0.002   0.034   0.000   0.036
   59        0.002   0.039   0.000   0.041
   60        0.002   0.019   0.000   0.021
   61        0.002   0.043   0.000   0.045
   62        0.002   0.024   0.000   0.026
   63        0.002   0.033   0.000   0.035
   64        0.002   0.027   0.000   0.029
   65        0.002   0.034   0.000   0.036
   66        0.002   0.031   0.000   0.033
   67        0.002   0.031   0.000   0.032
   68        0.003   0.052   0.000   0.055
   69        0.002   0.029   0.000   0.031
   70        0.002   0.012   0.000   0.013
   71        0.003   0.054   0.000   0.056
   72        0.002   0.036   0.000   0.037
   73        0.002   0.020   0.000   0.022
   74        0.002   0.025   0.000   0.027
   75        0.002   0.053   0.000   0.055
   76        0.002   0.042   0.000   0.044
   77        0.002   0.020   0.000   0.022
   78        0.002   0.025   0.000   0.027
   79        0.002   0.019   0.000   0.020
   80        0.002   0.046   0.000   0.048
   81        0.002   0.052   0.000   0.055
   82        0.002   0.052   0.000   0.054
   83        0.002   0.036   0.000   0.038
   84        0.002   0.041   0.000   0.043
   85        0.002   0.033   0.000   0.035
   86        0.002   0.034   0.000   0.036
   87        0.002   0.042   0.000   0.045
   88        0.002   0.046   0.000   0.048
--------------------------------------------------
tot          0.426   2.179  43.970  46.576
 

 total amount of memory used by VASP MPI-rank0    94434. kBytes
=======================================================================

   base      :      30000. kBytes
   nonlr-proj:      13675. kBytes
   fftplans  :       1275. kBytes
   grid      :      22786. kBytes
   one-center:       2737. kBytes
   wavefun   :      23961. kBytes
 
  
  
 General timing and accounting informations for this job:
 ========================================================
  
                  Total CPU time used (sec):      756.681
                            User time (sec):      748.793
                          System time (sec):        7.888
                         Elapsed time (sec):      773.903
  
                   Maximum memory used (kb):      193888.
                   Average memory used (kb):           0.
  
                          Minor page faults:       277294
                          Major page faults:            0
                 Voluntary context switches:       251658
