 vasp.5.4.4.18Apr17-6-g9f103f2a35 (build Dec 02 2020 12:53:39) complex          
  
 executed on             LinuxIFC date 2021.07.31  08:00:41
 running on   64 total cores
 distrk:  each k-point on   64 cores,    1 groups
 distr:  one band on NCORES_PER_BAND=   1 cores,   64 groups


--------------------------------------------------------------------------------------------------------


 INCAR:
 POTCAR:    PAW_PBE Na_pv 19Sep2006               
 POTCAR:    PAW_PBE Mg_pv 13Apr2007               
 POTCAR:    PAW_PBE Mn_pv 02Aug2007               
 POTCAR:    PAW_PBE O 08Apr2002                   

 ----------------------------------------------------------------------------- 
|                                                                             |
|           W    W    AA    RRRRR   N    N  II  N    N   GGGG   !!!           |
|           W    W   A  A   R    R  NN   N  II  NN   N  G    G  !!!           |
|           W    W  A    A  R    R  N N  N  II  N N  N  G       !!!           |
|           W WW W  AAAAAA  RRRRR   N  N N  II  N  N N  G  GGG   !            |
|           WW  WW  A    A  R   R   N   NN  II  N   NN  G    G                |
|           W    W  A    A  R    R  N    N  II  N    N   GGGG   !!!           |
|                                                                             |
|      For optimal performance we recommend to set                            |
|        NCORE= 4 - approx SQRT( number of cores)                             |
|      NCORE specifies how many cores store one orbital (NPAR=cpu/NCORE).     |
|      This setting can  greatly improve the performance of VASP for DFT.     |
|      The default,   NCORE=1            might be grossly inefficient         |
|      on modern multi-core architectures or massively parallel machines.     |
|      Do your own testing !!!!                                               |
|      Unfortunately you need to use the default for GW and RPA calculations. |
|      (for HF NCORE is supported but not extensively tested yet)             |
|                                                                             |
 ----------------------------------------------------------------------------- 

 POTCAR:    PAW_PBE Na_pv 19Sep2006               
   VRHFIN =Na: p6s1                                                             
   LEXCH  = PE                                                                  
   EATOM  =   766.0439 eV,   56.3026 Ry                                         
                                                                                
   TITEL  = PAW_PBE Na_pv 19Sep2006                                             
   LULTRA =        F    use ultrasoft PP ?                                      
   IUNSCR =        1    unscreen: 0-lin 1-nonlin 2-no                           
   RPACOR =    1.800    partial core radius                                     
   POMASS =   22.990; ZVAL   =    7.000    mass and valenz                      
   RCORE  =    2.200    outmost cutoff radius                                   
   RWIGS  =    2.200; RWIGS  =    1.164    wigner-seitz radius (au A)           
   ENMAX  =  259.561; ENMIN  =  194.671 eV                                      
   ICORE  =        2    local potential                                         
   LCOR   =        T    correct aug charges                                     
   LPAW   =        T    paw PP                                                  
   EAUG   =  368.056                                                            
   DEXC   =    0.000                                                            
   RMAX   =    2.245    core radius for proj-oper                               
   RAUG   =    1.300    factor for augmentation sphere                          
   RDEP   =    2.259    radius for radial grids                                 
   RDEPT  =    1.738    core radius for aug-charge                              
                                                                                
   Atomic configuration                                                         
    5 entries                                                                   
     n  l   j            E        occ.                                          
     1  0  0.50     -1033.6933   2.0000                                         
     2  0  0.50       -56.7526   2.0000                                         
     2  1  1.50       -28.6721   6.0000                                         
     3  0  0.50        -2.7440   1.0000                                         
     3  2  1.50        -1.3606   0.0000                                         
   Description                                                                  
     l       E           TYP  RCUT    TYP  RCUT                                 
     1    -28.6720912     23  2.000                                             
     1      6.8029130     23  2.000                                             
     0     -2.7439560     23  2.200                                             
     0     34.0145650     23  2.200                                             
     2     -1.3605826     23  2.200                                             
  local pseudopotential read in
  partial core-charges read in
  partial kinetic energy density read in
  atomic valenz-charges read in
  non local Contribution for L=           1  read in
    real space projection operators read in
  non local Contribution for L=           1  read in
    real space projection operators read in
  non local Contribution for L=           0  read in
    real space projection operators read in
  non local Contribution for L=           0  read in
    real space projection operators read in
    PAW grid and wavefunctions read in
 
   number of l-projection  operators is LMAX  =           4
   number of lm-projection operators is LMMAX =           8
 
 POTCAR:    PAW_PBE Mg_pv 13Apr2007               
   VRHFIN =Mg: p6s2                                                             
   LEXCH  = PE                                                                  
   EATOM  =  1056.7344 eV,   77.6678 Ry                                         
                                                                                
   TITEL  = PAW_PBE Mg_pv 13Apr2007                                             
   LULTRA =        F    use ultrasoft PP ?                                      
   IUNSCR =        1    unscreen: 0-lin 1-nonlin 2-no                           
   RPACOR =    1.500    partial core radius                                     
   POMASS =   24.305; ZVAL   =    8.000    mass and valenz                      
   RCORE  =    2.000    outmost cutoff radius                                   
   RWIGS  =    2.000; RWIGS  =    1.058    wigner-seitz radius (au A)           
   ENMAX  =  403.929; ENMIN  =  302.947 eV                                      
   RCLOC  =    1.506    cutoff for local pot                                    
   LCOR   =        T    correct aug charges                                     
   LPAW   =        T    paw PP                                                  
   EAUG   =  758.780                                                            
   DEXC   =    0.000                                                            
   RMAX   =    2.045    core radius for proj-oper                               
   RAUG   =    1.300    factor for augmentation sphere                          
   RDEP   =    2.025    radius for radial grids                                 
   RDEPT  =    1.557    core radius for aug-charge                              
                                                                                
   Atomic configuration                                                         
    5 entries                                                                   
     n  l   j            E        occ.                                          
     1  0  0.50     -1259.6230   2.0000                                         
     2  0  0.50       -79.8442   2.0000                                         
     2  1  1.50       -46.6121   6.0000                                         
     3  0  0.50        -4.7055   2.0000                                         
     3  2  1.50        -1.3606   0.0000                                         
   Description                                                                  
     l       E           TYP  RCUT    TYP  RCUT                                 
     1    -46.6121073     23  1.600                                             
     1      2.7211652     23  1.600                                             
     0     -4.7054661     23  2.000                                             
     0     61.2262170     23  2.000                                             
     2     -1.3605826     23  2.000                                             
  local pseudopotential read in
  partial core-charges read in
  partial kinetic energy density read in
  atomic valenz-charges read in
  non local Contribution for L=           1  read in
    real space projection operators read in
  non local Contribution for L=           1  read in
    real space projection operators read in
  non local Contribution for L=           0  read in
    real space projection operators read in
  non local Contribution for L=           0  read in
    real space projection operators read in
  non local Contribution for L=           2  read in
    real space projection operators read in
    PAW grid and wavefunctions read in
 
   number of l-projection  operators is LMAX  =           5
   number of lm-projection operators is LMMAX =          13
 
 POTCAR:    PAW_PBE Mn_pv 02Aug2007               
   VRHFIN =Mn: 3p4s3d                                                           
   LEXCH  = PE                                                                  
   EATOM  =  2025.2664 eV,  148.8529 Ry                                         
                                                                                
   TITEL  = PAW_PBE Mn_pv 02Aug2007                                             
   LULTRA =        F    use ultrasoft PP ?                                      
   IUNSCR =        1    unscreen: 0-lin 1-nonlin 2-no                           
   RPACOR =    2.080    partial core radius                                     
   POMASS =   54.938; ZVAL   =   13.000    mass and valenz                      
   RCORE  =    2.300    outmost cutoff radius                                   
   RWIGS  =    2.500; RWIGS  =    1.323    wigner-seitz radius (au A)           
   ENMAX  =  269.864; ENMIN  =  202.398 eV                                      
   ICORE  =        3    local potential                                         
   LCOR   =        T    correct aug charges                                     
   LPAW   =        T    paw PP                                                  
   EAUG   =  569.085                                                            
   DEXC   =    0.000                                                            
   RMAX   =    2.343    core radius for proj-oper                               
   RAUG   =    1.300    factor for augmentation sphere                          
   RDEP   =    2.338    radius for radial grids                                 
   RDEPT  =    1.798    core radius for aug-charge                              
                                                                                
   Atomic configuration                                                         
    8 entries                                                                   
     n  l   j            E        occ.                                          
     1  0  0.50     -6424.8287   2.0000                                         
     2  0  0.50      -739.1154   2.0000                                         
     2  1  1.50      -625.3949   6.0000                                         
     3  0  0.50       -81.6100   2.0000                                         
     3  1  1.50       -50.4667   6.0000                                         
     3  2  2.50        -3.3745   6.0000                                         
     4  0  0.50        -4.1331   1.0000                                         
     4  3  2.50        -1.3606   0.0000                                         
   Description                                                                  
     l       E           TYP  RCUT    TYP  RCUT                                 
     1    -50.4666628     23  2.000                                             
     1     -1.3605826     23  2.000                                             
     2     -3.3744729     23  2.300                                             
     2     -4.7350555     23  2.300                                             
     0     -4.1331431     23  2.300                                             
     0      7.6656591     23  2.300                                             
     3      9.5240782     23  2.300                                             
  local pseudopotential read in
  partial core-charges read in
  partial kinetic energy density read in
  atomic valenz-charges read in
  non local Contribution for L=           1  read in
    real space projection operators read in
  non local Contribution for L=           1  read in
    real space projection operators read in
  non local Contribution for L=           2  read in
    real space projection operators read in
  non local Contribution for L=           2  read in
    real space projection operators read in
  non local Contribution for L=           0  read in
    real space projection operators read in
  non local Contribution for L=           0  read in
    real space projection operators read in
    PAW grid and wavefunctions read in
 
   number of l-projection  operators is LMAX  =           6
   number of lm-projection operators is LMMAX =          18
 
 POTCAR:    PAW_PBE O 08Apr2002                   
   VRHFIN =O: s2p4                                                              
   LEXCH  = PE                                                                  
   EATOM  =   432.3788 eV,   31.7789 Ry                                         
                                                                                
   TITEL  = PAW_PBE O 08Apr2002                                                 
   LULTRA =        F    use ultrasoft PP ?                                      
   IUNSCR =        1    unscreen: 0-lin 1-nonlin 2-no                           
   RPACOR =    1.200    partial core radius                                     
   POMASS =   16.000; ZVAL   =    6.000    mass and valenz                      
   RCORE  =    1.520    outmost cutoff radius                                   
   RWIGS  =    1.550; RWIGS  =    0.820    wigner-seitz radius (au A)           
   ENMAX  =  400.000; ENMIN  =  300.000 eV                                      
   ICORE  =        2    local potential                                         
   LCOR   =        T    correct aug charges                                     
   LPAW   =        T    paw PP                                                  
   EAUG   =  605.392                                                            
   DEXC   =    0.000                                                            
   RMAX   =    1.553    core radius for proj-oper                               
   RAUG   =    1.300    factor for augmentation sphere                          
   RDEP   =    1.550    radius for radial grids                                 
   RDEPT  =    1.329    core radius for aug-charge                              
                                                                                
   Atomic configuration                                                         
    4 entries                                                                   
     n  l   j            E        occ.                                          
     1  0  0.50      -514.6923   2.0000                                         
     2  0  0.50       -23.9615   2.0000                                         
     2  1  0.50        -9.0305   4.0000                                         
     3  2  1.50        -9.5241   0.0000                                         
   Description                                                                  
     l       E           TYP  RCUT    TYP  RCUT                                 
     0    -23.9615318     23  1.200                                             
     0     -9.5240782     23  1.200                                             
     1     -9.0304911     23  1.520                                             
     1      8.1634956     23  1.520                                             
     2     -9.5240782      7  1.500                                             
  local pseudopotential read in
  partial core-charges read in
  partial kinetic energy density read in
  kinetic energy density of atom read in
  atomic valenz-charges read in
  non local Contribution for L=           0  read in
    real space projection operators read in
  non local Contribution for L=           0  read in
    real space projection operators read in
  non local Contribution for L=           1  read in
    real space projection operators read in
  non local Contribution for L=           1  read in
    real space projection operators read in
    PAW grid and wavefunctions read in
 
   number of l-projection  operators is LMAX  =           4
   number of lm-projection operators is LMMAX =           8
 
 Optimization of the real space projectors (new method)

 maximal supplied QI-value         = 17.01
 optimisation between [QCUT,QGAM] = [ 10.20, 20.41] = [ 29.16,116.64] Ry 
 Optimized for a Real-space Cutoff    1.30 Angstroem

   l    n(q)    QCUT    max X(q) W(low)/X(q) W(high)/X(q)  e(spline) 
   1      7    10.205     4.940    0.23E-03    0.84E-03    0.11E-06
   1      7    10.205     6.253    0.40E-03    0.13E-02    0.18E-06
   0      8    10.205    37.438    0.23E-03    0.37E-03    0.42E-07
   0      8    10.205     9.606    0.16E-03    0.26E-03    0.31E-07
 Optimization of the real space projectors (new method)

 maximal supplied QI-value         = 18.90
 optimisation between [QCUT,QGAM] = [ 10.20, 20.41] = [ 29.16,116.64] Ry 
 Optimized for a Real-space Cutoff    1.26 Angstroem

   l    n(q)    QCUT    max X(q) W(low)/X(q) W(high)/X(q)  e(spline) 
   1      7    10.205     2.974    0.63E-04    0.14E-03    0.13E-06
   1      7    10.205     4.279    0.11E-03    0.45E-03    0.24E-06
   0      8    10.205    16.381    0.44E-03    0.15E-03    0.55E-07
   0      8    10.205     5.611    0.31E-03    0.11E-03    0.40E-07
   2      7    10.205     4.652    0.50E-03    0.47E-03    0.57E-07
 Optimization of the real space projectors (new method)

 maximal supplied QI-value         = 16.25
 optimisation between [QCUT,QGAM] = [ 10.24, 20.48] = [ 29.35,117.42] Ry 
 Optimized for a Real-space Cutoff    1.34 Angstroem

   l    n(q)    QCUT    max X(q) W(low)/X(q) W(high)/X(q)  e(spline) 
   1      8    10.239     3.658    0.23E-03    0.30E-03    0.98E-07
   1      8    10.239     5.612    0.32E-03    0.65E-03    0.21E-06
   2      7    10.239    55.373    0.42E-03    0.45E-03    0.65E-07
   2      7    10.239    50.863    0.43E-03    0.48E-03    0.67E-07
   0      8    10.239    79.536    0.11E-03    0.21E-03    0.56E-07
   0      8    10.239    38.668    0.96E-04    0.19E-03    0.52E-07
 Optimization of the real space projectors (new method)

 maximal supplied QI-value         = 24.76
 optimisation between [QCUT,QGAM] = [ 10.15, 20.30] = [ 28.85,115.39] Ry 
 Optimized for a Real-space Cutoff    1.38 Angstroem

   l    n(q)    QCUT    max X(q) W(low)/X(q) W(high)/X(q)  e(spline) 
   0      8    10.150    20.381    0.22E-03    0.32E-03    0.29E-06
   0      8    10.150    15.268    0.23E-03    0.35E-03    0.30E-06
   1      8    10.150     5.964    0.46E-03    0.53E-03    0.21E-06
   1      8    10.150     5.382    0.38E-03    0.45E-03    0.19E-06
  PAW_PBE Na_pv 19Sep2006               :
 energy of atom  1       EATOM= -766.0439
 kinetic energy error for atom=    0.0103 (will be added to EATOM!!)
  PAW_PBE Mg_pv 13Apr2007               :
 energy of atom  2       EATOM=-1056.7344
 kinetic energy error for atom=    0.0820 (will be added to EATOM!!)
  PAW_PBE Mn_pv 02Aug2007               :
 energy of atom  3       EATOM=-2025.2664
 kinetic energy error for atom=    0.0284 (will be added to EATOM!!)
  PAW_PBE O 08Apr2002                   :
 energy of atom  4       EATOM= -432.3788
 kinetic energy error for atom=    0.1156 (will be added to EATOM!!)
 
 
 POSCAR: Na Mg Mn  O                             
  positions in cartesian coordinates
  No initial velocities read in

 METAGGA = SCAN     LMAXTAU =  6    LMIXTAU =  F

 exchange correlation table for  LEXCH =        8
   RHO(1)=    0.500       N(1)  =     2000
   RHO(2)=  100.500       N(2)  =     4000

 VTST: version 3.2, (02/03/18)

 CHAIN: initializing optimizer
 
 OPT: Using VASP Dynamics algorithm
 CHAIN: Read ICHAIN            0
 
 POSCAR: Na Mg Mn  O                             
  positions in cartesian coordinates
  No initial velocities read in
 


--------------------------------------------------------------------------------------------------------


 ion  position               nearest neighbor table
   1  0.988  0.690  0.250-  86 2.26  76 2.36
   2  0.304  0.645  0.760-  85 2.21  83 2.35  82 2.35  38 2.77
   3  0.271  0.968  0.753-  47 2.37
   4  0.958  0.463  0.742-  57 2.34  80 2.34  83 2.36  39 2.94
   5  0.923  0.995  0.257-  63 2.20  54 2.29  27 2.82  25 2.91
   6  0.415  0.955  0.258-  88 2.23  51 2.26  79 2.35  31 2.80  29 2.86
   7  0.460  0.390  0.751-  48 2.26  71 2.30  45 2.34  68 2.34  35 2.96
   8  0.646  0.183  0.753-  60 2.28
   9  0.624  0.496  0.256-  74 2.26  65 2.35  66 2.36  10 2.79
  10  0.469  0.663  0.254-  65 2.30  74 2.34  87 2.35   9 2.79
  11  0.281  0.156  0.248-  42 2.32  43 2.34  52 2.37  28 2.79  26 2.84
  12  0.838  0.697  0.759-  73 2.16  72 2.27  34 2.87
  13  0.105  0.147  0.750-  47 2.28  58 2.35  61 2.38
  14  0.769  0.954  0.741-  69 2.31
  15  0.766  0.283  0.254-  64 2.28  53 2.31  62 2.36
  16  0.130  0.480  0.245-  78 2.28  86 2.32  77 2.33
  17  0.613  0.325  0.006-  71 2.05  43 2.06  60 2.06  66 2.08  49 2.11  53 2.15
  18  0.618  0.311  0.509-  68 1.91  57 2.02  46 2.05  62 2.06  52 2.14  75 2.22  28 2.81
  19  0.105  0.304  0.996-  61 1.96  41 1.97  48 2.02  55 2.04  83 2.17  78 2.18  25 2.65  26 2.81
                            30 2.84
  20  0.130  0.326  0.494-  45 1.99  80 1.99  87 2.01  50 2.09  64 2.13  58 2.21  40 2.82  35 2.83
                            28 2.84
  21  0.112  0.828  0.001-  67 1.98  47 2.02  84 2.07  42 2.12  73 2.14  77 2.24  25 2.83  26 2.85

  22  0.121  0.816  0.490-  51 1.98  44 2.04  70 2.05  81 2.07  76 2.07  86 2.08  40 2.82  31 2.83

  23  0.624  0.824  0.011-  65 2.00  72 2.05  54 2.05  79 2.06  85 2.11  59 2.16  34 2.80  30 2.85

  24  0.612  0.818  0.498-  63 1.94  88 2.01  56 2.03  69 2.05  74 2.07  82 2.16  31 2.84
  25  0.957  0.999  0.999-  54 1.84  41 1.84  61 1.87  47 1.96  67 2.00  72 2.01  19 2.65  26 2.81
                            21 2.83  30 2.88   5 2.91  34 2.97
  26  0.281  0.156  0.995-  41 1.85  43 1.89  42 1.90  47 1.98  49 1.99  48 2.03  25 2.81  19 2.81
                            11 2.84  21 2.85  33 2.87  29 2.90
  27  0.954  0.982  0.506-  50 1.88  58 1.91  44 1.92  63 1.92  69 1.93  76 1.95   5 2.82  32 2.89
                            36 2.94  28 2.96
  28  0.294  0.162  0.496-  52 1.81  45 1.86  51 1.91  46 1.92  50 1.96  44 2.13  11 2.79  18 2.81
                            35 2.83  20 2.84  31 2.91  27 2.96
  29  0.450  0.991  0.006-  53 1.88  42 1.92  79 1.96  49 1.96  59 1.99  84 2.01  30 2.84   6 2.86
                            26 2.90  38 2.94
  30  0.777  0.152  0.996-  59 1.79  54 1.87  53 1.88  60 1.92  61 1.96  55 1.99  29 2.84  19 2.84
                            23 2.85  25 2.88  37 2.89
  31  0.447  0.980  0.506-  81 1.89  62 1.89  88 1.92  56 1.94  46 1.98  51 1.99   6 2.80  22 2.83
                            24 2.84  40 2.86  28 2.91  32 3.00
  32  0.792  0.152  0.499-  57 1.85  64 1.91  58 1.93  63 1.93  56 1.95  62 2.00  39 2.87  27 2.89
                            31 3.00
  33  0.443  0.487  0.002-  78 1.87  85 1.88  43 1.91  48 1.94  71 1.97  65 1.97  38 2.81  26 2.87
                            34 2.93
  34  0.780  0.658  0.011-  67 1.87  73 1.91  65 1.91  71 1.93  72 1.93  66 1.97  23 2.80  12 2.87
                            33 2.93  25 2.97  37 2.99
  35  0.456  0.488  0.502-  82 1.80  74 1.90  68 1.91  87 1.92  45 1.94  52 1.99  20 2.83  28 2.83
                            36 2.91  40 2.94   7 2.96
  36  0.790  0.644  0.492-  76 1.84  70 1.88  68 1.94  75 1.97  74 1.98  69 2.00  39 2.85  35 2.91
                            27 2.94
  37  0.952  0.484  0.008-  77 1.84  55 1.91  60 1.94  83 1.96  73 1.98  66 2.01  30 2.89  38 2.89
                            34 2.99
  38  0.285  0.652  0.006-  77 1.90  79 1.90  85 1.91  83 1.93  84 1.94  78 1.94   2 2.77  33 2.81
                            37 2.89  29 2.94
  39  0.958  0.483  0.480-  75 1.84  86 1.89  64 1.90  57 1.93  80 1.94  70 1.99  40 2.81  36 2.85
                            32 2.87   4 2.94
  40  0.281  0.651  0.490-  88 1.89  80 1.89  87 1.92  86 1.93  81 1.95  82 2.02  39 2.81  22 2.82
                            20 2.82  31 2.86  35 2.94
  41  0.121  0.145  0.087-  25 1.84  26 1.85  19 1.97
  42  0.297  0.011  0.094-  26 1.90  29 1.92  21 2.12  11 2.32
  43  0.428  0.318  0.092-  26 1.89  33 1.91  17 2.06  11 2.34
  44  0.115  0.979  0.595-  27 1.92  22 2.04  28 2.13
  45  0.293  0.316  0.588-  28 1.86  35 1.94  20 1.99   7 2.34
  46  0.435  0.141  0.600-  28 1.92  31 1.98  18 2.05
  47  0.113  0.994  0.898-  25 1.96  26 1.98  21 2.02  13 2.28   3 2.37
  48  0.287  0.331  0.899-  33 1.94  19 2.02  26 2.03   7 2.26
  49  0.443  0.145  0.902-  29 1.96  26 1.99  17 2.11
  50  0.111  0.132  0.409-  27 1.88  28 1.96  20 2.09
  51  0.290  0.997  0.408-  28 1.91  22 1.98  31 1.99   6 2.26
  52  0.440  0.314  0.406-  28 1.81  35 1.99  18 2.14  11 2.37
  53  0.619  0.138  0.095-  30 1.88  29 1.88  17 2.15  15 2.31
  54  0.809  0.013  0.086-  25 1.84  30 1.87  23 2.05   5 2.29
  55  0.940  0.316  0.096-  37 1.91  30 1.99  19 2.04
  56  0.622  0.996  0.592-  31 1.94  32 1.95  24 2.03
  57  0.807  0.320  0.579-  32 1.85  39 1.93  18 2.02   4 2.34
  58  0.942  0.137  0.596-  27 1.91  32 1.93  20 2.21  13 2.35
  59  0.623  0.007  0.908-  30 1.79  29 1.99  23 2.16
  60  0.789  0.325  0.912-  30 1.92  37 1.94  17 2.06   8 2.28
  61  0.938  0.141  0.903-  25 1.87  19 1.96  30 1.96  13 2.38
  62  0.608  0.132  0.413-  31 1.89  32 2.00  18 2.06  15 2.36
  63  0.790  0.982  0.417-  27 1.92  32 1.93  24 1.94   5 2.20
  64  0.940  0.309  0.397-  39 1.90  32 1.91  20 2.13  15 2.28
  65  0.611  0.645  0.100-  34 1.91  33 1.97  23 2.00  10 2.30   9 2.35
  66  0.790  0.497  0.106-  34 1.97  37 2.01  17 2.08   9 2.36
  67  0.941  0.822  0.094-  34 1.87  21 1.98  25 2.00
  68  0.622  0.485  0.584-  35 1.91  18 1.91  36 1.94   7 2.34
  69  0.786  0.810  0.588-  27 1.93  36 2.00  24 2.05  14 2.31
  70  0.945  0.638  0.583-  36 1.88  39 1.99  22 2.05
  71  0.619  0.503  0.913-  34 1.93  33 1.97  17 2.05   7 2.30
  72  0.791  0.819  0.910-  34 1.93  25 2.01  23 2.05  12 2.27
  73  0.924  0.635  0.913-  34 1.91  37 1.98  21 2.14  12 2.16
  74  0.616  0.641  0.407-  35 1.90  36 1.98  24 2.07   9 2.26  10 2.34
  75  0.803  0.487  0.394-  39 1.84  36 1.97  18 2.22
  76  0.934  0.811  0.408-  36 1.84  27 1.95  22 2.07   1 2.36
  77  0.115  0.632  0.095-  37 1.84  38 1.90  21 2.24  16 2.33
  78  0.291  0.491  0.097-  33 1.87  38 1.94  19 2.18  16 2.28
  79  0.439  0.819  0.096-  38 1.90  29 1.96  23 2.06   6 2.35
  80  0.120  0.494  0.581-  40 1.89  39 1.94  20 1.99   4 2.34
  81  0.291  0.813  0.593-  31 1.89  40 1.95  22 2.07
  82  0.432  0.624  0.592-  35 1.80  40 2.02  24 2.16   2 2.35
  83  0.120  0.503  0.907-  38 1.93  37 1.96  19 2.17   2 2.35   4 2.36
  84  0.285  0.814  0.912-  38 1.94  29 2.01  21 2.07
  85  0.442  0.646  0.914-  33 1.88  38 1.91  23 2.11   2 2.21
  86  0.119  0.640  0.390-  39 1.89  40 1.93  22 2.08   1 2.26  16 2.32
  87  0.304  0.499  0.404-  40 1.92  35 1.92  20 2.01  10 2.35
  88  0.440  0.821  0.407-  40 1.89  31 1.92  24 2.01   6 2.23
 
  LATTYP: Found a hexagonal cell.
 ALAT       =    10.0190000534
 C/A-ratio  =     1.1196726572
  
  Lattice vectors:
  
 A1 = (  10.0190000534,   0.0000000000,   0.0000000000)
 A2 = (  -5.0095000267,   8.6767085668,   0.0000000000)
 A3 = (   0.0000000000,   0.0000000000,  11.2180004120)


Analysis of symmetry for initial positions (statically):
=====================================================================
 Subroutine PRICEL returns:
 Original cell was already a primitive cell.
 

 Routine SETGRP: Setting up the symmetry group for a 
 hexagonal supercell.


 Subroutine GETGRP returns: Found  1 space group operations
 (whereof  1 operations were pure point group operations)
 out of a pool of 24 trial point group operations.


The static configuration has the point symmetry C_1 .


Analysis of symmetry for dynamics (positions and initial velocities):
=====================================================================
 Subroutine PRICEL returns:
 Original cell was already a primitive cell.
 

 Routine SETGRP: Setting up the symmetry group for a 
 hexagonal supercell.


 Subroutine GETGRP returns: Found  1 space group operations
 (whereof  1 operations were pure point group operations)
 out of a pool of 24 trial point group operations.


The dynamic configuration has the point symmetry C_1 .


Analysis of structural, dynamic, and magnetic symmetry:
=====================================================================
 Subroutine PRICEL returns:
 Original cell was already a primitive cell.
 

 Routine SETGRP: Setting up the symmetry group for a 
 hexagonal supercell.


 Subroutine GETGRP returns: Found  1 space group operations
 (whereof  1 operations were pure point group operations)
 out of a pool of 24 trial point group operations.


The magnetic configuration has the point symmetry C_1 .


 Subroutine INISYM returns: Found  1 space group operations
 (whereof  1 operations are pure point group operations),
 and found     1 'primitive' translations

 
 

Automatic generation of k-mesh.
 generate k-points for:    2    2    2
Space group operators:
 irot       det(A)        alpha          n_x          n_y          n_z        tau_x        tau_y        tau_z
    1     1.000000     0.000000     1.000000     0.000000     0.000000     0.000000     0.000000     0.000000
 
 Subroutine IBZKPT returns following result:
 ===========================================
 
 Found      8 irreducible k-points:
 
 Following reciprocal coordinates:
            Coordinates               Weight
  0.000000  0.000000  0.000000      1.000000
  0.500000 -0.000000 -0.000000      1.000000
  0.000000  0.500000  0.000000      1.000000
  0.500000  0.500000 -0.000000      1.000000
  0.000000  0.000000  0.500000      1.000000
  0.500000 -0.000000  0.500000      1.000000
  0.000000  0.500000  0.500000      1.000000
  0.500000  0.500000  0.500000      1.000000
 
 Following cartesian coordinates:
            Coordinates               Weight
  0.000000  0.000000  0.000000      1.000000
  0.049905  0.028813 -0.000000      1.000000
  0.000000  0.057626  0.000000      1.000000
  0.049905  0.086438 -0.000000      1.000000
  0.000000  0.000000  0.044571      1.000000
  0.049905  0.028813  0.044571      1.000000
  0.000000  0.057626  0.044571      1.000000
  0.049905  0.086438  0.044571      1.000000
 


--------------------------------------------------------------------------------------------------------




 Dimension of arrays:
   k-points           NKPTS =      8   k-points in BZ     NKDIM =      8   number of bands    NBANDS=    448
   number of dos      NEDOS =    301   number of ions     NIONS =     88
   non local maximal  LDIM  =      6   non local SUM 2l+1 LMDIM =     18
   total plane-waves  NPLWV = 140000
   max r-space proj   IRMAX =   1632   max aug-charges    IRDMAX=   4555
   dimension x,y,z NGX =    50 NGY =   50 NGZ =   56
   dimension x,y,z NGXF=   100 NGYF=  100 NGZF=  112
   support grid    NGXF=   100 NGYF=  100 NGZF=  112
   ions per type =              16   8  16  48
   NGX,Y,Z   is equivalent  to a cutoff of   8.30,  8.30,  8.30 a.u.
   NGXF,Y,Z  is equivalent  to a cutoff of  16.59, 16.59, 16.60 a.u.

 SYSTEM =  unknown system                          
 POSCAR =  Na Mg Mn  O                             

 Startparameter for this run:
   NWRITE =      2    write-flag & timer
   PREC   = normal    normal or accurate (medium, high low for compatibility)
   ISTART =      0    job   : 0-new  1-cont  2-samecut
   ICHARG =      1    charge: 1-file 2-atom 10-const
   ISPIN  =      2    spin polarized calculation?
   LNONCOLLINEAR =      F non collinear calculations
   LSORBIT =      F    spin-orbit coupling
   INIWAV =      1    electr: 0-lowe 1-rand  2-diag
   LASPH  =      T    aspherical Exc in radial PAW
   METAGGA=      F    non-selfconsistent MetaGGA calc.

 Electronic Relaxation 1
   ENCUT  =  400.0 eV  29.40 Ry    5.42 a.u.  16.34 16.34 18.29*2*pi/ulx,y,z
   ENINI  =  400.0     initial cutoff
   ENAUG  =  758.8 eV  augmentation charge cutoff
   NELM   =    200;   NELMIN=  6; NELMDL=-12     # of ELM steps 
   EDIFF  = 0.1E-04   stopping-criterion for ELM
   LREAL  =      T    real-space projection
   NLSPLINE    = F    spline interpolate recip. space projectors
   LCOMPAT=      F    compatible to vasp.4.4
   GGA_COMPAT  = T    GGA compatible to vasp.4.4-vasp.4.6
   LMAXPAW     = -100 max onsite density
   LMAXMIX     =    4 max onsite mixed and CHGCAR
   VOSKOWN=      0    Vosko Wilk Nusair interpolation
   ROPT   =   -0.00050  -0.00050  -0.00050  -0.00050
 Ionic relaxation
   EDIFFG = 0.1E-03   stopping-criterion for IOM
   NSW    =      1    number of steps for IOM
   NBLOCK =      1;   KBLOCK =      1    inner block; outer block 
   IBRION =     -1    ionic relax: 0-MD 1-quasi-New 2-CG
   NFREE  =      0    steps in history (QN), initial steepest desc. (CG)
   ISIF   =      2    stress and relaxation
   IWAVPR =     10    prediction:  0-non 1-charg 2-wave 3-comb
   ISYM   =      2    0-nonsym 1-usesym 2-fastsym
   LCORR  =      T    Harris-Foulkes like correction to forces

   POTIM  = 0.5000    time-step for ionic-motion
   TEIN   =    0.0    initial temperature
   TEBEG  =    0.0;   TEEND  =   0.0 temperature during run
   SMASS  =  -3.00    Nose mass-parameter (am)
   estimated Nose-frequenzy (Omega)   =  0.10E-29 period in steps =****** mass=  -0.229E-26a.u.
   SCALEE = 1.0000    scale energy and forces
   NPACO  =    256;   APACO  = 16.0  distance and # of slots for P.C.
   PSTRESS=    0.0 pullay stress

  Mass of Ions in am
   POMASS =  22.99 24.30 54.94 16.00
  Ionic Valenz
   ZVAL   =   7.00  8.00 13.00  6.00
  Atomic Wigner-Seitz radii
   RWIGS  =  -1.00 -1.00 -1.00 -1.00
  virtual crystal weights 
   VCA    =   1.00  1.00  1.00  1.00
   NELECT =     672.0000    total number of electrons
   NUPDOWN=      48.0000    fix difference up-down

 DOS related values:
   EMIN   =  10.00;   EMAX   =-10.00  energy-range for DOS
   EFERMI =   0.00
   ISMEAR =     0;   SIGMA  =   0.05  broadening in eV -4-tet -1-fermi 0-gaus

 Electronic relaxation 2 (details)
   IALGO  =     48    algorithm
   LDIAG  =      T    sub-space diagonalisation (order eigenvalues)
   LSUBROT=      F    optimize rotation matrix (better conditioning)
   TURBO    =      0    0=normal 1=particle mesh
   IRESTART =      0    0=no restart 2=restart with 2 vectors
   NREBOOT  =      0    no. of reboots
   NMIN     =      0    reboot dimension
   EREF     =   0.00    reference energy to select bands
   IMIX   =      4    mixing-type and parameters
     AMIX     =   0.40;   BMIX     =  1.00
     AMIX_MAG =   1.60;   BMIX_MAG =  1.00
     AMIN     =   0.10
     WC   =   100.;   INIMIX=   1;  MIXPRE=   1;  MAXMIX= -45

 Intra band minimization:
   WEIMIN = 0.0000     energy-eigenvalue tresh-hold
   EBREAK =  0.56E-08  absolut break condition
   DEPER  =   0.30     relativ break condition  

   TIME   =   0.40     timestep for ELM

  volume/ion in A,a.u.               =      11.08        74.78
  Fermi-wavevector in a.u.,A,eV,Ry     =   1.445993  2.732531 28.448379  2.090897
  Thomas-Fermi vector in A             =   2.564112
 
 Write flags
   LWAVE        =      F    write WAVECAR
   LDOWNSAMPLE  =      F    k-point downsampling of WAVECAR
   LCHARG       =      F    write CHGCAR
   LVTOT        =      F    write LOCPOT, total local potential
   LVHAR        =      F    write LOCPOT, Hartree potential only
   LELF         =      F    write electronic localiz. function (ELF)
   LORBIT       =     11    0 simple, 1 ext, 2 COOP (PROOUT), +10 PAW based schemes


 Dipole corrections
   LMONO  =      F    monopole corrections only (constant potential shift)
   LDIPOL =      F    correct potential (dipole corrections)
   IDIPOL =      0    1-x, 2-y, 3-z, 4-all directions 
   EPSILON=  1.0000000 bulk dielectric constant

 Exchange correlation treatment:
   GGA     =    --    GGA type
   LEXCH   =     8    internal setting for exchange type
   VOSKOWN=      0    Vosko Wilk Nusair interpolation
   LHFCALC =     F    Hartree Fock is set to
   LHFONE  =     F    Hartree Fock one center treatment
   AEXX    =    0.0000 exact exchange contribution

 Linear response parameters
   LEPSILON=     F    determine dielectric tensor
   LRPA    =     F    only Hartree local field effects (RPA)
   LNABLA  =     F    use nabla operator in PAW spheres
   LVEL    =     F    velocity operator in full k-point grid
   LINTERFAST=   F  fast interpolation
   KINTER  =     0    interpolate to denser k-point grid
   CSHIFT  =0.1000    complex shift for real part using Kramers Kronig
   OMEGAMAX=  -1.0    maximum frequency
   DEG_THRESHOLD= 0.2000000E-02 threshold for treating states as degnerate
   RTIME   =   -0.100 relaxation time in fs
  (WPLASMAI=    0.000 imaginary part of plasma frequency in eV, 0.658/RTIME)
   DFIELD  = 0.0000000 0.0000000 0.0000000 field for delta impulse in time
 
 Orbital magnetization related:
   ORBITALMAG=     F  switch on orbital magnetization
   LCHIMAG   =     F  perturbation theory with respect to B field
   DQ        =  0.001000  dq finite difference perturbation B field
   LLRAUG    =     F  two centre corrections for induced B field



--------------------------------------------------------------------------------------------------------


 Static calculation
 charge density and potential will be updated during run
 spin polarized calculation
 RMM-DIIS sequential band-by-band
 perform sub-space diagonalisation
    before iterative eigenvector-optimisation
 modified Broyden-mixing scheme, WC =      100.0
 initial mixing is a Kerker type mixing with AMIX =  0.4000 and BMIX =      1.0000
 Hartree-type preconditioning will be used
 using additional bands          112
 real space projection scheme for non local part
 use partial core corrections
 calculate Harris-corrections to forces 
   (improved forces if not selfconsistent)
 use gradient corrections 
 use of overlap-Matrix (Vanderbilt PP)
 Gauss-broadening in eV      SIGMA  =   0.05


--------------------------------------------------------------------------------------------------------


  energy-cutoff  :      400.00
  volume of cell :      975.20
      direct lattice vectors                 reciprocal lattice vectors
    10.019000053  0.000000000  0.000000000     0.099810360  0.057625538 -0.000000000
    -5.009500027  8.676708567  0.000000000     0.000000000  0.115251076  0.000000000
     0.000000000  0.000000000 11.218000412     0.000000000  0.000000000  0.089142446

  length of vectors
    10.019000053 10.019000053 11.218000412     0.115251076  0.115251076  0.089142446


 
 k-points in units of 2pi/SCALE and weight: read from INCAR                         
   0.00000000  0.00000000  0.00000000       0.125
   0.04990518  0.02881277 -0.00000000       0.125
   0.00000000  0.05762554  0.00000000       0.125
   0.04990518  0.08643831 -0.00000000       0.125
   0.00000000  0.00000000  0.04457122       0.125
   0.04990518  0.02881277  0.04457122       0.125
   0.00000000  0.05762554  0.04457122       0.125
   0.04990518  0.08643831  0.04457122       0.125
 
 k-points in reciprocal lattice and weights: read from INCAR                         
   0.00000000  0.00000000  0.00000000       0.125
   0.50000000 -0.00000000 -0.00000000       0.125
   0.00000000  0.50000000  0.00000000       0.125
   0.50000000  0.50000000 -0.00000000       0.125
   0.00000000  0.00000000  0.50000000       0.125
   0.50000000 -0.00000000  0.50000000       0.125
   0.00000000  0.50000000  0.50000000       0.125
   0.50000000  0.50000000  0.50000000       0.125
 
 position of ions in fractional coordinates (direct lattice) 
   0.98793843  0.68997806  0.24983329
   0.30373435  0.64457819  0.76004454
   0.27055548  0.96758068  0.75320910
   0.95785157  0.46290348  0.74178995
   0.92346898  0.99539588  0.25722320
   0.41531683  0.95511316  0.25826171
   0.46033863  0.38998560  0.75076481
   0.64558713  0.18340003  0.75328487
   0.62413704  0.49582972  0.25633980
   0.46948688  0.66269270  0.25440898
   0.28143807  0.15584152  0.24829737
   0.83750639  0.69664567  0.75930466
   0.10536457  0.14686247  0.75042607
   0.76859983  0.95434707  0.74100015
   0.76604907  0.28260618  0.25408271
   0.13044448  0.48019229  0.24477357
   0.61260650  0.32477984  0.00616843
   0.61787842  0.31142109  0.50855409
   0.10484129  0.30423633  0.99627523
   0.13040937  0.32615939  0.49377160
   0.11151681  0.82773669  0.00096270
   0.12123483  0.81576440  0.49009893
   0.62372127  0.82419272  0.01138492
   0.61181706  0.81822041  0.49757887
   0.95671880  0.99934439  0.99944017
   0.28070178  0.15636114  0.99530425
   0.95402523  0.98172250  0.50574343
   0.29417249  0.16206491  0.49640576
   0.45003155  0.99118576  0.00558919
   0.77735783  0.15171536  0.99572113
   0.44655577  0.98027033  0.50647083
   0.79216199  0.15249446  0.49864858
   0.44259828  0.48663384  0.00233482
   0.78049129  0.65784853  0.01116777
   0.45585247  0.48773449  0.50246299
   0.79024828  0.64360465  0.49204402
   0.95162154  0.48409947  0.00807967
   0.28473806  0.65227960  0.00610876
   0.95766291  0.48273374  0.48011319
   0.28117547  0.65121929  0.49009804
   0.12125442  0.14467352  0.08658843
   0.29703117  0.01065682  0.09405776
   0.42790167  0.31812294  0.09209039
   0.11541008  0.97897867  0.59544926
   0.29261951  0.31560931  0.58813334
   0.43491227  0.14149836  0.60045371
   0.11301637  0.99414931  0.89767335
   0.28720750  0.33142867  0.89923334
   0.44301590  0.14500775  0.90184522
   0.11107346  0.13156602  0.40919325
   0.29040922  0.99705758  0.40828221
   0.43981723  0.31429660  0.40576304
   0.61926027  0.13754640  0.09482171
   0.80859134  0.01337592  0.08600240
   0.94028517  0.31551596  0.09631485
   0.62176262  0.99581589  0.59236047
   0.80688780  0.32002573  0.57940896
   0.94219005  0.13725366  0.59623460
   0.62346128  0.00674092  0.90841501
   0.78932503  0.32472452  0.91201637
   0.93762740  0.14083221  0.90295058
   0.60791033  0.13172045  0.41261186
   0.79018224  0.98171991  0.41717060
   0.93953459  0.30917599  0.39682562
   0.61145887  0.64497384  0.10014886
   0.78983454  0.49722772  0.10578802
   0.94087138  0.82224382  0.09368604
   0.62178707  0.48481979  0.58366908
   0.78592993  0.81012517  0.58765821
   0.94494576  0.63848520  0.58268049
   0.61889666  0.50313318  0.91264037
   0.79078541  0.81896377  0.90995718
   0.92379579  0.63495160  0.91344265
   0.61596075  0.64055511  0.40708681
   0.80297298  0.48701993  0.39410589
   0.93374839  0.81138141  0.40755837
   0.11464958  0.63241723  0.09480121
   0.29139578  0.49095345  0.09699500
   0.43879314  0.81911936  0.09614637
   0.12009016  0.49418970  0.58075412
   0.29115829  0.81337756  0.59281777
   0.43192842  0.62384486  0.59213494
   0.11969869  0.50337982  0.90678371
   0.28486258  0.81427651  0.91169546
   0.44236036  0.64615401  0.91415579
   0.11936650  0.64009641  0.38973612
   0.30449007  0.49888272  0.40421821
   0.43962516  0.82097145  0.40734800
 
 position of ions in cartesian coordinates  (Angst):
   6.44171003  5.98673857  2.80263000
  -0.18590000  5.59281713  8.52618000
  -2.13640008  8.39541557  8.44950000
   7.27779997  4.01647857  8.32140000
   4.26580000  8.63676000  2.88553000
  -0.62358003  8.28723857  2.89718000
   2.65849987  3.38379143  8.42208000
   5.54939503  1.59130857  8.45035000
   3.76937000  4.30217000  2.87562000
   1.38402997  5.74999143  2.85396000
   2.03903997  1.35219143  2.78540000
   4.90113003  6.04459143  8.51788000
   0.31994005  1.27428287  8.41828000
   2.91980008  8.28059143  8.31254000
   6.25933003  2.45209143  2.85030000
  -1.09860008  4.16648857  2.74587000
   4.51072000  2.81802000  0.06919740
   4.63046000  2.70211000  5.70496000
  -0.47366700  2.63977000 11.17621591
  -0.32732400  2.82999000  5.53913000
  -3.02926000  7.18203000  0.01079959
  -2.87192000  7.07815000  5.49793000
   2.12027000  7.15128000  0.12771600
   2.03092000  7.09946000  5.58184000
   4.57915000  8.67102000 11.21172021
   2.02906000  1.35670000 11.16532351
   4.64044000  8.51812000  5.67343000
   2.13545000  1.40619000  5.56868000
  -0.45647900  8.60023000  0.06269959
   7.02833000  1.31639000 11.17000000
  -0.43662200  8.50552000  5.68159000
   7.17275000  1.32315000  5.59384000
   1.99660000  4.22238000  0.02619200
   4.52425000  5.70796000  0.12528000
   2.12388000  4.23193000  5.63663000
   4.69336000  5.58437000  5.51975000
   7.10920000  4.20039000  0.09063770
  -0.41480400  5.65964000  0.06852810
   7.17657000  4.18854000  5.38591000
  -0.44518600  5.65044000  5.49792000
   0.49010600  1.25529000  0.97134900
   2.92257000  0.09246610  1.05514000
   2.69351000  2.76026000  1.03307000
  -3.74790003  8.49431257  6.67975000
   1.35071000  2.73845000  6.59768000
   3.64855000  1.22774000  6.73589000
  -3.84788003  8.62594387 10.07010000
   1.21724000  2.87571000 10.08760000
   3.71216000  1.25819000 10.11690000
   0.45376500  1.14156000  4.59033000
  -2.08515003  8.65117807  4.58011000
   2.83206000  2.72706000  4.55185000
   5.51533000  1.19345000  1.06371000
   8.03427000  0.11605900  0.96477500
   7.84014000  2.73764000  1.08046000
   1.24089997  8.64040427  6.64510000
   6.48104000  2.77677000  6.49981000
   8.75223000  1.19091000  6.68856000
   6.21269000  0.05848900 10.19060000
   6.28154000  2.81754000 10.23100000
   8.68859000  1.22196000 10.12930000
   5.43080000  1.14290000  4.62868000
   2.99890997  8.51809757  4.67982000
   7.86438000  2.68263000  4.45159000
   2.89521000  5.59625000  1.12347000
   5.42249000  4.31430000  1.18673000
   5.30756000  7.13437000  1.05097000
   3.80098000  4.20664000  6.54760000
   3.81591000  7.02922000  6.59235000
   6.26892000  5.53995000  6.53651000
   3.68028000  4.36554000 10.23800000
   3.82028000  7.10591000 10.20790000
   6.07472000  5.50929000 10.24700000
   2.96245000  5.55791000  4.56670000
   5.60526000  4.22573000  4.42108000
   5.29061000  7.04012000  4.57199000
  -2.01942000  5.48730000  1.06348000
   0.46006300  4.25986000  1.08809000
   0.29289000  7.10726000  1.07857000
  -1.27246000  4.28794000  6.51490000
  -1.15750000  7.05744000  6.65023000
   1.20234000  5.41292000  6.64257000
  -1.32242000  4.36768000 10.17230000
  -1.22508000  7.06524000 10.22740000
   1.19510000  5.60649000 10.25500000
  -2.01063000  5.55393000  4.37206000
   0.55153300  4.32866000  4.53452000
   0.29194800  7.12333000  4.56963000
 


--------------------------------------------------------------------------------------------------------


 k-point  1 :   0.0000 0.0000 0.0000  plane waves:   17725
 k-point  2 :   0.5000-0.0000-0.0000  plane waves:   17736
 k-point  3 :   0.0000 0.5000 0.0000  plane waves:   17736
 k-point  4 :   0.5000 0.5000-0.0000  plane waves:   17736
 k-point  5 :   0.0000 0.0000 0.5000  plane waves:   17676
 k-point  6 :   0.5000-0.0000 0.5000  plane waves:   17700
 k-point  7 :   0.0000 0.5000 0.5000  plane waves:   17700
 k-point  8 :   0.5000 0.5000 0.5000  plane waves:   17700

 maximum and minimum number of plane-waves per node :     17736    17676

 maximum number of plane-waves:     17736
 maximum index in each direction: 
   IXMAX=   16   IYMAX=   16   IZMAX=   18
   IXMIN=  -16   IYMIN=  -16   IZMIN=  -18


 serial   3D FFT for wavefunctions
 parallel 3D FFT for charge:
    minimum data exchange during FFTs selected (reduces bandwidth)


 total amount of memory used by VASP MPI-rank0   104105. kBytes
=======================================================================

   base      :      30000. kBytes
   nonlr-proj:      13663. kBytes
   fftplans  :       1316. kBytes
   grid      :      22786. kBytes
   one-center:       2737. kBytes
   wavefun   :      33603. kBytes
 
     INWAV:  cpu time    0.0000: real time    0.0000
 Broyden mixing: mesh for mixing (old mesh)
   NGX = 33   NGY = 33   NGZ = 37
  (NGX  =100   NGY  =100   NGZ  =112)
  gives a total of  40293 points

 initial charge density was supplied:
 charge density of overlapping atoms calculated
 number of electron     672.0000000 magnetization      48.0000000
 keeping initial charge density in first step


--------------------------------------------------------------------------------------------------------


 Maximum index for non-local projection operator         1551
 Maximum index for augmentation-charges          269 (set IRDMAX)


--------------------------------------------------------------------------------------------------------


 First call to EWALD:  gamma=   0.179
 Maximum number of real-space cells 3x 3x 2
 Maximum number of reciprocal cells 3x 3x 3

    FEWALD:  cpu time    0.0021: real time    0.0031


--------------------------------------- Iteration      1(   1)  ---------------------------------------


    POTLOK:  cpu time    0.0672: real time    0.0701
    SETDIJ:  cpu time    2.5720: real time    2.5739
    EDDIAG:  cpu time    3.2514: real time    3.2605
  RMM-DIIS:  cpu time    8.6126: real time    8.6576
    ORTHCH:  cpu time    0.5839: real time    0.5882
       DOS:  cpu time    0.0013: real time    0.0014
    --------------------------------------------
      LOOP:  cpu time   15.0884: real time   15.1517

 eigenvalue-minimisations  :  7168
 total energy-change (2. order) : 0.1830278E+04  (-0.3587190E+05)
 number of electron     672.0000000 magnetization      48.0000000
 augmentation part      672.0000000 magnetization      48.0000000

 Free energy of the ion-electron system (eV)
  ---------------------------------------------------
  alpha Z        PSCENC =      2652.81237852
  Ewald energy   TEWEN  =    -41730.52436020
  -Hartree energ DENC   =    -25876.60869220
  -exchange      EXHF   =         0.00000000
  -V(xc)+E(xc)   XCENC  =      3606.26738365
  PAW double counting   =     55594.23204139   -59034.67079123
  entropy T*S    EENTRO =        -0.05271786
  eigenvalues    EBANDS =     -7243.37571372
  atomic energy  EATOM  =     73862.19814772
  Solvation  Ediel_sol  =         0.00000000
  ---------------------------------------------------
  free energy    TOTEN  =      1830.27767608 eV

  energy without entropy =     1830.33039394  energy(sigma->0) =     1830.30403501


--------------------------------------------------------------------------------------------------------




--------------------------------------- Iteration      1(   2)  ---------------------------------------


    EDDIAG:  cpu time    3.1971: real time    3.2067
  RMM-DIIS:  cpu time    8.6257: real time    8.6370
    ORTHCH:  cpu time    0.5800: real time    0.5838
       DOS:  cpu time    0.0010: real time    0.0010
    --------------------------------------------
      LOOP:  cpu time   12.4038: real time   12.4286

 eigenvalue-minimisations  :  7168
 total energy-change (2. order) :-0.2669806E+04  (-0.8664401E+04)
 number of electron     672.0000000 magnetization      48.0000000
 augmentation part      672.0000000 magnetization      48.0000000

 Free energy of the ion-electron system (eV)
  ---------------------------------------------------
  alpha Z        PSCENC =      2652.81237852
  Ewald energy   TEWEN  =    -41730.52436020
  -Hartree energ DENC   =    -25876.60869220
  -exchange      EXHF   =         0.00000000
  -V(xc)+E(xc)   XCENC  =      3606.26738365
  PAW double counting   =     55594.23204139   -59034.67079123
  entropy T*S    EENTRO =        -0.05360427
  eigenvalues    EBANDS =     -9913.18099444
  atomic energy  EATOM  =     73862.19814772
  Solvation  Ediel_sol  =         0.00000000
  ---------------------------------------------------
  free energy    TOTEN  =      -839.52849106 eV

  energy without entropy =     -839.47488679  energy(sigma->0) =     -839.50168892


--------------------------------------------------------------------------------------------------------




--------------------------------------- Iteration      1(   3)  ---------------------------------------


    EDDIAG:  cpu time    3.2218: real time    3.2287
  RMM-DIIS:  cpu time    8.6333: real time    8.6461
    ORTHCH:  cpu time    0.5802: real time    0.5843
       DOS:  cpu time    0.0011: real time    0.0011
    --------------------------------------------
      LOOP:  cpu time   12.4364: real time   12.4601

 eigenvalue-minimisations  :  7168
 total energy-change (2. order) : 0.3051361E+03  (-0.1559139E+04)
 number of electron     672.0000000 magnetization      48.0000000
 augmentation part      672.0000000 magnetization      48.0000000

 Free energy of the ion-electron system (eV)
  ---------------------------------------------------
  alpha Z        PSCENC =      2652.81237852
  Ewald energy   TEWEN  =    -41730.52436020
  -Hartree energ DENC   =    -25876.60869220
  -exchange      EXHF   =         0.00000000
  -V(xc)+E(xc)   XCENC  =      3606.26738365
  PAW double counting   =     55594.23204139   -59034.67079123
  entropy T*S    EENTRO =        -0.04122751
  eigenvalues    EBANDS =     -9608.05726823
  atomic energy  EATOM  =     73862.19814772
  Solvation  Ediel_sol  =         0.00000000
  ---------------------------------------------------
  free energy    TOTEN  =      -534.39238809 eV

  energy without entropy =     -534.35116057  energy(sigma->0) =     -534.37177433


--------------------------------------------------------------------------------------------------------




--------------------------------------- Iteration      1(   4)  ---------------------------------------


    EDDIAG:  cpu time    3.2414: real time    3.2622
  RMM-DIIS:  cpu time    8.6265: real time    8.6389
    ORTHCH:  cpu time    0.5803: real time    0.5841
       DOS:  cpu time    0.0008: real time    0.0009
    --------------------------------------------
      LOOP:  cpu time   12.4490: real time   12.4862

 eigenvalue-minimisations  :  7168
 total energy-change (2. order) :-0.5225423E+03  (-0.5075989E+03)
 number of electron     672.0000000 magnetization      48.0000000
 augmentation part      672.0000000 magnetization      48.0000000

 Free energy of the ion-electron system (eV)
  ---------------------------------------------------
  alpha Z        PSCENC =      2652.81237852
  Ewald energy   TEWEN  =    -41730.52436020
  -Hartree energ DENC   =    -25876.60869220
  -exchange      EXHF   =         0.00000000
  -V(xc)+E(xc)   XCENC  =      3606.26738365
  PAW double counting   =     55594.23204139   -59034.67079123
  entropy T*S    EENTRO =        -0.00435615
  eigenvalues    EBANDS =    -10130.63646541
  atomic energy  EATOM  =     73862.19814772
  Solvation  Ediel_sol  =         0.00000000
  ---------------------------------------------------
  free energy    TOTEN  =     -1056.93471390 eV

  energy without entropy =    -1056.93035775  energy(sigma->0) =    -1056.93253583


--------------------------------------------------------------------------------------------------------




--------------------------------------- Iteration      1(   5)  ---------------------------------------


    EDDIAG:  cpu time    3.2204: real time    3.2267
  RMM-DIIS:  cpu time    8.6360: real time    8.6481
    ORTHCH:  cpu time    0.5825: real time    0.5866
       DOS:  cpu time    0.0007: real time    0.0006
    --------------------------------------------
      LOOP:  cpu time   12.4396: real time   12.4620

 eigenvalue-minimisations  :  7168
 total energy-change (2. order) :-0.1480941E+03  (-0.2125582E+03)
 number of electron     672.0000000 magnetization      48.0000000
 augmentation part      672.0000000 magnetization      48.0000000

 Free energy of the ion-electron system (eV)
  ---------------------------------------------------
  alpha Z        PSCENC =      2652.81237852
  Ewald energy   TEWEN  =    -41730.52436020
  -Hartree energ DENC   =    -25876.60869220
  -exchange      EXHF   =         0.00000000
  -V(xc)+E(xc)   XCENC  =      3606.26738365
  PAW double counting   =     55594.23204139   -59034.67079123
  entropy T*S    EENTRO =        -0.00000000
  eigenvalues    EBANDS =    -10278.73487791
  atomic energy  EATOM  =     73862.19814772
  Solvation  Ediel_sol  =         0.00000000
  ---------------------------------------------------
  free energy    TOTEN  =     -1205.02877025 eV

  energy without entropy =    -1205.02877025  energy(sigma->0) =    -1205.02877025


--------------------------------------------------------------------------------------------------------




--------------------------------------- Iteration      1(   6)  ---------------------------------------


    EDDIAG:  cpu time    3.2321: real time    3.2403
  RMM-DIIS:  cpu time    8.6000: real time    8.6416
    ORTHCH:  cpu time    0.5830: real time    0.5867
       DOS:  cpu time    0.0007: real time    0.0007
    --------------------------------------------
      LOOP:  cpu time   12.4158: real time   12.4693

 eigenvalue-minimisations  :  7168
 total energy-change (2. order) :-0.2173875E+02  (-0.1153330E+03)
 number of electron     672.0000000 magnetization      48.0000000
 augmentation part      672.0000000 magnetization      48.0000000

 Free energy of the ion-electron system (eV)
  ---------------------------------------------------
  alpha Z        PSCENC =      2652.81237852
  Ewald energy   TEWEN  =    -41730.52436020
  -Hartree energ DENC   =    -25876.60869220
  -exchange      EXHF   =         0.00000000
  -V(xc)+E(xc)   XCENC  =      3606.26738365
  PAW double counting   =     55594.23204139   -59034.67079123
  entropy T*S    EENTRO =        -0.00000000
  eigenvalues    EBANDS =    -10300.47362891
  atomic energy  EATOM  =     73862.19814772
  Solvation  Ediel_sol  =         0.00000000
  ---------------------------------------------------
  free energy    TOTEN  =     -1226.76752125 eV

  energy without entropy =    -1226.76752125  energy(sigma->0) =    -1226.76752125


--------------------------------------------------------------------------------------------------------




--------------------------------------- Iteration      1(   7)  ---------------------------------------


    EDDIAG:  cpu time    3.2220: real time    3.2300
  RMM-DIIS:  cpu time    8.6273: real time    8.6407
    ORTHCH:  cpu time    0.5797: real time    0.5836
       DOS:  cpu time    0.0006: real time    0.0006
    --------------------------------------------
      LOOP:  cpu time   12.4296: real time   12.4549

 eigenvalue-minimisations  :  7168
 total energy-change (2. order) :-0.6593636E+01  (-0.7606201E+02)
 number of electron     672.0000000 magnetization      48.0000000
 augmentation part      672.0000000 magnetization      48.0000000

 Free energy of the ion-electron system (eV)
  ---------------------------------------------------
  alpha Z        PSCENC =      2652.81237852
  Ewald energy   TEWEN  =    -41730.52436020
  -Hartree energ DENC   =    -25876.60869220
  -exchange      EXHF   =         0.00000000
  -V(xc)+E(xc)   XCENC  =      3606.26738365
  PAW double counting   =     55594.23204139   -59034.67079123
  entropy T*S    EENTRO =        -0.00000000
  eigenvalues    EBANDS =    -10307.06726480
  atomic energy  EATOM  =     73862.19814772
  Solvation  Ediel_sol  =         0.00000000
  ---------------------------------------------------
  free energy    TOTEN  =     -1233.36115714 eV

  energy without entropy =    -1233.36115714  energy(sigma->0) =    -1233.36115714


--------------------------------------------------------------------------------------------------------




--------------------------------------- Iteration      1(   8)  ---------------------------------------


    EDDIAG:  cpu time    3.2256: real time    3.2317
  RMM-DIIS:  cpu time    8.6245: real time    8.6583
    ORTHCH:  cpu time    0.5813: real time    0.5851
       DOS:  cpu time    0.0007: real time    0.0007
    --------------------------------------------
      LOOP:  cpu time   12.4321: real time   12.4757

 eigenvalue-minimisations  :  7168
 total energy-change (2. order) : 0.4690841E+01  (-0.5260922E+02)
 number of electron     672.0000000 magnetization      48.0000000
 augmentation part      672.0000000 magnetization      48.0000000

 Free energy of the ion-electron system (eV)
  ---------------------------------------------------
  alpha Z        PSCENC =      2652.81237852
  Ewald energy   TEWEN  =    -41730.52436020
  -Hartree energ DENC   =    -25876.60869220
  -exchange      EXHF   =         0.00000000
  -V(xc)+E(xc)   XCENC  =      3606.26738365
  PAW double counting   =     55594.23204139   -59034.67079123
  entropy T*S    EENTRO =        -0.00000000
  eigenvalues    EBANDS =    -10302.37642337
  atomic energy  EATOM  =     73862.19814772
  Solvation  Ediel_sol  =         0.00000000
  ---------------------------------------------------
  free energy    TOTEN  =     -1228.67031572 eV

  energy without entropy =    -1228.67031572  energy(sigma->0) =    -1228.67031572


--------------------------------------------------------------------------------------------------------




--------------------------------------- Iteration      1(   9)  ---------------------------------------


    EDDIAG:  cpu time    3.2261: real time    3.2335
  RMM-DIIS:  cpu time   17.9852: real time   18.0098
    ORTHCH:  cpu time    0.6173: real time    0.6214
       DOS:  cpu time    0.0007: real time    0.0007
    --------------------------------------------
      LOOP:  cpu time   21.8293: real time   21.8655

 eigenvalue-minimisations  : 20237
 total energy-change (2. order) : 0.1802455E+02  (-0.2354899E+02)
 number of electron     672.0000000 magnetization      48.0000000
 augmentation part      672.0000000 magnetization      48.0000000

 Free energy of the ion-electron system (eV)
  ---------------------------------------------------
  alpha Z        PSCENC =      2652.81237852
  Ewald energy   TEWEN  =    -41730.52436020
  -Hartree energ DENC   =    -25876.60869220
  -exchange      EXHF   =         0.00000000
  -V(xc)+E(xc)   XCENC  =      3606.26738365
  PAW double counting   =     55594.23204139   -59034.67079123
  entropy T*S    EENTRO =        -0.00000000
  eigenvalues    EBANDS =    -10284.35186911
  atomic energy  EATOM  =     73862.19814772
  Solvation  Ediel_sol  =         0.00000000
  ---------------------------------------------------
  free energy    TOTEN  =     -1210.64576145 eV

  energy without entropy =    -1210.64576145  energy(sigma->0) =    -1210.64576145


--------------------------------------------------------------------------------------------------------




--------------------------------------- Iteration      1(  10)  ---------------------------------------


    EDDIAG:  cpu time    3.2196: real time    3.2266
  RMM-DIIS:  cpu time   18.5988: real time   18.6484
    ORTHCH:  cpu time    0.5811: real time    0.5852
       DOS:  cpu time    0.0007: real time    0.0007
    --------------------------------------------
      LOOP:  cpu time   22.4002: real time   22.4608

 eigenvalue-minimisations  : 20215
 total energy-change (2. order) :-0.3041005E+01  (-0.1023408E+01)
 number of electron     672.0000000 magnetization      48.0000000
 augmentation part      672.0000000 magnetization      48.0000000

 Free energy of the ion-electron system (eV)
  ---------------------------------------------------
  alpha Z        PSCENC =      2652.81237852
  Ewald energy   TEWEN  =    -41730.52436020
  -Hartree energ DENC   =    -25876.60869220
  -exchange      EXHF   =         0.00000000
  -V(xc)+E(xc)   XCENC  =      3606.26738365
  PAW double counting   =     55594.23204139   -59034.67079123
  entropy T*S    EENTRO =        -0.00000000
  eigenvalues    EBANDS =    -10287.39287384
  atomic energy  EATOM  =     73862.19814772
  Solvation  Ediel_sol  =         0.00000000
  ---------------------------------------------------
  free energy    TOTEN  =     -1213.68676619 eV

  energy without entropy =    -1213.68676618  energy(sigma->0) =    -1213.68676618


--------------------------------------------------------------------------------------------------------




--------------------------------------- Iteration      1(  11)  ---------------------------------------


    EDDIAG:  cpu time    3.2186: real time    3.2245
  RMM-DIIS:  cpu time   19.2619: real time   19.3011
    ORTHCH:  cpu time    0.5780: real time    0.5820
       DOS:  cpu time    0.0007: real time    0.0007
    --------------------------------------------
      LOOP:  cpu time   23.0592: real time   23.1083

 eigenvalue-minimisations  : 21708
 total energy-change (2. order) : 0.1020344E+00  (-0.9603120E-01)
 number of electron     672.0000000 magnetization      48.0000000
 augmentation part      672.0000000 magnetization      48.0000000

 Free energy of the ion-electron system (eV)
  ---------------------------------------------------
  alpha Z        PSCENC =      2652.81237852
  Ewald energy   TEWEN  =    -41730.52436020
  -Hartree energ DENC   =    -25876.60869220
  -exchange      EXHF   =         0.00000000
  -V(xc)+E(xc)   XCENC  =      3606.26738365
  PAW double counting   =     55594.23204139   -59034.67079123
  entropy T*S    EENTRO =        -0.00000000
  eigenvalues    EBANDS =    -10287.29083941
  atomic energy  EATOM  =     73862.19814772
  Solvation  Ediel_sol  =         0.00000000
  ---------------------------------------------------
  free energy    TOTEN  =     -1213.58473176 eV

  energy without entropy =    -1213.58473176  energy(sigma->0) =    -1213.58473176


--------------------------------------------------------------------------------------------------------




--------------------------------------- Iteration      1(  12)  ---------------------------------------


    EDDIAG:  cpu time    3.2172: real time    3.2230
  RMM-DIIS:  cpu time   19.9577: real time   20.0219
    ORTHCH:  cpu time    0.5803: real time    0.5840
       DOS:  cpu time    0.0007: real time    0.0007
    CHARGE:  cpu time    1.8018: real time    1.8047
    MIXING:  cpu time    0.0010: real time    0.0015
    --------------------------------------------
      LOOP:  cpu time   25.5587: real time   25.6358

 eigenvalue-minimisations  : 22783
 total energy-change (2. order) : 0.6917379E-02  (-0.6656246E-02)
 number of electron     672.0000198 magnetization      48.0000006
 augmentation part      239.0940592 magnetization      29.0430066

 Broyden mixing:
  rms(total) = 0.12602E+02    rms(broyden)= 0.12592E+02
  rms(prec ) = 0.14443E+02
  weight for this iteration     100.00

 Free energy of the ion-electron system (eV)
  ---------------------------------------------------
  alpha Z        PSCENC =      2652.81237852
  Ewald energy   TEWEN  =    -41730.52436020
  -Hartree energ DENC   =    -25876.60869220
  -exchange      EXHF   =         0.00000000
  -V(xc)+E(xc)   XCENC  =      3606.26738365
  PAW double counting   =     55594.23204139   -59034.67079123
  entropy T*S    EENTRO =        -0.00000000
  eigenvalues    EBANDS =    -10287.28392203
  atomic energy  EATOM  =     73862.19814772
  Solvation  Ediel_sol  =         0.00000000
  ---------------------------------------------------
  free energy    TOTEN  =     -1213.57781438 eV

  energy without entropy =    -1213.57781438  energy(sigma->0) =    -1213.57781438


--------------------------------------------------------------------------------------------------------




--------------------------------------- Iteration      1(  13)  ---------------------------------------


    POTLOK:  cpu time    0.0586: real time    0.0600
    SETDIJ:  cpu time    2.7292: real time    2.7313
    EDDIAG:  cpu time    3.2228: real time    3.2305
  RMM-DIIS:  cpu time   16.1640: real time   16.1881
    ORTHCH:  cpu time    0.5844: real time    0.5884
       DOS:  cpu time    0.0008: real time    0.0008
    CHARGE:  cpu time    1.8166: real time    1.8191
    MIXING:  cpu time    0.0009: real time    0.0011
    --------------------------------------------
      LOOP:  cpu time   24.5775: real time   24.6195

 eigenvalue-minimisations  : 17298
 total energy-change (2. order) : 0.2236575E+03  (-0.1380762E+03)
 number of electron     672.0000287 magnetization      48.0000001
 augmentation part      269.1541477 magnetization      26.3974471

 Broyden mixing:
  rms(total) = 0.14007E+02    rms(broyden)= 0.14004E+02
  rms(prec ) = 0.15751E+02
  weight for this iteration     100.00

 eigenvalues of (default mixing * dielectric matrix)
  average eigenvalue GAMMA=   0.3175
  0.3175

 Free energy of the ion-electron system (eV)
  ---------------------------------------------------
  alpha Z        PSCENC =      2652.81237852
  Ewald energy   TEWEN  =    -41730.52436020
  -Hartree energ DENC   =    -25206.52402858
  -exchange      EXHF   =         0.00000000
  -V(xc)+E(xc)   XCENC  =      3696.56264817
  PAW double counting   =     59930.98362626   -63356.13928123
  entropy T*S    EENTRO =        -0.07257733
  eigenvalues    EBANDS =    -10839.21689053
  atomic energy  EATOM  =     73862.19814772
  Solvation  Ediel_sol  =         0.00000000
  ---------------------------------------------------
  free energy    TOTEN  =      -989.92033719 eV

  energy without entropy =     -989.84775986  energy(sigma->0) =     -989.88404853


--------------------------------------------------------------------------------------------------------




--------------------------------------- Iteration      1(  14)  ---------------------------------------


    POTLOK:  cpu time    0.0609: real time    0.0611
    SETDIJ:  cpu time    2.6682: real time    2.7236
    EDDIAG:  cpu time    3.2277: real time    3.2339
  RMM-DIIS:  cpu time   17.0017: real time   17.0241
    ORTHCH:  cpu time    0.5819: real time    0.5857
       DOS:  cpu time    0.0007: real time    0.0007
    CHARGE:  cpu time    1.8102: real time    1.8127
    MIXING:  cpu time    0.0008: real time    0.0008
    --------------------------------------------
      LOOP:  cpu time   25.3522: real time   25.4426

 eigenvalue-minimisations  : 17759
 total energy-change (2. order) : 0.7448942E+02  (-0.1934210E+02)
 number of electron     672.0000226 magnetization      48.0000003
 augmentation part      246.6248116 magnetization      32.1699671

 Broyden mixing:
  rms(total) = 0.52760E+01    rms(broyden)= 0.52716E+01
  rms(prec ) = 0.56982E+01
  weight for this iteration     100.00

 eigenvalues of (default mixing * dielectric matrix)
  average eigenvalue GAMMA=   0.7320
  1.1058  0.3581

 Free energy of the ion-electron system (eV)
  ---------------------------------------------------
  alpha Z        PSCENC =      2652.81237852
  Ewald energy   TEWEN  =    -41730.52436020
  -Hartree energ DENC   =    -25822.22324704
  -exchange      EXHF   =         0.00000000
  -V(xc)+E(xc)   XCENC  =      3674.26123205
  PAW double counting   =     63364.91622459   -66847.23496885
  entropy T*S    EENTRO =        -0.00000000
  eigenvalues    EBANDS =    -10069.63632285
  atomic energy  EATOM  =     73862.19814772
  Solvation  Ediel_sol  =         0.00000000
  ---------------------------------------------------
  free energy    TOTEN  =      -915.43091606 eV

  energy without entropy =     -915.43091606  energy(sigma->0) =     -915.43091606


--------------------------------------------------------------------------------------------------------




--------------------------------------- Iteration      1(  15)  ---------------------------------------


    POTLOK:  cpu time    0.0670: real time    0.0681
    SETDIJ:  cpu time    2.7282: real time    2.7297
    EDDIAG:  cpu time    3.2262: real time    3.2550
  RMM-DIIS:  cpu time   16.8145: real time   16.8421
    ORTHCH:  cpu time    0.5824: real time    0.5864
       DOS:  cpu time    0.0006: real time    0.0006
    CHARGE:  cpu time    1.8038: real time    1.8063
    MIXING:  cpu time    0.0007: real time    0.0007
    --------------------------------------------
      LOOP:  cpu time   25.2234: real time   25.2889

 eigenvalue-minimisations  : 18423
 total energy-change (2. order) : 0.1394269E+02  (-0.2130911E+01)
 number of electron     672.0000234 magnetization      48.0000006
 augmentation part      249.6651762 magnetization      33.7834984

 Broyden mixing:
  rms(total) = 0.21502E+01    rms(broyden)= 0.21498E+01
  rms(prec ) = 0.22361E+01
  weight for this iteration     100.00

 eigenvalues of (default mixing * dielectric matrix)
  average eigenvalue GAMMA=   0.9501
  0.3838  0.7525  1.7140

 Free energy of the ion-electron system (eV)
  ---------------------------------------------------
  alpha Z        PSCENC =      2652.81237852
  Ewald energy   TEWEN  =    -41730.52436020
  -Hartree energ DENC   =    -25742.71635923
  -exchange      EXHF   =         0.00000000
  -V(xc)+E(xc)   XCENC  =      3707.04056232
  PAW double counting   =     67511.59829968   -71034.45739700
  entropy T*S    EENTRO =        -0.00000000
  eigenvalues    EBANDS =    -10127.43950071
  atomic energy  EATOM  =     73862.19814772
  Solvation  Ediel_sol  =         0.00000000
  ---------------------------------------------------
  free energy    TOTEN  =      -901.48822890 eV

  energy without entropy =     -901.48822890  energy(sigma->0) =     -901.48822890


--------------------------------------------------------------------------------------------------------




--------------------------------------- Iteration      1(  16)  ---------------------------------------


    POTLOK:  cpu time    0.0605: real time    0.0606
    SETDIJ:  cpu time    2.7567: real time    2.7585
    EDDIAG:  cpu time    3.2726: real time    3.2792
  RMM-DIIS:  cpu time   16.1439: real time   16.1982
    ORTHCH:  cpu time    0.5846: real time    0.5884
       DOS:  cpu time    0.0007: real time    0.0007
    CHARGE:  cpu time    1.8039: real time    1.8067
    MIXING:  cpu time    0.0008: real time    0.0008
    --------------------------------------------
      LOOP:  cpu time   24.6237: real time   24.6932

 eigenvalue-minimisations  : 17417
 total energy-change (2. order) :-0.1471402E+01  (-0.7337030E+00)
 number of electron     672.0000239 magnetization      48.0000007
 augmentation part      251.1854455 magnetization      33.8667313

 Broyden mixing:
  rms(total) = 0.14155E+01    rms(broyden)= 0.14150E+01
  rms(prec ) = 0.15060E+01
  weight for this iteration     100.00

 eigenvalues of (default mixing * dielectric matrix)
  average eigenvalue GAMMA=   0.9718
  2.0684  0.9015  0.3904  0.5267

 Free energy of the ion-electron system (eV)
  ---------------------------------------------------
  alpha Z        PSCENC =      2652.81237852
  Ewald energy   TEWEN  =    -41730.52436020
  -Hartree energ DENC   =    -25691.71558664
  -exchange      EXHF   =         0.00000000
  -V(xc)+E(xc)   XCENC  =      3708.15945868
  PAW double counting   =     70450.01259335   -74002.38945968
  entropy T*S    EENTRO =        -0.00000000
  eigenvalues    EBANDS =    -10151.51280256
  atomic energy  EATOM  =     73862.19814772
  Solvation  Ediel_sol  =         0.00000000
  ---------------------------------------------------
  free energy    TOTEN  =      -902.95963080 eV

  energy without entropy =     -902.95963080  energy(sigma->0) =     -902.95963080


--------------------------------------------------------------------------------------------------------




--------------------------------------- Iteration      1(  17)  ---------------------------------------


    POTLOK:  cpu time    0.0613: real time    0.0619
    SETDIJ:  cpu time    2.7580: real time    2.7600
    EDDIAG:  cpu time    3.2196: real time    3.2257
  RMM-DIIS:  cpu time   17.0838: real time   17.1377
    ORTHCH:  cpu time    0.5839: real time    0.5881
       DOS:  cpu time    0.0006: real time    0.0006
    CHARGE:  cpu time    1.8041: real time    1.8066
    MIXING:  cpu time    0.0033: real time    0.0033
    --------------------------------------------
      LOOP:  cpu time   25.5147: real time   25.5840

 eigenvalue-minimisations  : 18738
 total energy-change (2. order) : 0.1599340E+00  (-0.6924631E-01)
 number of electron     672.0000239 magnetization      48.0000009
 augmentation part      251.1035645 magnetization      33.8635210

 Broyden mixing:
  rms(total) = 0.76715E+00    rms(broyden)= 0.76702E+00
  rms(prec ) = 0.86435E+00
  weight for this iteration     100.00

 eigenvalues of (default mixing * dielectric matrix)
  average eigenvalue GAMMA=   0.9970
  2.2237  1.1268  0.3808  0.6901  0.5635

 Free energy of the ion-electron system (eV)
  ---------------------------------------------------
  alpha Z        PSCENC =      2652.81237852
  Ewald energy   TEWEN  =    -41730.52436020
  -Hartree energ DENC   =    -25683.20011145
  -exchange      EXHF   =         0.00000000
  -V(xc)+E(xc)   XCENC  =      3705.22759085
  PAW double counting   =     71282.46087750   -74842.93344438
  entropy T*S    EENTRO =        -0.00000000
  eigenvalues    EBANDS =    -10148.84077536
  atomic energy  EATOM  =     73862.19814772
  Solvation  Ediel_sol  =         0.00000000
  ---------------------------------------------------
  free energy    TOTEN  =      -902.79969678 eV

  energy without entropy =     -902.79969678  energy(sigma->0) =     -902.79969678


--------------------------------------------------------------------------------------------------------




--------------------------------------- Iteration      1(  18)  ---------------------------------------


    POTLOK:  cpu time    0.0615: real time    0.0629
    SETDIJ:  cpu time    2.7395: real time    2.7413
    EDDIAG:  cpu time    3.2231: real time    3.2301
  RMM-DIIS:  cpu time   16.4643: real time   16.5559
    ORTHCH:  cpu time    0.5818: real time    0.5860
       DOS:  cpu time    0.0006: real time    0.0006
    CHARGE:  cpu time    1.8064: real time    1.8091
    MIXING:  cpu time    0.0010: real time    0.0010
    --------------------------------------------
      LOOP:  cpu time   24.8781: real time   24.9868

 eigenvalue-minimisations  : 17485
 total energy-change (2. order) : 0.3920980E+00  (-0.7305737E-01)
 number of electron     672.0000236 magnetization      48.0000009
 augmentation part      250.6225110 magnetization      33.8328895

 Broyden mixing:
  rms(total) = 0.28811E+00    rms(broyden)= 0.28785E+00
  rms(prec ) = 0.30296E+00
  weight for this iteration     100.00

 eigenvalues of (default mixing * dielectric matrix)
  average eigenvalue GAMMA=   1.0185
  2.4588  1.3629  0.8477  0.5904  0.3825  0.4689

[...]
   4      -1.017    -0.758     1.774     0.115    -0.026    -0.034
   5      -0.874    -0.913     1.786    -0.170    -0.051    -0.016
   6      -1.160    -0.728     1.888    -0.103    -0.037    -0.054
   7      -1.141    -0.625     1.766     0.095    -0.075    -0.012
   8      -0.661    -0.849     1.510     0.168     0.067    -0.059
   9      -0.597    -0.967     1.565     0.233     0.058     0.021
  10      -0.578    -0.878     1.456    -0.152    -0.021    -0.035
  11      -0.943    -0.931     1.874     0.019     0.057     0.019
  12      -1.090    -0.623     1.712    -0.024    -0.050    -0.005
  13      -0.692    -0.961     1.652     0.199    -0.014    -0.051
  14      -0.612    -0.769     1.381    -0.098    -0.079    -0.047
  15      -0.995    -0.557     1.552     0.108     0.119     0.135
  16      -0.683    -0.936     1.619     0.139    -0.051     0.018
  17       1.527     1.332    -2.859    -0.078    -0.010     0.108
  18       1.590     1.350    -2.940    -0.083    -0.078    -0.042
  19       1.426     1.488    -2.914    -0.029    -0.029     0.072
  20       1.461     1.460    -2.921    -0.155     0.174    -0.057
  21       1.533     1.320    -2.853    -0.008    -0.093    -0.165
  22       1.512     1.380    -2.891     0.099     0.015     0.224
  23       1.350     1.626    -2.975     0.150     0.010    -0.058
  24       1.406     1.584    -2.990     0.099     0.002     0.037
  25      -1.848     1.539     0.309     0.307    -0.833    -0.577
  26      -0.205     1.230    -1.025    -0.030     0.015    -0.757
  27      -1.642    -0.486     2.128    -0.484     0.287    -0.326
  28       0.993    -1.093     0.100    -0.079    -0.335     0.609
  29      -0.835     0.636     0.199    -0.593    -0.725    -0.235
  30      -0.516     1.115    -0.599    -0.221    -1.242    -0.501
  31      -0.396    -0.392     0.788    -0.899     1.128    -0.038
  32       0.455    -2.333     1.877     1.063    -0.044     0.515
  33       0.112     0.069    -0.180     0.056     0.132     0.555
  34      -0.199    -0.116     0.314    -0.205     0.167    -0.132
  35      -2.532     1.461     1.071     2.053     2.704     0.444
  36      -0.647    -1.016     1.663     0.276    -0.819     1.588
  37      -0.282     0.306    -0.024    -1.189    -0.952    -0.091
  38      -1.003     0.355     0.648    -0.330    -0.245     0.079
  39       0.674    -0.453    -0.221    -0.408    -0.974     0.487
  40       1.460    -0.867    -0.593     0.280     0.512     1.002
  41      -4.779     4.516     0.263    -5.815     2.399    -4.224
  42      -3.557     3.552     0.004     5.191     1.647     3.943
  43       5.195    -5.901     0.705    -0.397    -4.547    -1.522
  44      -3.711     1.712     2.000    -2.319    -4.185     3.985
  45       3.426    -4.998     1.573     1.057     5.679    -2.075
  46       0.120     0.529    -0.649     6.044    -2.170    -1.451
  47      -2.222     2.002     0.220    -3.905     1.734    -4.429
  48       4.875    -5.363     0.488     0.528    -4.510    -0.225
  49      -2.404     3.250    -0.846     4.737     1.113     4.271
  50      -2.270     2.385    -0.115    -5.206    -0.482     3.556
  51      -0.688    -0.198     0.886     3.883    -3.649    -2.472
  52       5.793    -6.071     0.278    -3.011     5.342     2.782
  53      -3.277     3.957    -0.680    -5.961     2.197    -4.539
  54      -6.683     6.428     0.256     3.696     2.201     3.891
  55       5.406    -6.458     1.052     0.523    -4.733     2.024
  56      -3.847     2.020     1.826    -4.974    -2.655     4.362
  57       4.809    -4.854     0.046     1.166     4.378     0.417
  58      -2.213     2.407    -0.195     6.216    -3.061    -3.622
  59      -2.030     1.805     0.224    -6.926     2.217    -4.999
  60       5.422    -6.352     0.930    -0.704    -4.287    -0.192
  61      -3.275     3.420    -0.145     4.588    -0.296     5.302
  62      -3.373     2.991     0.381    -4.665    -1.380     4.997
  63      -3.119     0.245     2.873     3.643    -2.761    -4.828
  64       6.200    -6.937     0.737     1.671     4.407     0.561
  65      -2.594     1.201     1.393    -4.865     1.639    -3.314
  66      -2.743     1.302     1.441     4.168     1.926     3.465
  67       3.382    -6.023     2.641    -1.498    -4.262    -0.260
  68      -6.398     3.232     3.166    -2.100    -1.340     4.487
  69       2.412    -5.293     2.880     0.249     5.095    -1.066
  70      -3.984     5.188    -1.204     3.655    -3.112    -3.220
  71      -3.711     3.184     0.527    -4.090     1.960    -4.586
  72       5.650    -5.306    -0.344     0.622    -4.113     1.126
  73      -2.769     4.324    -1.556     5.344     2.111     1.773
  74      -3.451     3.096     0.355    -3.568    -0.170     5.555
  75      -4.018     1.918     2.100     4.206    -2.383    -4.313
  76       6.233    -6.248     0.015    -0.785     3.657     1.548
  77      -2.310     1.186     1.124    -6.111     1.699    -4.371
  78      -2.109     1.746     0.363     5.220     3.618     4.384
  79       4.405    -6.856     2.451     0.672    -5.035    -0.239
  80      -1.137     1.903    -0.766    -5.244    -1.922     3.981
  81       7.118    -7.066    -0.052    -2.043     5.409    -1.053
  82      -3.985     4.985    -0.999     7.202    -1.076    -3.917
  83      -2.729     4.731    -2.002    -5.305     2.723    -3.308
  84       4.966    -5.746     0.780     0.479    -5.558    -0.537
  85      -3.060     1.686     1.374     5.821     2.941     4.420
  86      -2.316     0.831     1.485    -5.683    -3.021     3.619
  87      -1.927     1.930    -0.003     4.666    -2.034    -3.773
  88       5.456    -6.187     0.731    -1.061     5.331    -1.023
 ---------------------------------------------------------------------


 Total hyperfine coupling parameters after diagonalization (MHz)
 (convention: |A_zz| > |A_xx| > |A_yy|)
 ----------------------------------------------------------------------
  ion      A_xx      A_yy      A_zz     asymmetry (A_yy - A_xx)/ A_zz 
 ----------------------------------------------------------------------
   1       2.610     2.245     4.381      -0.083
   2       0.278    -0.126     2.942      -0.137
   3       1.284     0.865     3.277      -0.128
   4       0.750     0.405     3.240      -0.107
   5       0.393     0.051     2.903      -0.118
   6       0.520     0.041     3.114      -0.154
   7       1.218     0.666     3.595      -0.153
   8       2.351     1.963     4.428      -0.087
   9       1.784     1.190     3.837      -0.155
  10       2.518     2.091     4.489      -0.095
  11       0.095     0.056     2.889      -0.013
  12       0.955     0.484     3.290      -0.143
  13       1.832     1.353     4.073      -0.118
  14       1.976     1.723     3.927      -0.064
  15       2.154     1.675     4.265      -0.112
  16       2.169     1.794     4.412      -0.085
  17      13.329     9.160    13.577      -0.307
  18      14.393    10.126    14.685      -0.291
  19      13.338     9.008    13.425      -0.323
  20      14.598    10.363    14.912      -0.284
  21      13.609     9.421    13.818      -0.303
  22      13.201     8.963    13.434      -0.315
  23      14.850    10.589    15.257      -0.279
  24      14.608    10.256    14.876      -0.293
  25      97.533    95.131    99.135      -0.024
  26      97.125    96.075    98.791      -0.011
  27      94.621    93.171    97.195      -0.015
  28      92.542    90.983    93.474      -0.017
  29     102.948   100.983   103.236      -0.019
  30      97.139    94.625    97.778      -0.026
  31      95.396    93.837    97.029      -0.016
  32      99.859    96.312   101.004      -0.035
  33      94.329    93.616    94.798      -0.008
  34      90.468    90.159    90.960      -0.003
  35      96.738    91.435    99.437      -0.053
  36      97.186    95.657   100.214      -0.015
  37      96.291    94.465    97.556      -0.019
  38      98.756    97.274    99.114      -0.015
  39      97.621    97.205    99.646      -0.004
  40      99.660    97.862   101.303      -0.018
  41       8.190     2.786    20.160      -0.268
  42       5.139     0.931    15.693      -0.268
  43       6.388     1.548    16.024      -0.302
  44       4.704     0.582    14.245      -0.289
  45       7.642     2.782    17.626      -0.276
  46       6.709     2.335    15.328      -0.285
  47       6.623     4.468    16.664      -0.129
  48       4.662     1.603    14.714      -0.208
  49       5.501     2.483    16.014      -0.188
  50       6.191     1.214    14.549      -0.342
  51       3.270     0.704    12.013      -0.214
  52      10.836     2.359    20.304      -0.418
  53       6.177     2.610    19.010      -0.188
  54       7.836     1.597    18.887      -0.330
  55       7.029     1.024    16.729      -0.359
  56       2.602    -2.110    13.250      -0.356
  57       4.331     1.869    14.396      -0.171
  58       4.944     0.914    16.615      -0.243
  59       7.508     2.364    19.934      -0.258
  60       6.698     1.875    16.337      -0.295
  61       5.646     0.068    15.429      -0.361
  62       3.843     0.194    14.927      -0.244
  63       4.211     1.563    15.313      -0.173
  64       8.358     2.909    18.900      -0.288
  65       5.121     0.144    13.053      -0.381
  66       2.811    -1.087    11.099      -0.351
  67       5.743     0.358    14.082      -0.382
  68       6.852     1.237    16.189      -0.347
  69      -2.841     0.559    10.521       0.323
  70       6.804     2.644    17.118      -0.243
  71       3.472     0.523    14.430      -0.204
  72       3.197    -0.656    12.883      -0.299
  73       3.634    -0.289    13.509      -0.290
  74       4.368     0.359    14.661      -0.273
  75       7.322     3.045    17.371      -0.246
  76       6.732     0.992    15.748      -0.364
  77       7.387     1.635    17.364      -0.331
  78       6.034     3.487    18.370      -0.139
  79       5.135    -0.071    15.411      -0.338
  80       6.507     3.849    17.181      -0.155
  81       7.606     3.191    20.887      -0.211
  82       6.557     0.652    19.147      -0.308
  83       2.376    -0.154    14.729      -0.172
  84       2.986     0.252    14.887      -0.184
  85       7.149     2.403    18.577      -0.255
  86       7.659     2.740    17.761      -0.277
  87       4.017     1.308    13.892      -0.195
  88       5.416     1.786    17.193      -0.211
 ---------------------------------------------------------------------



--------------------------------------------------------------------------------------------------------


 stress matrix after NEB project (eV)
    -43.79167      2.05213     -5.37403
      2.06024    -44.30485      1.49932
     -5.37739      1.48247    -58.76774
  FORCES: max atom, RMS     3.545975    1.191573
  FORCE total and by dimension   11.177946    3.194117
  Stress total and by dimension   86.052169   58.767739
     LOOP+:  cpu time  651.3697: real time  653.1357
    4ORBIT:  cpu time    0.0000: real time    0.0000
 


 total charge     
 
# of ion       s       p       d       tot
------------------------------------------
    1        0.052   5.994   0.000   6.046
    2        0.048   5.992   0.000   6.040
    3        0.048   5.990   0.000   6.038
    4        0.046   5.989   0.000   6.035
    5        0.049   5.993   0.000   6.042
    6        0.054   5.998   0.000   6.052
    7        0.050   5.993   0.000   6.043
    8        0.046   5.987   0.000   6.033
    9        0.053   5.995   0.000   6.048
   10        0.052   5.994   0.000   6.046
   11        0.052   5.997   0.000   6.049
   12        0.051   5.995   0.000   6.046
   13        0.051   5.993   0.000   6.044
   14        0.047   5.989   0.000   6.036
   15        0.051   5.994   0.000   6.045
   16        0.053   5.996   0.000   6.049
   17        0.145   6.120   0.078   6.343
   18        0.153   6.132   0.087   6.372
   19        0.151   6.134   0.088   6.373
   20        0.147   6.126   0.083   6.355
   21        0.144   6.119   0.077   6.339
   22        0.151   6.131   0.087   6.369
   23        0.145   6.122   0.080   6.347
   24        0.151   6.132   0.088   6.371
   25        0.388   6.475   4.873  11.736
   26        0.372   6.446   4.834  11.652
   27        0.378   6.461   4.830  11.669
   28        0.385   6.465   4.861  11.710
   29        0.360   6.421   4.799  11.580
   30        0.394   6.490   4.880  11.765
   31        0.372   6.448   4.823  11.643
   32        0.373   6.452   4.821  11.646
   33        0.377   6.461   4.831  11.670
   34        0.378   6.460   4.826  11.665
   35        0.388   6.476   4.866  11.730
   36        0.372   6.447   4.824  11.642
   37        0.369   6.439   4.812  11.620
   38        0.378   6.461   4.831  11.670
   39        0.383   6.472   4.858  11.714
   40        0.373   6.451   4.835  11.659
   41        1.606   3.542   0.000   5.148
   42        1.599   3.503   0.000   5.103
   43        1.600   3.512   0.000   5.112
   44        1.597   3.477   0.000   5.073
   45        1.601   3.531   0.000   5.132
   46        1.596   3.492   0.000   5.089
   47        1.598   3.501   0.000   5.098
   48        1.598   3.486   0.000   5.084
   49        1.597   3.474   0.000   5.071
   50        1.597   3.507   0.000   5.104
   51        1.597   3.522   0.000   5.118
   52        1.601   3.511   0.000   5.112
   53        1.601   3.504   0.000   5.105
   54        1.605   3.530   0.000   5.135
   55        1.599   3.497   0.000   5.096
   56        1.598   3.495   0.000   5.093
   57        1.599   3.540   0.000   5.139
   58        1.598   3.488   0.000   5.086
   59        1.603   3.499   0.000   5.102
   60        1.597   3.513   0.000   5.111
   61        1.600   3.523   0.000   5.123
   62        1.598   3.498   0.000   5.096
   63        1.602   3.523   0.000   5.125
   64        1.600   3.505   0.000   5.105
   65        1.596   3.521   0.000   5.117
   66        1.592   3.487   0.000   5.080
   67        1.596   3.519   0.000   5.115
   68        1.598   3.531   0.000   5.129
   69        1.597   3.494   0.000   5.091
   70        1.601   3.488   0.000   5.089
   71        1.599   3.493   0.000   5.092
   72        1.598   3.495   0.000   5.093
   73        1.600   3.491   0.000   5.091
   74        1.598   3.513   0.000   5.111
   75        1.597   3.507   0.000   5.104
   76        1.599   3.517   0.000   5.116
   77        1.599   3.521   0.000   5.121
   78        1.601   3.500   0.000   5.101
   79        1.597   3.505   0.000   5.102
   80        1.602   3.514   0.000   5.116
   81        1.600   3.493   0.000   5.094
   82        1.604   3.480   0.000   5.084
   83        1.599   3.481   0.000   5.080
   84        1.597   3.477   0.000   5.075
   85        1.604   3.498   0.000   5.102
   86        1.599   3.518   0.000   5.117
   87        1.599   3.520   0.000   5.119
   88        1.600   3.528   0.000   5.128
--------------------------------------------------
tot         84.786 416.497  78.070 579.354
 


 magnetization (x)
 
# of ion       s       p       d       tot
------------------------------------------
    1        0.002   0.000   0.000   0.003
    2        0.001   0.000   0.000   0.001
    3        0.001  -0.000   0.000   0.001
    4        0.001   0.000   0.000   0.002
    5        0.001   0.000   0.000   0.001
    6        0.001   0.000   0.000   0.001
    7        0.001   0.000   0.000   0.002
    8        0.002   0.000   0.000   0.002
    9        0.002  -0.000   0.000   0.001
   10        0.002   0.000   0.000   0.002
   11        0.001   0.000   0.000   0.001
   12        0.001   0.000   0.000   0.001
   13        0.002  -0.000   0.000   0.002
   14        0.002   0.000   0.000   0.002
   15        0.002   0.000   0.000   0.002
   16        0.002  -0.000   0.000   0.002
   17        0.007   0.002   0.001   0.010
   18        0.007   0.002   0.001   0.011
   19        0.007   0.001   0.001   0.010
   20        0.007   0.002   0.001   0.011
   21        0.007   0.002   0.001   0.010
   22        0.007   0.002   0.001   0.010
   23        0.008   0.002   0.001   0.011
   24        0.007   0.003   0.001   0.012
   25        0.015   0.031   2.723   2.769
   26        0.016   0.029   2.764   2.809
   27        0.015   0.030   2.750   2.795
   28        0.014   0.029   2.720   2.762
   29        0.017   0.031   2.792   2.840
   30        0.015   0.031   2.705   2.751
   31        0.015   0.030   2.757   2.801
   32        0.016   0.031   2.765   2.813
   33        0.015   0.030   2.749   2.793
   34        0.014   0.030   2.744   2.787
   35        0.015   0.030   2.713   2.758
   36        0.016   0.030   2.758   2.803
   37        0.015   0.029   2.770   2.815
   38        0.016   0.031   2.756   2.803
   39        0.016   0.031   2.732   2.779
   40        0.017   0.031   2.761   2.809
   41        0.003   0.059   0.000   0.061
   42        0.002   0.031   0.000   0.033
   43        0.002   0.042   0.000   0.044
   44        0.002   0.024   0.000   0.025
   45        0.002   0.050   0.000   0.053
   46        0.002   0.026   0.000   0.028
   47        0.002   0.040   0.000   0.043
   48        0.002   0.019   0.000   0.021
   49        0.002   0.027   0.000   0.030
   50        0.002   0.033   0.000   0.035
   51        0.001   0.022   0.000   0.023
   52        0.003   0.067   0.000   0.069
   53        0.002   0.046   0.000   0.049
   54        0.002   0.053   0.000   0.055
   55        0.002   0.034   0.000   0.036
   56        0.001   0.013   0.000   0.014
   57        0.002   0.037   0.000   0.038
   58        0.002   0.032   0.000   0.034
   59        0.002   0.054   0.000   0.056
   60        0.002   0.043   0.000   0.045
   61        0.002   0.035   0.000   0.037
   62        0.002   0.022   0.000   0.024
   63        0.002   0.030   0.000   0.031
   64        0.003   0.047   0.000   0.050
   65        0.002   0.025   0.000   0.027
   66        0.001   0.009   0.000   0.010
   67        0.002   0.037   0.000   0.038
   68        0.002   0.046   0.000   0.048
   69        0.001  -0.001   0.000  -0.000
   70        0.002   0.034   0.000   0.037
   71        0.002   0.025   0.000   0.026
   72        0.002   0.011   0.000   0.012
   73        0.002   0.017   0.000   0.018
   74        0.002   0.026   0.000   0.028
   75        0.002   0.053   0.000   0.055
   76        0.002   0.039   0.000   0.041
   77        0.002   0.053   0.000   0.055
   78        0.002   0.045   0.000   0.048
   79        0.002   0.032   0.000   0.034
   80        0.002   0.044   0.000   0.046
   81        0.003   0.058   0.000   0.061
   82        0.002   0.041   0.000   0.043
   83        0.002   0.015   0.000   0.017
   84        0.002   0.014   0.000   0.016
   85        0.002   0.049   0.000   0.051
   86        0.002   0.050   0.000   0.052
   87        0.002   0.024   0.000   0.025
   88        0.002   0.042   0.000   0.044
--------------------------------------------------
tot          0.423   2.175  43.967  46.565
 

 total amount of memory used by VASP MPI-rank0   104105. kBytes
=======================================================================

   base      :      30000. kBytes
   nonlr-proj:      13663. kBytes
   fftplans  :       1316. kBytes
   grid      :      22786. kBytes
   one-center:       2737. kBytes
   wavefun   :      33603. kBytes
 
  
  
 General timing and accounting informations for this job:
 ========================================================
  
                  Total CPU time used (sec):      665.069
                            User time (sec):      660.694
                          System time (sec):        4.376
                         Elapsed time (sec):      668.121
  
                   Maximum memory used (kb):      197220.
                   Average memory used (kb):           0.
  
                          Minor page faults:       311357
                          Major page faults:            0
                 Voluntary context switches:         4078
