 vasp.5.4.4.18Apr17-6-g9f103f2a35 (build Dec 02 2020 12:53:39) complex          
  
 executed on             LinuxIFC date 2021.07.31  01:47:30
 running on   64 total cores
 distrk:  each k-point on   64 cores,    1 groups
 distr:  one band on NCORES_PER_BAND=   1 cores,   64 groups


--------------------------------------------------------------------------------------------------------


 INCAR:
 POTCAR:    PAW_PBE Na_pv 19Sep2006               
 POTCAR:    PAW_PBE Mg_pv 13Apr2007               
 POTCAR:    PAW_PBE Mn_pv 02Aug2007               
 POTCAR:    PAW_PBE O 08Apr2002                   

 ----------------------------------------------------------------------------- 
|                                                                             |
|           W    W    AA    RRRRR   N    N  II  N    N   GGGG   !!!           |
|           W    W   A  A   R    R  NN   N  II  NN   N  G    G  !!!           |
|           W    W  A    A  R    R  N N  N  II  N N  N  G       !!!           |
|           W WW W  AAAAAA  RRRRR   N  N N  II  N  N N  G  GGG   !            |
|           WW  WW  A    A  R   R   N   NN  II  N   NN  G    G                |
|           W    W  A    A  R    R  N    N  II  N    N   GGGG   !!!           |
|                                                                             |
|      For optimal performance we recommend to set                            |
|        NCORE= 4 - approx SQRT( number of cores)                             |
|      NCORE specifies how many cores store one orbital (NPAR=cpu/NCORE).     |
|      This setting can  greatly improve the performance of VASP for DFT.     |
|      The default,   NCORE=1            might be grossly inefficient         |
|      on modern multi-core architectures or massively parallel machines.     |
|      Do your own testing !!!!                                               |
|      Unfortunately you need to use the default for GW and RPA calculations. |
|      (for HF NCORE is supported but not extensively tested yet)             |
|                                                                             |
 ----------------------------------------------------------------------------- 

 POTCAR:    PAW_PBE Na_pv 19Sep2006               
   VRHFIN =Na: p6s1                                                             
   LEXCH  = PE                                                                  
   EATOM  =   766.0439 eV,   56.3026 Ry                                         
                                                                                
   TITEL  = PAW_PBE Na_pv 19Sep2006                                             
   LULTRA =        F    use ultrasoft PP ?                                      
   IUNSCR =        1    unscreen: 0-lin 1-nonlin 2-no                           
   RPACOR =    1.800    partial core radius                                     
   POMASS =   22.990; ZVAL   =    7.000    mass and valenz                      
   RCORE  =    2.200    outmost cutoff radius                                   
   RWIGS  =    2.200; RWIGS  =    1.164    wigner-seitz radius (au A)           
   ENMAX  =  259.561; ENMIN  =  194.671 eV                                      
   ICORE  =        2    local potential                                         
   LCOR   =        T    correct aug charges                                     
   LPAW   =        T    paw PP                                                  
   EAUG   =  368.056                                                            
   DEXC   =    0.000                                                            
   RMAX   =    2.245    core radius for proj-oper                               
   RAUG   =    1.300    factor for augmentation sphere                          
   RDEP   =    2.259    radius for radial grids                                 
   RDEPT  =    1.738    core radius for aug-charge                              
                                                                                
   Atomic configuration                                                         
    5 entries                                                                   
     n  l   j            E        occ.                                          
     1  0  0.50     -1033.6933   2.0000                                         
     2  0  0.50       -56.7526   2.0000                                         
     2  1  1.50       -28.6721   6.0000                                         
     3  0  0.50        -2.7440   1.0000                                         
     3  2  1.50        -1.3606   0.0000                                         
   Description                                                                  
     l       E           TYP  RCUT    TYP  RCUT                                 
     1    -28.6720912     23  2.000                                             
     1      6.8029130     23  2.000                                             
     0     -2.7439560     23  2.200                                             
     0     34.0145650     23  2.200                                             
     2     -1.3605826     23  2.200                                             
  local pseudopotential read in
  partial core-charges read in
  partial kinetic energy density read in
  atomic valenz-charges read in
  non local Contribution for L=           1  read in
    real space projection operators read in
  non local Contribution for L=           1  read in
    real space projection operators read in
  non local Contribution for L=           0  read in
    real space projection operators read in
  non local Contribution for L=           0  read in
    real space projection operators read in
    PAW grid and wavefunctions read in
 
   number of l-projection  operators is LMAX  =           4
   number of lm-projection operators is LMMAX =           8
 
 POTCAR:    PAW_PBE Mg_pv 13Apr2007               
   VRHFIN =Mg: p6s2                                                             
   LEXCH  = PE                                                                  
   EATOM  =  1056.7344 eV,   77.6678 Ry                                         
                                                                                
   TITEL  = PAW_PBE Mg_pv 13Apr2007                                             
   LULTRA =        F    use ultrasoft PP ?                                      
   IUNSCR =        1    unscreen: 0-lin 1-nonlin 2-no                           
   RPACOR =    1.500    partial core radius                                     
   POMASS =   24.305; ZVAL   =    8.000    mass and valenz                      
   RCORE  =    2.000    outmost cutoff radius                                   
   RWIGS  =    2.000; RWIGS  =    1.058    wigner-seitz radius (au A)           
   ENMAX  =  403.929; ENMIN  =  302.947 eV                                      
   RCLOC  =    1.506    cutoff for local pot                                    
   LCOR   =        T    correct aug charges                                     
   LPAW   =        T    paw PP                                                  
   EAUG   =  758.780                                                            
   DEXC   =    0.000                                                            
   RMAX   =    2.045    core radius for proj-oper                               
   RAUG   =    1.300    factor for augmentation sphere                          
   RDEP   =    2.025    radius for radial grids                                 
   RDEPT  =    1.557    core radius for aug-charge                              
                                                                                
   Atomic configuration                                                         
    5 entries                                                                   
     n  l   j            E        occ.                                          
     1  0  0.50     -1259.6230   2.0000                                         
     2  0  0.50       -79.8442   2.0000                                         
     2  1  1.50       -46.6121   6.0000                                         
     3  0  0.50        -4.7055   2.0000                                         
     3  2  1.50        -1.3606   0.0000                                         
   Description                                                                  
     l       E           TYP  RCUT    TYP  RCUT                                 
     1    -46.6121073     23  1.600                                             
     1      2.7211652     23  1.600                                             
     0     -4.7054661     23  2.000                                             
     0     61.2262170     23  2.000                                             
     2     -1.3605826     23  2.000                                             
  local pseudopotential read in
  partial core-charges read in
  partial kinetic energy density read in
  atomic valenz-charges read in
  non local Contribution for L=           1  read in
    real space projection operators read in
  non local Contribution for L=           1  read in
    real space projection operators read in
  non local Contribution for L=           0  read in
    real space projection operators read in
  non local Contribution for L=           0  read in
    real space projection operators read in
  non local Contribution for L=           2  read in
    real space projection operators read in
    PAW grid and wavefunctions read in
 
   number of l-projection  operators is LMAX  =           5
   number of lm-projection operators is LMMAX =          13
 
 POTCAR:    PAW_PBE Mn_pv 02Aug2007               
   VRHFIN =Mn: 3p4s3d                                                           
   LEXCH  = PE                                                                  
   EATOM  =  2025.2664 eV,  148.8529 Ry                                         
                                                                                
   TITEL  = PAW_PBE Mn_pv 02Aug2007                                             
   LULTRA =        F    use ultrasoft PP ?                                      
   IUNSCR =        1    unscreen: 0-lin 1-nonlin 2-no                           
   RPACOR =    2.080    partial core radius                                     
   POMASS =   54.938; ZVAL   =   13.000    mass and valenz                      
   RCORE  =    2.300    outmost cutoff radius                                   
   RWIGS  =    2.500; RWIGS  =    1.323    wigner-seitz radius (au A)           
   ENMAX  =  269.864; ENMIN  =  202.398 eV                                      
   ICORE  =        3    local potential                                         
   LCOR   =        T    correct aug charges                                     
   LPAW   =        T    paw PP                                                  
   EAUG   =  569.085                                                            
   DEXC   =    0.000                                                            
   RMAX   =    2.343    core radius for proj-oper                               
   RAUG   =    1.300    factor for augmentation sphere                          
   RDEP   =    2.338    radius for radial grids                                 
   RDEPT  =    1.798    core radius for aug-charge                              
                                                                                
   Atomic configuration                                                         
    8 entries                                                                   
     n  l   j            E        occ.                                          
     1  0  0.50     -6424.8287   2.0000                                         
     2  0  0.50      -739.1154   2.0000                                         
     2  1  1.50      -625.3949   6.0000                                         
     3  0  0.50       -81.6100   2.0000                                         
     3  1  1.50       -50.4667   6.0000                                         
     3  2  2.50        -3.3745   6.0000                                         
     4  0  0.50        -4.1331   1.0000                                         
     4  3  2.50        -1.3606   0.0000                                         
   Description                                                                  
     l       E           TYP  RCUT    TYP  RCUT                                 
     1    -50.4666628     23  2.000                                             
     1     -1.3605826     23  2.000                                             
     2     -3.3744729     23  2.300                                             
     2     -4.7350555     23  2.300                                             
     0     -4.1331431     23  2.300                                             
     0      7.6656591     23  2.300                                             
     3      9.5240782     23  2.300                                             
  local pseudopotential read in
  partial core-charges read in
  partial kinetic energy density read in
  atomic valenz-charges read in
  non local Contribution for L=           1  read in
    real space projection operators read in
  non local Contribution for L=           1  read in
    real space projection operators read in
  non local Contribution for L=           2  read in
    real space projection operators read in
  non local Contribution for L=           2  read in
    real space projection operators read in
  non local Contribution for L=           0  read in
    real space projection operators read in
  non local Contribution for L=           0  read in
    real space projection operators read in
    PAW grid and wavefunctions read in
 
   number of l-projection  operators is LMAX  =           6
   number of lm-projection operators is LMMAX =          18
 
 POTCAR:    PAW_PBE O 08Apr2002                   
   VRHFIN =O: s2p4                                                              
   LEXCH  = PE                                                                  
   EATOM  =   432.3788 eV,   31.7789 Ry                                         
                                                                                
   TITEL  = PAW_PBE O 08Apr2002                                                 
   LULTRA =        F    use ultrasoft PP ?                                      
   IUNSCR =        1    unscreen: 0-lin 1-nonlin 2-no                           
   RPACOR =    1.200    partial core radius                                     
   POMASS =   16.000; ZVAL   =    6.000    mass and valenz                      
   RCORE  =    1.520    outmost cutoff radius                                   
   RWIGS  =    1.550; RWIGS  =    0.820    wigner-seitz radius (au A)           
   ENMAX  =  400.000; ENMIN  =  300.000 eV                                      
   ICORE  =        2    local potential                                         
   LCOR   =        T    correct aug charges                                     
   LPAW   =        T    paw PP                                                  
   EAUG   =  605.392                                                            
   DEXC   =    0.000                                                            
   RMAX   =    1.553    core radius for proj-oper                               
   RAUG   =    1.300    factor for augmentation sphere                          
   RDEP   =    1.550    radius for radial grids                                 
   RDEPT  =    1.329    core radius for aug-charge                              
                                                                                
   Atomic configuration                                                         
    4 entries                                                                   
     n  l   j            E        occ.                                          
     1  0  0.50      -514.6923   2.0000                                         
     2  0  0.50       -23.9615   2.0000                                         
     2  1  0.50        -9.0305   4.0000                                         
     3  2  1.50        -9.5241   0.0000                                         
   Description                                                                  
     l       E           TYP  RCUT    TYP  RCUT                                 
     0    -23.9615318     23  1.200                                             
     0     -9.5240782     23  1.200                                             
     1     -9.0304911     23  1.520                                             
     1      8.1634956     23  1.520                                             
     2     -9.5240782      7  1.500                                             
  local pseudopotential read in
  partial core-charges read in
  partial kinetic energy density read in
  kinetic energy density of atom read in
  atomic valenz-charges read in
  non local Contribution for L=           0  read in
    real space projection operators read in
  non local Contribution for L=           0  read in
    real space projection operators read in
  non local Contribution for L=           1  read in
    real space projection operators read in
  non local Contribution for L=           1  read in
    real space projection operators read in
    PAW grid and wavefunctions read in
 
   number of l-projection  operators is LMAX  =           4
   number of lm-projection operators is LMMAX =           8
 
 Optimization of the real space projectors (new method)

 maximal supplied QI-value         = 17.01
 optimisation between [QCUT,QGAM] = [ 10.20, 20.41] = [ 29.16,116.64] Ry 
 Optimized for a Real-space Cutoff    1.30 Angstroem

   l    n(q)    QCUT    max X(q) W(low)/X(q) W(high)/X(q)  e(spline) 
   1      7    10.205     4.940    0.23E-03    0.84E-03    0.11E-06
   1      7    10.205     6.253    0.40E-03    0.13E-02    0.18E-06
   0      8    10.205    37.438    0.23E-03    0.37E-03    0.42E-07
   0      8    10.205     9.606    0.16E-03    0.26E-03    0.31E-07
 Optimization of the real space projectors (new method)

 maximal supplied QI-value         = 18.90
 optimisation between [QCUT,QGAM] = [ 10.20, 20.41] = [ 29.16,116.64] Ry 
 Optimized for a Real-space Cutoff    1.26 Angstroem

   l    n(q)    QCUT    max X(q) W(low)/X(q) W(high)/X(q)  e(spline) 
   1      7    10.205     2.974    0.63E-04    0.14E-03    0.13E-06
   1      7    10.205     4.279    0.11E-03    0.45E-03    0.24E-06
   0      8    10.205    16.381    0.44E-03    0.15E-03    0.55E-07
   0      8    10.205     5.611    0.31E-03    0.11E-03    0.40E-07
   2      7    10.205     4.652    0.50E-03    0.47E-03    0.57E-07
 Optimization of the real space projectors (new method)

 maximal supplied QI-value         = 16.25
 optimisation between [QCUT,QGAM] = [ 10.24, 20.48] = [ 29.35,117.42] Ry 
 Optimized for a Real-space Cutoff    1.34 Angstroem

   l    n(q)    QCUT    max X(q) W(low)/X(q) W(high)/X(q)  e(spline) 
   1      8    10.239     3.658    0.23E-03    0.30E-03    0.98E-07
   1      8    10.239     5.612    0.32E-03    0.65E-03    0.21E-06
   2      7    10.239    55.373    0.42E-03    0.45E-03    0.65E-07
   2      7    10.239    50.863    0.43E-03    0.48E-03    0.67E-07
   0      8    10.239    79.536    0.11E-03    0.21E-03    0.56E-07
   0      8    10.239    38.668    0.96E-04    0.19E-03    0.52E-07
 Optimization of the real space projectors (new method)

 maximal supplied QI-value         = 24.76
 optimisation between [QCUT,QGAM] = [ 10.15, 20.30] = [ 28.85,115.39] Ry 
 Optimized for a Real-space Cutoff    1.38 Angstroem

   l    n(q)    QCUT    max X(q) W(low)/X(q) W(high)/X(q)  e(spline) 
   0      8    10.150    20.381    0.22E-03    0.32E-03    0.29E-06
   0      8    10.150    15.268    0.23E-03    0.35E-03    0.30E-06
   1      8    10.150     5.964    0.46E-03    0.53E-03    0.21E-06
   1      8    10.150     5.382    0.38E-03    0.45E-03    0.19E-06
  PAW_PBE Na_pv 19Sep2006               :
 energy of atom  1       EATOM= -766.0439
 kinetic energy error for atom=    0.0103 (will be added to EATOM!!)
  PAW_PBE Mg_pv 13Apr2007               :
 energy of atom  2       EATOM=-1056.7344
 kinetic energy error for atom=    0.0820 (will be added to EATOM!!)
  PAW_PBE Mn_pv 02Aug2007               :
 energy of atom  3       EATOM=-2025.2664
 kinetic energy error for atom=    0.0284 (will be added to EATOM!!)
  PAW_PBE O 08Apr2002                   :
 energy of atom  4       EATOM= -432.3788
 kinetic energy error for atom=    0.1156 (will be added to EATOM!!)
 
 
 POSCAR: Na Mg Mn  O                             
  positions in cartesian coordinates
  No initial velocities read in

 METAGGA = SCAN     LMAXTAU =  6    LMIXTAU =  F

 exchange correlation table for  LEXCH =        8
   RHO(1)=    0.500       N(1)  =     2000
   RHO(2)=  100.500       N(2)  =     4000

 VTST: version 3.2, (02/03/18)

 CHAIN: initializing optimizer
 
 OPT: Using VASP Dynamics algorithm
 CHAIN: Read ICHAIN            0
 
 POSCAR: Na Mg Mn  O                             
  positions in cartesian coordinates
  No initial velocities read in
 


--------------------------------------------------------------------------------------------------------


 ion  position               nearest neighbor table
   1  0.469  0.465  0.245-  74 2.20  65 2.24  43 2.29  52 2.33  33 2.86  35 2.91
   2  0.423  0.292  0.743-  45 2.28
   3  0.949  0.997  0.755-  61 2.27  58 2.32  25 2.87  27 2.94
   4  0.443  0.793  0.743-  81 2.29  82 2.30
   5  0.971  0.664  0.239-  67 2.20  77 2.30
   6  0.472  0.979  0.253-  53 2.21  62 2.25  79 2.33  88 2.35  31 2.80  29 2.91
   7  0.980  0.509  0.750-  83 2.17  80 2.29  37 2.88  39 2.96
   8  0.672  0.149  0.752-  60 2.14  56 2.30  59 2.32  57 2.34
   9  0.727  0.295  0.256-  62 2.27  75 2.35  53 2.36
  10  0.207  0.059  0.259-  51 2.17  50 2.24  42 2.28  41 2.30  28 2.83
  11  0.217  0.568  0.240-  78 2.19  77 2.25  87 2.35  38 2.79
  12  0.234  0.456  0.758-  83 2.22  48 2.34
  13  0.728  0.642  0.750-  69 2.25  71 2.31  72 2.34  68 2.38  34 2.90  36 2.90
  14  0.237  0.936  0.745-  81 2.26  84 2.32  44 2.34
  15  0.719  0.801  0.261-  63 2.23  74 2.28
  16  0.962  0.154  0.245-  54 2.32  41 2.35  50 2.37  55 2.38
  17  0.604  0.302  0.998-  71 2.04  66 2.05  60 2.07  49 2.08  43 2.10  53 2.13  37 2.83
  18  0.601  0.301  0.502-  62 2.03  57 2.04  46 2.05  68 2.06  52 2.11  75 2.15  39 2.82
  19  0.097  0.302  0.000-  78 1.98  61 2.00  48 2.03  55 2.04  83 2.06  41 2.18  37 2.77  30 2.83

  20  0.101  0.302  0.492-  87 1.92  50 2.01  80 2.04  58 2.07  45 2.09  64 2.13  35 2.82  40 2.85

  21  0.100  0.801  0.001-  47 1.99  84 2.03  73 2.06  42 2.07  77 2.07  67 2.20  25 2.80  38 2.85

  22  0.092  0.783  0.505-  44 1.99  86 1.99  70 2.02  81 2.11  51 2.13  76 2.15  40 2.77  39 2.79

  23  0.604  0.798  0.010-  65 1.94  72 2.07  85 2.07  59 2.11  79 2.13  54 2.15  34 2.84  33 2.84

  24  0.600  0.801  0.496-  69 2.02  88 2.05  74 2.06  56 2.10  63 2.10  82 2.18  31 2.84  36 2.85

  25  0.939  0.963  0.010-  47 1.88  72 1.90  41 1.90  54 1.93  61 1.94  67 1.96  21 2.80  34 2.83
                             3 2.87  30 2.89  26 2.90
  26  0.273  0.132  0.999-  42 1.87  43 1.89  41 1.94  47 1.94  49 1.96  48 2.10  29 2.84  25 2.90
                            33 2.95
  27  0.938  0.968  0.494-  58 1.88  76 1.88  50 1.89  63 1.90  44 1.93  69 2.04  28 2.88  32 2.91
                            36 2.93   3 2.94
  28  0.269  0.132  0.504-  46 1.85  45 1.89  51 1.92  52 1.93  50 2.01  44 2.01  10 2.83  27 2.88
                            35 2.89  31 2.91
  29  0.441  0.973  0.994-  49 1.88  59 1.91  53 1.93  84 1.97  79 1.99  42 2.00  26 2.84  30 2.86
                            38 2.87   6 2.91
  30  0.770  0.127  0.006-  54 1.86  61 1.88  59 1.90  55 1.94  53 1.95  60 2.01  19 2.83  37 2.84
                            29 2.86  25 2.89
  31  0.430  0.957  0.500-  88 1.86  81 1.92  51 1.92  56 1.95  46 1.98  62 2.01   6 2.80  24 2.84
                            40 2.85  28 2.91  32 2.93
  32  0.768  0.133  0.498-  64 1.87  62 1.91  57 1.93  56 1.94  63 1.94  58 1.95  39 2.86  27 2.91
                            31 2.93
  33  0.433  0.472  0.993-  48 1.88  43 1.90  85 1.91  78 1.91  71 1.93  65 1.98  23 2.84   1 2.86
                            38 2.90  34 2.93  26 2.95
  34  0.770  0.636  0.006-  73 1.87  72 1.88  67 1.90  66 1.91  65 1.95  71 2.04  25 2.83  23 2.84
                            13 2.90  33 2.93  37 2.97
  35  0.426  0.465  0.501-  68 1.88  87 1.88  45 1.88  74 1.91  52 1.92  82 1.93  20 2.82  40 2.89
                            28 2.89  36 2.89   1 2.91
  36  0.759  0.631  0.493-  76 1.83  69 1.87  75 1.90  70 1.90  68 1.99  74 2.02  24 2.85  35 2.89
                            13 2.90  39 2.91  27 2.93
  37  0.930  0.455  0.002-  55 1.84  83 1.90  66 1.91  60 1.91  77 1.95  73 1.95  19 2.77  17 2.83
                            30 2.84   7 2.88  38 2.95  34 2.97
  38  0.269  0.642  0.998-  85 1.89  77 1.89  78 1.92  79 1.92  84 1.95  83 2.04  11 2.79  21 2.85
                            29 2.87  33 2.90  37 2.95
  39  0.925  0.463  0.490-  57 1.84  75 1.85  70 1.89  86 1.90  64 1.95  80 2.02  22 2.79  18 2.82
                            32 2.86  40 2.90  36 2.91   7 2.96
  40  0.258  0.630  0.512-  80 1.81  82 1.88  81 1.92  87 1.97  86 2.00  88 2.05  22 2.77  31 2.85
                            20 2.85  35 2.89  39 2.90
  41  0.107  0.119  0.097-  25 1.90  26 1.94  19 2.18  10 2.30  16 2.35
  42  0.279  0.981  0.092-  26 1.87  29 2.00  21 2.07  10 2.28
  43  0.420  0.306  0.084-  26 1.89  33 1.90  17 2.10   1 2.29
  44  0.092  0.957  0.590-  27 1.93  22 1.99  28 2.01  14 2.34
  45  0.277  0.298  0.590-  35 1.88  28 1.89  20 2.09   2 2.28
  46  0.421  0.122  0.591-  28 1.85  31 1.98  18 2.05
  47  0.096  0.972  0.913-  25 1.88  26 1.94  21 1.99
  48  0.273  0.313  0.904-  33 1.88  19 2.03  26 2.10  12 2.34
  49  0.431  0.123  0.900-  29 1.88  26 1.96  17 2.08
  50  0.100  0.126  0.405-  27 1.89  20 2.01  28 2.01  10 2.24  16 2.37
  51  0.274  0.973  0.412-  28 1.92  31 1.92  22 2.13  10 2.17
  52  0.419  0.301  0.408-  35 1.92  28 1.93  18 2.11   1 2.33
  53  0.601  0.120  0.098-  29 1.93  30 1.95  17 2.13   6 2.21   9 2.36
  54  0.791  0.988  0.103-  30 1.86  25 1.93  23 2.15  16 2.32
  55  0.924  0.302  0.096-  37 1.84  30 1.94  19 2.04  16 2.38
  56  0.603  0.980  0.595-  32 1.94  31 1.95  24 2.10   8 2.30
  57  0.785  0.307  0.586-  39 1.84  32 1.93  18 2.04   8 2.34
  58  0.928  0.120  0.586-  27 1.88  32 1.95  20 2.07   3 2.32
  59  0.609  0.978  0.910-  30 1.90  29 1.91  23 2.11   8 2.32
  60  0.778  0.295  0.903-  37 1.91  30 2.01  17 2.07   8 2.14
  61  0.926  0.120  0.918-  30 1.88  25 1.94  19 2.00   3 2.27
  62  0.604  0.129  0.408-  32 1.91  31 2.01  18 2.03   6 2.25   9 2.27
  63  0.784  0.980  0.403-  27 1.90  32 1.94  24 2.10  15 2.23
  64  0.910  0.290  0.399-  32 1.87  39 1.95  20 2.13
  65  0.599  0.627  0.096-  23 1.94  34 1.95  33 1.98   1 2.24
  66  0.781  0.478  0.091-  37 1.91  34 1.91  17 2.05
  67  0.912  0.791  0.110-  34 1.90  25 1.96  21 2.20   5 2.20
  68  0.587  0.473  0.591-  35 1.88  36 1.99  18 2.06  13 2.38
  69  0.768  0.789  0.588-  36 1.87  24 2.02  27 2.04  13 2.25
  70  0.906  0.609  0.584-  39 1.89  36 1.90  22 2.02
  71  0.597  0.473  0.903-  33 1.93  34 2.04  17 2.04  13 2.31
  72  0.784  0.802  0.916-  34 1.88  25 1.90  23 2.07  13 2.34
  73  0.918  0.618  0.917-  34 1.87  37 1.95  21 2.06
  74  0.580  0.616  0.400-  35 1.91  36 2.02  24 2.06   1 2.20  15 2.28
  75  0.781  0.485  0.401-  39 1.85  36 1.90  18 2.15   9 2.35
  76  0.911  0.794  0.411-  36 1.83  27 1.88  22 2.15
  77  0.101  0.621  0.089-  38 1.89  37 1.95  21 2.07  11 2.25   5 2.30
  78  0.272  0.477  0.082-  33 1.91  38 1.92  19 1.98  11 2.19
  79  0.419  0.803  0.099-  38 1.92  29 1.99  23 2.13   6 2.33
  80  0.098  0.472  0.589-  40 1.81  39 2.02  20 2.04   7 2.29
  81  0.280  0.801  0.603-  40 1.92  31 1.92  22 2.11  14 2.26   4 2.29
  82  0.412  0.618  0.598-  40 1.88  35 1.93  24 2.18   4 2.30
  83  0.092  0.473  0.903-  37 1.90  38 2.04  19 2.06   7 2.17  12 2.22
  84  0.272  0.806  0.902-  38 1.95  29 1.97  21 2.03  14 2.32
  85  0.424  0.634  0.909-  38 1.89  33 1.91  23 2.07
  86  0.095  0.620  0.404-  39 1.90  22 1.99  40 2.00
  87  0.270  0.474  0.414-  35 1.88  20 1.92  40 1.97  11 2.35
  88  0.422  0.800  0.407-  31 1.86  24 2.05  40 2.05   6 2.35
 
  LATTYP: Found a hexagonal cell.
 ALAT       =    10.0190000534
 C/A-ratio  =     1.1196726572
  
  Lattice vectors:
  
 A1 = (  10.0190000534,   0.0000000000,   0.0000000000)
 A2 = (  -5.0095000267,   8.6767085668,   0.0000000000)
 A3 = (   0.0000000000,   0.0000000000,  11.2180004120)


Analysis of symmetry for initial positions (statically):
=====================================================================
 Subroutine PRICEL returns:
 Original cell was already a primitive cell.
 

 Routine SETGRP: Setting up the symmetry group for a 
 hexagonal supercell.


 Subroutine GETGRP returns: Found  1 space group operations
 (whereof  1 operations were pure point group operations)
 out of a pool of 24 trial point group operations.


The static configuration has the point symmetry C_1 .


Analysis of symmetry for dynamics (positions and initial velocities):
=====================================================================
 Subroutine PRICEL returns:
 Original cell was already a primitive cell.
 

 Routine SETGRP: Setting up the symmetry group for a 
 hexagonal supercell.


 Subroutine GETGRP returns: Found  1 space group operations
 (whereof  1 operations were pure point group operations)
 out of a pool of 24 trial point group operations.


The dynamic configuration has the point symmetry C_1 .


Analysis of structural, dynamic, and magnetic symmetry:
=====================================================================
 Subroutine PRICEL returns:
 Original cell was already a primitive cell.
 

 Routine SETGRP: Setting up the symmetry group for a 
 hexagonal supercell.


 Subroutine GETGRP returns: Found  1 space group operations
 (whereof  1 operations were pure point group operations)
 out of a pool of 24 trial point group operations.


The magnetic configuration has the point symmetry C_1 .


 Subroutine INISYM returns: Found  1 space group operations
 (whereof  1 operations are pure point group operations),
 and found     1 'primitive' translations

 
 

Automatic generation of k-mesh.
 generate k-points for:    2    2    2
Space group operators:
 irot       det(A)        alpha          n_x          n_y          n_z        tau_x        tau_y        tau_z
    1     1.000000     0.000000     1.000000     0.000000     0.000000     0.000000     0.000000     0.000000
 
 Subroutine IBZKPT returns following result:
 ===========================================
 
 Found      8 irreducible k-points:
 
 Following reciprocal coordinates:
            Coordinates               Weight
  0.000000  0.000000  0.000000      1.000000
  0.500000 -0.000000 -0.000000      1.000000
  0.000000  0.500000  0.000000      1.000000
  0.500000  0.500000 -0.000000      1.000000
  0.000000  0.000000  0.500000      1.000000
  0.500000 -0.000000  0.500000      1.000000
  0.000000  0.500000  0.500000      1.000000
  0.500000  0.500000  0.500000      1.000000
 
 Following cartesian coordinates:
            Coordinates               Weight
  0.000000  0.000000  0.000000      1.000000
  0.049905  0.028813 -0.000000      1.000000
  0.000000  0.057626  0.000000      1.000000
  0.049905  0.086438 -0.000000      1.000000
  0.000000  0.000000  0.044571      1.000000
  0.049905  0.028813  0.044571      1.000000
  0.000000  0.057626  0.044571      1.000000
  0.049905  0.086438  0.044571      1.000000
 


--------------------------------------------------------------------------------------------------------




 Dimension of arrays:
   k-points           NKPTS =      8   k-points in BZ     NKDIM =      8   number of bands    NBANDS=    448
   number of dos      NEDOS =    301   number of ions     NIONS =     88
   non local maximal  LDIM  =      6   non local SUM 2l+1 LMDIM =     18
   total plane-waves  NPLWV = 140000
   max r-space proj   IRMAX =   1632   max aug-charges    IRDMAX=   4555
   dimension x,y,z NGX =    50 NGY =   50 NGZ =   56
   dimension x,y,z NGXF=   100 NGYF=  100 NGZF=  112
   support grid    NGXF=   100 NGYF=  100 NGZF=  112
   ions per type =              16   8  16  48
   NGX,Y,Z   is equivalent  to a cutoff of   8.30,  8.30,  8.30 a.u.
   NGXF,Y,Z  is equivalent  to a cutoff of  16.59, 16.59, 16.60 a.u.

 SYSTEM =  unknown system                          
 POSCAR =  Na Mg Mn  O                             

 Startparameter for this run:
   NWRITE =      2    write-flag & timer
   PREC   = normal    normal or accurate (medium, high low for compatibility)
   ISTART =      0    job   : 0-new  1-cont  2-samecut
   ICHARG =      1    charge: 1-file 2-atom 10-const
   ISPIN  =      2    spin polarized calculation?
   LNONCOLLINEAR =      F non collinear calculations
   LSORBIT =      F    spin-orbit coupling
   INIWAV =      1    electr: 0-lowe 1-rand  2-diag
   LASPH  =      T    aspherical Exc in radial PAW
   METAGGA=      F    non-selfconsistent MetaGGA calc.

 Electronic Relaxation 1
   ENCUT  =  400.0 eV  29.40 Ry    5.42 a.u.  16.34 16.34 18.29*2*pi/ulx,y,z
   ENINI  =  400.0     initial cutoff
   ENAUG  =  758.8 eV  augmentation charge cutoff
   NELM   =    200;   NELMIN=  6; NELMDL=-12     # of ELM steps 
   EDIFF  = 0.1E-04   stopping-criterion for ELM
   LREAL  =      T    real-space projection
   NLSPLINE    = F    spline interpolate recip. space projectors
   LCOMPAT=      F    compatible to vasp.4.4
   GGA_COMPAT  = T    GGA compatible to vasp.4.4-vasp.4.6
   LMAXPAW     = -100 max onsite density
   LMAXMIX     =    4 max onsite mixed and CHGCAR
   VOSKOWN=      0    Vosko Wilk Nusair interpolation
   ROPT   =   -0.00050  -0.00050  -0.00050  -0.00050
 Ionic relaxation
   EDIFFG = 0.1E-03   stopping-criterion for IOM
   NSW    =      1    number of steps for IOM
   NBLOCK =      1;   KBLOCK =      1    inner block; outer block 
   IBRION =     -1    ionic relax: 0-MD 1-quasi-New 2-CG
   NFREE  =      0    steps in history (QN), initial steepest desc. (CG)
   ISIF   =      2    stress and relaxation
   IWAVPR =     10    prediction:  0-non 1-charg 2-wave 3-comb
   ISYM   =      2    0-nonsym 1-usesym 2-fastsym
   LCORR  =      T    Harris-Foulkes like correction to forces

   POTIM  = 0.5000    time-step for ionic-motion
   TEIN   =    0.0    initial temperature
   TEBEG  =    0.0;   TEEND  =   0.0 temperature during run
   SMASS  =  -3.00    Nose mass-parameter (am)
   estimated Nose-frequenzy (Omega)   =  0.10E-29 period in steps =****** mass=  -0.229E-26a.u.
   SCALEE = 1.0000    scale energy and forces
   NPACO  =    256;   APACO  = 16.0  distance and # of slots for P.C.
   PSTRESS=    0.0 pullay stress

  Mass of Ions in am
   POMASS =  22.99 24.30 54.94 16.00
  Ionic Valenz
   ZVAL   =   7.00  8.00 13.00  6.00
  Atomic Wigner-Seitz radii
   RWIGS  =  -1.00 -1.00 -1.00 -1.00
  virtual crystal weights 
   VCA    =   1.00  1.00  1.00  1.00
   NELECT =     672.0000    total number of electrons
   NUPDOWN=      48.0000    fix difference up-down

 DOS related values:
   EMIN   =  10.00;   EMAX   =-10.00  energy-range for DOS
   EFERMI =   0.00
   ISMEAR =     0;   SIGMA  =   0.05  broadening in eV -4-tet -1-fermi 0-gaus

 Electronic relaxation 2 (details)
   IALGO  =     48    algorithm
   LDIAG  =      T    sub-space diagonalisation (order eigenvalues)
   LSUBROT=      F    optimize rotation matrix (better conditioning)
   TURBO    =      0    0=normal 1=particle mesh
   IRESTART =      0    0=no restart 2=restart with 2 vectors
   NREBOOT  =      0    no. of reboots
   NMIN     =      0    reboot dimension
   EREF     =   0.00    reference energy to select bands
   IMIX   =      4    mixing-type and parameters
     AMIX     =   0.40;   BMIX     =  1.00
     AMIX_MAG =   1.60;   BMIX_MAG =  1.00
     AMIN     =   0.10
     WC   =   100.;   INIMIX=   1;  MIXPRE=   1;  MAXMIX= -45

 Intra band minimization:
   WEIMIN = 0.0000     energy-eigenvalue tresh-hold
   EBREAK =  0.56E-08  absolut break condition
   DEPER  =   0.30     relativ break condition  

   TIME   =   0.40     timestep for ELM

  volume/ion in A,a.u.               =      11.08        74.78
  Fermi-wavevector in a.u.,A,eV,Ry     =   1.445993  2.732531 28.448379  2.090897
  Thomas-Fermi vector in A             =   2.564112
 
 Write flags
   LWAVE        =      F    write WAVECAR
   LDOWNSAMPLE  =      F    k-point downsampling of WAVECAR
   LCHARG       =      F    write CHGCAR
   LVTOT        =      F    write LOCPOT, total local potential
   LVHAR        =      F    write LOCPOT, Hartree potential only
   LELF         =      F    write electronic localiz. function (ELF)
   LORBIT       =     11    0 simple, 1 ext, 2 COOP (PROOUT), +10 PAW based schemes


 Dipole corrections
   LMONO  =      F    monopole corrections only (constant potential shift)
   LDIPOL =      F    correct potential (dipole corrections)
   IDIPOL =      0    1-x, 2-y, 3-z, 4-all directions 
   EPSILON=  1.0000000 bulk dielectric constant

 Exchange correlation treatment:
   GGA     =    --    GGA type
   LEXCH   =     8    internal setting for exchange type
   VOSKOWN=      0    Vosko Wilk Nusair interpolation
   LHFCALC =     F    Hartree Fock is set to
   LHFONE  =     F    Hartree Fock one center treatment
   AEXX    =    0.0000 exact exchange contribution

 Linear response parameters
   LEPSILON=     F    determine dielectric tensor
   LRPA    =     F    only Hartree local field effects (RPA)
   LNABLA  =     F    use nabla operator in PAW spheres
   LVEL    =     F    velocity operator in full k-point grid
   LINTERFAST=   F  fast interpolation
   KINTER  =     0    interpolate to denser k-point grid
   CSHIFT  =0.1000    complex shift for real part using Kramers Kronig
   OMEGAMAX=  -1.0    maximum frequency
   DEG_THRESHOLD= 0.2000000E-02 threshold for treating states as degnerate
   RTIME   =   -0.100 relaxation time in fs
  (WPLASMAI=    0.000 imaginary part of plasma frequency in eV, 0.658/RTIME)
   DFIELD  = 0.0000000 0.0000000 0.0000000 field for delta impulse in time
 
 Orbital magnetization related:
   ORBITALMAG=     F  switch on orbital magnetization
   LCHIMAG   =     F  perturbation theory with respect to B field
   DQ        =  0.001000  dq finite difference perturbation B field
   LLRAUG    =     F  two centre corrections for induced B field



--------------------------------------------------------------------------------------------------------


 Static calculation
 charge density and potential will be updated during run
 spin polarized calculation
 RMM-DIIS sequential band-by-band
 perform sub-space diagonalisation
    before iterative eigenvector-optimisation
 modified Broyden-mixing scheme, WC =      100.0
 initial mixing is a Kerker type mixing with AMIX =  0.4000 and BMIX =      1.0000
 Hartree-type preconditioning will be used
 using additional bands          112
 real space projection scheme for non local part
 use partial core corrections
 calculate Harris-corrections to forces 
   (improved forces if not selfconsistent)
 use gradient corrections 
 use of overlap-Matrix (Vanderbilt PP)
 Gauss-broadening in eV      SIGMA  =   0.05


--------------------------------------------------------------------------------------------------------


  energy-cutoff  :      400.00
  volume of cell :      975.20
      direct lattice vectors                 reciprocal lattice vectors
    10.019000053  0.000000000  0.000000000     0.099810360  0.057625538 -0.000000000
    -5.009500027  8.676708567  0.000000000     0.000000000  0.115251076  0.000000000
     0.000000000  0.000000000 11.218000412     0.000000000  0.000000000  0.089142446

  length of vectors
    10.019000053 10.019000053 11.218000412     0.115251076  0.115251076  0.089142446


 
 k-points in units of 2pi/SCALE and weight: read from INCAR                         
   0.00000000  0.00000000  0.00000000       0.125
   0.04990518  0.02881277 -0.00000000       0.125
   0.00000000  0.05762554  0.00000000       0.125
   0.04990518  0.08643831 -0.00000000       0.125
   0.00000000  0.00000000  0.04457122       0.125
   0.04990518  0.02881277  0.04457122       0.125
   0.00000000  0.05762554  0.04457122       0.125
   0.04990518  0.08643831  0.04457122       0.125
 
 k-points in reciprocal lattice and weights: read from INCAR                         
   0.00000000  0.00000000  0.00000000       0.125
   0.50000000 -0.00000000 -0.00000000       0.125
   0.00000000  0.50000000  0.00000000       0.125
   0.50000000  0.50000000 -0.00000000       0.125
   0.00000000  0.00000000  0.50000000       0.125
   0.50000000 -0.00000000  0.50000000       0.125
   0.00000000  0.50000000  0.50000000       0.125
   0.50000000  0.50000000  0.50000000       0.125
 
 position of ions in fractional coordinates (direct lattice) 
   0.46949012  0.46518446  0.24512212
   0.42286943  0.29169356  0.74267959
   0.94854102  0.99720981  0.75505078
   0.44273971  0.79319479  0.74270188
   0.97107454  0.66431297  0.23944998
   0.47150469  0.97866564  0.25269744
   0.97952525  0.50898563  0.74997145
   0.67202590  0.14928587  0.75227756
   0.72684478  0.29484337  0.25585130
   0.20683750  0.05880126  0.25937154
   0.21705380  0.56844037  0.23977446
   0.23428938  0.45642785  0.75820286
   0.72833080  0.64191161  0.75004187
   0.23670079  0.93633201  0.74460329
   0.71946650  0.80050401  0.26147262
   0.96190038  0.15445850  0.24480120
   0.60439089  0.30238194  0.99819504
   0.60082218  0.30064626  0.50229718
   0.09671697  0.30191402  0.00021163
   0.10084451  0.30184372  0.49166160
   0.09950171  0.80125314  0.00139950
   0.09218338  0.78338461  0.50478515
   0.60449986  0.79812638  0.01002630
   0.60004642  0.80067573  0.49626848
   0.93909231  0.96298152  0.00959208
   0.27287282  0.13212153  0.99859758
   0.93792426  0.96837873  0.49429130
   0.26948321  0.13219529  0.50421107
   0.44086562  0.97275251  0.99410765
   0.77043750  0.12748844  0.00601708
   0.42987937  0.95730540  0.50047333
   0.76798414  0.13323946  0.49803974
   0.43254167  0.47203614  0.99303864
   0.76966317  0.63647176  0.00574827
   0.42573516  0.46502657  0.50120162
   0.75897083  0.63117252  0.49326705
   0.92994578  0.45466550  0.00219271
   0.26927862  0.64240374  0.99780488
   0.92521632  0.46258555  0.48975217
   0.25774689  0.62952212  0.51207165
   0.10723749  0.11908202  0.09721251
   0.27851530  0.98100904  0.09228739
   0.41996348  0.30608727  0.08420707
   0.09155240  0.95735572  0.59041984
   0.27652099  0.29768316  0.58988855
   0.42072257  0.12249115  0.59135583
   0.09648682  0.97196956  0.91324653
   0.27293175  0.31268654  0.90398463
   0.43059332  0.12334055  0.90025848
   0.09951750  0.12615268  0.40499285
   0.27432508  0.97345503  0.41233641
   0.41858073  0.30111994  0.40757977
   0.60107315  0.11984268  0.09795774
   0.79127047  0.98807244  0.10269923
   0.92377058  0.30159247  0.09613924
   0.60251124  0.97953890  0.59524423
   0.78514873  0.30696778  0.58565072
   0.92824291  0.11963984  0.58634692
   0.60867353  0.97771436  0.90954712
   0.77815924  0.29525251  0.90323584
   0.92580911  0.12005820  0.91752537
   0.60364436  0.12850841  0.40816365
   0.78396767  0.97986667  0.40263147
   0.90983500  0.28990256  0.39887501
   0.59876067  0.62708917  0.09624175
   0.78120512  0.47821821  0.09145034
   0.91211959  0.79143951  0.10975485
   0.58726904  0.47288323  0.59116774
   0.76764190  0.78923130  0.58806202
   0.90629073  0.60855911  0.58448741
   0.59716985  0.47269883  0.90341412
   0.78388583  0.80195272  0.91614366
   0.91828544  0.61841538  0.91694595
   0.57967301  0.61606426  0.39967462
   0.78124535  0.48475640  0.40134514
   0.91143558  0.79413178  0.41050097
   0.10111010  0.62056135  0.08912355
   0.27178124  0.47688936  0.08173640
   0.41895482  0.80260273  0.09893029
   0.09760042  0.47166157  0.58927079
   0.27982422  0.80127734  0.60312531
   0.41249220  0.61764435  0.59826081
   0.09172941  0.47307455  0.90255836
   0.27197821  0.80638181  0.90218396
   0.42431457  0.63368153  0.90860221
   0.09452480  0.62034814  0.40425743
   0.27038286  0.47351250  0.41388927
   0.42154193  0.80023547  0.40683365
 
 position of ions in cartesian coordinates  (Angst):
   2.37348000  4.03627000  2.74978000
   2.77549000  2.53094000  8.33138000
   4.50790997  8.65249887  8.47016000
   0.46229989  6.88232000  8.33163000
   6.40132000  5.76405000  2.68615000
  -0.17862003  8.49159657  2.83476000
   7.26409995  4.41632000  8.41318000
   5.98518000  1.29531000  8.43905000
   5.80524000  2.55827000  2.87014000
   1.77773997  0.51020143  2.90963000
  -0.67294003  4.93219143  2.68979000
   0.06087003  3.96029143  8.50552000
   4.08149005  5.56968000  8.41397000
  -2.31905000  8.12428000  8.35296000
   3.19821000  6.94574000  2.93320000
   8.86352003  1.34019143  2.74618000
   4.54061000  2.62368000 11.19775241
   4.51355000  2.60862000  5.63477000
  -0.54343100  2.61962000  0.00237406
  -0.50172500  2.61901000  5.51546000
  -3.01697000  6.95224000  0.01569959
  -3.00078000  6.79720000  5.66268000
   2.05827000  6.92511000  0.11247500
   2.00088000  6.94723000  5.56714000
   4.58471000  8.35551000  0.10760400
   2.07205000  1.14638000 11.20226811
   4.54597000  8.40234000  5.54496000
   2.03772000  1.14702000  5.65624000
  -0.45597100  8.44029000 11.15190000
   7.08036000  1.10618000  0.06749959
  -0.48866000  8.30626000  5.61431000
   7.02697000  1.15608000  5.58701000
   1.96897000  4.09572000 11.13990791
   4.52285000  5.52248000  0.06448410
   1.93589000  4.03490000  5.62248000
   4.44227000  5.47650000  5.53347000
   7.03948000  3.94500000  0.02459780
  -0.52021900  5.57395000 11.19337551
   6.95242000  4.01372000  5.49404000
  -0.57122500  5.46218000  5.74442000
   0.47787100  1.03324000  1.09053000
  -2.12392003  8.51192957  1.03528000
   2.67427000  2.65583000  0.94463500
  -3.87861003  8.30669657  6.62333000
   1.27922000  2.58291000  6.61737000
   3.60160000  1.06282000  6.63383000
  -3.90238003  8.43349657 10.24480000
   1.16810000  2.71309000 10.14090000
   3.69624000  1.07019000 10.09910000
   0.36510400  1.09459000  4.54321000
  -2.12806003  8.44638557  4.62559000
   2.68530000  2.61273000  4.57223000
   5.42180000  1.03984000  1.09889000
   2.97798997  8.57321657  1.15208000
   7.74443000  2.61683000  1.07849000
   1.12955997  8.49917357  6.67745000
   6.32865000  2.66347000  6.56983000
   8.70073000  1.03808000  6.57764000
   1.20043997  8.48334257 10.20330000
   6.31731000  2.56182000 10.13250000
   8.67425000  1.04171000 10.29280000
   5.40415000  1.11503000  4.57878000
   2.94592997  8.50201757  4.51672000
   7.66337000  2.51540000  4.47458000
   2.85758000  5.44107000  1.07964000
   5.43126000  4.14936000  1.02589000
   5.17381000  6.86709000  1.23123000
   3.51494000  4.10307000  6.63172000
   3.73735000  6.84793000  6.59688000
   6.03155000  5.28029000  6.55678000
   3.61506000  4.10147000 10.13450000
   3.83637000  6.95831000 10.27730000
   6.10235000  5.36581000 10.28630000
   2.72157000  5.34541000  4.48355000
   5.39891000  4.20609000  4.50229000
   5.15347000  6.89045000  4.60500000
  -2.09568000  5.38443000  0.99978800
   0.33399900  4.13783000  0.91691900
   0.17687000  6.96395000  1.10980000
  -1.38493000  4.09247000  6.61044000
  -1.21044000  6.95245000  6.76586000
   1.03867000  5.35912000  6.71129000
  -1.45083000  4.10473000 10.12490000
  -1.31462000  6.99674000 10.12070000
   1.07678000  5.49827000 10.19270000
  -2.16059000  5.38258000  4.53496000
   0.33690500  4.10853000  4.64301000
   0.21464900  6.94341000  4.56386000
 


--------------------------------------------------------------------------------------------------------


 k-point  1 :   0.0000 0.0000 0.0000  plane waves:   17725
 k-point  2 :   0.5000-0.0000-0.0000  plane waves:   17736
 k-point  3 :   0.0000 0.5000 0.0000  plane waves:   17736
 k-point  4 :   0.5000 0.5000-0.0000  plane waves:   17736
 k-point  5 :   0.0000 0.0000 0.5000  plane waves:   17676
 k-point  6 :   0.5000-0.0000 0.5000  plane waves:   17700
 k-point  7 :   0.0000 0.5000 0.5000  plane waves:   17700
 k-point  8 :   0.5000 0.5000 0.5000  plane waves:   17700

 maximum and minimum number of plane-waves per node :     17736    17676

 maximum number of plane-waves:     17736
 maximum index in each direction: 
   IXMAX=   16   IYMAX=   16   IZMAX=   18
   IXMIN=  -16   IYMIN=  -16   IZMIN=  -18


 serial   3D FFT for wavefunctions
 parallel 3D FFT for charge:
    minimum data exchange during FFTs selected (reduces bandwidth)


 total amount of memory used by VASP MPI-rank0   104097. kBytes
=======================================================================

   base      :      30000. kBytes
   nonlr-proj:      13655. kBytes
   fftplans  :       1316. kBytes
   grid      :      22786. kBytes
   one-center:       2737. kBytes
   wavefun   :      33603. kBytes
 
     INWAV:  cpu time    0.0000: real time    0.0000
 Broyden mixing: mesh for mixing (old mesh)
   NGX = 33   NGY = 33   NGZ = 37
  (NGX  =100   NGY  =100   NGZ  =112)
  gives a total of  40293 points

 initial charge density was supplied:
 charge density of overlapping atoms calculated
 number of electron     672.0000000 magnetization      48.0000000
 keeping initial charge density in first step


--------------------------------------------------------------------------------------------------------


 Maximum index for non-local projection operator         1546
 Maximum index for augmentation-charges          257 (set IRDMAX)


--------------------------------------------------------------------------------------------------------


 First call to EWALD:  gamma=   0.179
 Maximum number of real-space cells 3x 3x 2
 Maximum number of reciprocal cells 3x 3x 3

    FEWALD:  cpu time    0.0026: real time    0.0030


--------------------------------------- Iteration      1(   1)  ---------------------------------------


    POTLOK:  cpu time    0.0686: real time    0.0703
    SETDIJ:  cpu time    2.5576: real time    2.5595
    EDDIAG:  cpu time    3.2614: real time    3.2697
  RMM-DIIS:  cpu time    8.7095: real time    8.7291
    ORTHCH:  cpu time    0.5868: real time    0.5915
       DOS:  cpu time    0.0013: real time    0.0015
    --------------------------------------------
      LOOP:  cpu time   15.1853: real time   15.2217

 eigenvalue-minimisations  :  7168
 total energy-change (2. order) : 0.1780659E+04  (-0.3594803E+05)
 number of electron     672.0000000 magnetization      48.0000000
 augmentation part      672.0000000 magnetization      48.0000000

 Free energy of the ion-electron system (eV)
  ---------------------------------------------------
  alpha Z        PSCENC =      2652.81237852
  Ewald energy   TEWEN  =    -41784.09177760
  -Hartree energ DENC   =    -25824.24538153
  -exchange      EXHF   =         0.00000000
  -V(xc)+E(xc)   XCENC  =      3606.25978969
  PAW double counting   =     55594.23204139   -59034.67079123
  entropy T*S    EENTRO =        -0.04947908
  eigenvalues    EBANDS =     -7291.78552708
  atomic energy  EATOM  =     73862.19814772
  Solvation  Ediel_sol  =         0.00000000
  ---------------------------------------------------
  free energy    TOTEN  =      1780.65940081 eV

  energy without entropy =     1780.70887989  energy(sigma->0) =     1780.68414035


--------------------------------------------------------------------------------------------------------




--------------------------------------- Iteration      1(   2)  ---------------------------------------


    EDDIAG:  cpu time    3.2212: real time    3.2279
  RMM-DIIS:  cpu time    8.6991: real time    8.7104
    ORTHCH:  cpu time    0.5819: real time    0.5856
       DOS:  cpu time    0.0010: real time    0.0010
    --------------------------------------------
      LOOP:  cpu time   12.5032: real time   12.5249

 eigenvalue-minimisations  :  7168
 total energy-change (2. order) :-0.2618979E+04  (-0.8663824E+04)
 number of electron     672.0000000 magnetization      48.0000000
 augmentation part      672.0000000 magnetization      48.0000000

 Free energy of the ion-electron system (eV)
  ---------------------------------------------------
  alpha Z        PSCENC =      2652.81237852
  Ewald energy   TEWEN  =    -41784.09177760
  -Hartree energ DENC   =    -25824.24538153
  -exchange      EXHF   =         0.00000000
  -V(xc)+E(xc)   XCENC  =      3606.25978969
  PAW double counting   =     55594.23204139   -59034.67079123
  entropy T*S    EENTRO =        -0.05396373
  eigenvalues    EBANDS =     -9910.76052081
  atomic energy  EATOM  =     73862.19814772
  Solvation  Ediel_sol  =         0.00000000
  ---------------------------------------------------
  free energy    TOTEN  =      -838.32007758 eV

  energy without entropy =     -838.26611385  energy(sigma->0) =     -838.29309571


--------------------------------------------------------------------------------------------------------




--------------------------------------- Iteration      1(   3)  ---------------------------------------


    EDDIAG:  cpu time    3.3155: real time    3.3335
  RMM-DIIS:  cpu time    8.7029: real time    8.7147
    ORTHCH:  cpu time    0.5840: real time    0.5880
       DOS:  cpu time    0.0011: real time    0.0011
    --------------------------------------------
      LOOP:  cpu time   12.6036: real time   12.6373

 eigenvalue-minimisations  :  7168
 total energy-change (2. order) : 0.3032966E+03  (-0.1559593E+04)
 number of electron     672.0000000 magnetization      48.0000000
 augmentation part      672.0000000 magnetization      48.0000000

 Free energy of the ion-electron system (eV)
  ---------------------------------------------------
  alpha Z        PSCENC =      2652.81237852
  Ewald energy   TEWEN  =    -41784.09177760
  -Hartree energ DENC   =    -25824.24538153
  -exchange      EXHF   =         0.00000000
  -V(xc)+E(xc)   XCENC  =      3606.25978969
  PAW double counting   =     55594.23204139   -59034.67079123
  entropy T*S    EENTRO =        -0.04653901
  eigenvalues    EBANDS =     -9607.47131702
  atomic energy  EATOM  =     73862.19814772
  Solvation  Ediel_sol  =         0.00000000
  ---------------------------------------------------
  free energy    TOTEN  =      -535.02344907 eV

  energy without entropy =     -534.97691006  energy(sigma->0) =     -535.00017956


--------------------------------------------------------------------------------------------------------




--------------------------------------- Iteration      1(   4)  ---------------------------------------


    EDDIAG:  cpu time    3.2536: real time    3.2600
  RMM-DIIS:  cpu time    8.7170: real time    8.7294
    ORTHCH:  cpu time    0.5801: real time    0.5839
       DOS:  cpu time    0.0008: real time    0.0008
    --------------------------------------------
      LOOP:  cpu time   12.5516: real time   12.5742

 eigenvalue-minimisations  :  7168
 total energy-change (2. order) :-0.5232059E+03  (-0.5063648E+03)
 number of electron     672.0000000 magnetization      48.0000000
 augmentation part      672.0000000 magnetization      48.0000000

 Free energy of the ion-electron system (eV)
  ---------------------------------------------------
  alpha Z        PSCENC =      2652.81237852
  Ewald energy   TEWEN  =    -41784.09177760
  -Hartree energ DENC   =    -25824.24538153
  -exchange      EXHF   =         0.00000000
  -V(xc)+E(xc)   XCENC  =      3606.25978969
  PAW double counting   =     55594.23204139   -59034.67079123
  entropy T*S    EENTRO =        -0.00267204
  eigenvalues    EBANDS =    -10130.72104466
  atomic energy  EATOM  =     73862.19814772
  Solvation  Ediel_sol  =         0.00000000
  ---------------------------------------------------
  free energy    TOTEN  =     -1058.22930974 eV

  energy without entropy =    -1058.22663770  energy(sigma->0) =    -1058.22797372


--------------------------------------------------------------------------------------------------------




--------------------------------------- Iteration      1(   5)  ---------------------------------------


    EDDIAG:  cpu time    3.2489: real time    3.2556
  RMM-DIIS:  cpu time    8.7030: real time    8.7286
    ORTHCH:  cpu time    0.5816: real time    0.5857
       DOS:  cpu time    0.0006: real time    0.0006
    --------------------------------------------
      LOOP:  cpu time   12.5341: real time   12.5705

 eigenvalue-minimisations  :  7168
 total energy-change (2. order) :-0.1478141E+03  (-0.2125592E+03)
 number of electron     672.0000000 magnetization      48.0000000
 augmentation part      672.0000000 magnetization      48.0000000

 Free energy of the ion-electron system (eV)
  ---------------------------------------------------
  alpha Z        PSCENC =      2652.81237852
  Ewald energy   TEWEN  =    -41784.09177760
  -Hartree energ DENC   =    -25824.24538153
  -exchange      EXHF   =         0.00000000
  -V(xc)+E(xc)   XCENC  =      3606.25978969
  PAW double counting   =     55594.23204139   -59034.67079123
  entropy T*S    EENTRO =        -0.00000000
  eigenvalues    EBANDS =    -10278.53785102
  atomic energy  EATOM  =     73862.19814772
  Solvation  Ediel_sol  =         0.00000000
  ---------------------------------------------------
  free energy    TOTEN  =     -1206.04344405 eV

  energy without entropy =    -1206.04344405  energy(sigma->0) =    -1206.04344405


--------------------------------------------------------------------------------------------------------




--------------------------------------- Iteration      1(   6)  ---------------------------------------


    EDDIAG:  cpu time    3.2547: real time    3.2611
  RMM-DIIS:  cpu time    8.7028: real time    8.7159
    ORTHCH:  cpu time    0.5823: real time    0.5863
       DOS:  cpu time    0.0007: real time    0.0007
    --------------------------------------------
      LOOP:  cpu time   12.5406: real time   12.5640

 eigenvalue-minimisations  :  7168
 total energy-change (2. order) :-0.2139914E+02  (-0.1149303E+03)
 number of electron     672.0000000 magnetization      48.0000000
 augmentation part      672.0000000 magnetization      48.0000000

 Free energy of the ion-electron system (eV)
  ---------------------------------------------------
  alpha Z        PSCENC =      2652.81237852
  Ewald energy   TEWEN  =    -41784.09177760
  -Hartree energ DENC   =    -25824.24538153
  -exchange      EXHF   =         0.00000000
  -V(xc)+E(xc)   XCENC  =      3606.25978969
  PAW double counting   =     55594.23204139   -59034.67079123
  entropy T*S    EENTRO =        -0.00000000
  eigenvalues    EBANDS =    -10299.93699549
  atomic energy  EATOM  =     73862.19814772
  Solvation  Ediel_sol  =         0.00000000
  ---------------------------------------------------
  free energy    TOTEN  =     -1227.44258853 eV

  energy without entropy =    -1227.44258853  energy(sigma->0) =    -1227.44258853


--------------------------------------------------------------------------------------------------------




--------------------------------------- Iteration      1(   7)  ---------------------------------------


    EDDIAG:  cpu time    3.3392: real time    3.3458
  RMM-DIIS:  cpu time    8.6854: real time    8.7188
    ORTHCH:  cpu time    0.5793: real time    0.5830
       DOS:  cpu time    0.0006: real time    0.0006
    --------------------------------------------
      LOOP:  cpu time   12.6044: real time   12.6483

 eigenvalue-minimisations  :  7168
 total energy-change (2. order) :-0.6630572E+01  (-0.7579158E+02)
 number of electron     672.0000000 magnetization      48.0000000
 augmentation part      672.0000000 magnetization      48.0000000

 Free energy of the ion-electron system (eV)
  ---------------------------------------------------
  alpha Z        PSCENC =      2652.81237852
  Ewald energy   TEWEN  =    -41784.09177760
  -Hartree energ DENC   =    -25824.24538153
  -exchange      EXHF   =         0.00000000
  -V(xc)+E(xc)   XCENC  =      3606.25978969
  PAW double counting   =     55594.23204139   -59034.67079123
  entropy T*S    EENTRO =        -0.00000000
  eigenvalues    EBANDS =    -10306.56756758
  atomic energy  EATOM  =     73862.19814772
  Solvation  Ediel_sol  =         0.00000000
  ---------------------------------------------------
  free energy    TOTEN  =     -1234.07316062 eV

  energy without entropy =    -1234.07316062  energy(sigma->0) =    -1234.07316062


--------------------------------------------------------------------------------------------------------




--------------------------------------- Iteration      1(   8)  ---------------------------------------


    EDDIAG:  cpu time    3.2471: real time    3.2533
  RMM-DIIS:  cpu time    8.7048: real time    8.7160
    ORTHCH:  cpu time    0.5860: real time    0.5901
       DOS:  cpu time    0.0007: real time    0.0007
    --------------------------------------------
      LOOP:  cpu time   12.5386: real time   12.5600

 eigenvalue-minimisations  :  7168
 total energy-change (2. order) : 0.4673900E+01  (-0.5239064E+02)
 number of electron     672.0000000 magnetization      48.0000000
 augmentation part      672.0000000 magnetization      48.0000000

 Free energy of the ion-electron system (eV)
  ---------------------------------------------------
  alpha Z        PSCENC =      2652.81237852
  Ewald energy   TEWEN  =    -41784.09177760
  -Hartree energ DENC   =    -25824.24538153
  -exchange      EXHF   =         0.00000000
  -V(xc)+E(xc)   XCENC  =      3606.25978969
  PAW double counting   =     55594.23204139   -59034.67079123
  entropy T*S    EENTRO =        -0.00000000
  eigenvalues    EBANDS =    -10301.89366739
  atomic energy  EATOM  =     73862.19814772
  Solvation  Ediel_sol  =         0.00000000
  ---------------------------------------------------
  free energy    TOTEN  =     -1229.39926043 eV

  energy without entropy =    -1229.39926043  energy(sigma->0) =    -1229.39926043


--------------------------------------------------------------------------------------------------------




--------------------------------------- Iteration      1(   9)  ---------------------------------------


    EDDIAG:  cpu time    3.2530: real time    3.2604
  RMM-DIIS:  cpu time   17.9849: real time   18.0323
    ORTHCH:  cpu time    0.5814: real time    0.5855
       DOS:  cpu time    0.0006: real time    0.0006
    --------------------------------------------
      LOOP:  cpu time   21.8200: real time   21.8788

 eigenvalue-minimisations  : 20223
 total energy-change (2. order) : 0.1793585E+02  (-0.2344122E+02)
 number of electron     672.0000000 magnetization      48.0000000
 augmentation part      672.0000000 magnetization      48.0000000

 Free energy of the ion-electron system (eV)
  ---------------------------------------------------
  alpha Z        PSCENC =      2652.81237852
  Ewald energy   TEWEN  =    -41784.09177760
  -Hartree energ DENC   =    -25824.24538153
  -exchange      EXHF   =         0.00000000
  -V(xc)+E(xc)   XCENC  =      3606.25978969
  PAW double counting   =     55594.23204139   -59034.67079123
  entropy T*S    EENTRO =        -0.00000000
  eigenvalues    EBANDS =    -10283.95781726
  atomic energy  EATOM  =     73862.19814772
  Solvation  Ediel_sol  =         0.00000000
  ---------------------------------------------------
  free energy    TOTEN  =     -1211.46341029 eV

  energy without entropy =    -1211.46341029  energy(sigma->0) =    -1211.46341029


--------------------------------------------------------------------------------------------------------




--------------------------------------- Iteration      1(  10)  ---------------------------------------


    EDDIAG:  cpu time    3.2576: real time    3.2636
  RMM-DIIS:  cpu time   18.4274: real time   18.4519
    ORTHCH:  cpu time    0.5814: real time    0.5854
       DOS:  cpu time    0.0007: real time    0.0007
    --------------------------------------------
      LOOP:  cpu time   22.2671: real time   22.3016

 eigenvalue-minimisations  : 20235
 total energy-change (2. order) :-0.3007451E+01  (-0.1021684E+01)
 number of electron     672.0000000 magnetization      48.0000000
 augmentation part      672.0000000 magnetization      48.0000000

 Free energy of the ion-electron system (eV)
  ---------------------------------------------------
  alpha Z        PSCENC =      2652.81237852
  Ewald energy   TEWEN  =    -41784.09177760
  -Hartree energ DENC   =    -25824.24538153
  -exchange      EXHF   =         0.00000000
  -V(xc)+E(xc)   XCENC  =      3606.25978969
  PAW double counting   =     55594.23204139   -59034.67079123
  entropy T*S    EENTRO =        -0.00000000
  eigenvalues    EBANDS =    -10286.96526873
  atomic energy  EATOM  =     73862.19814772
  Solvation  Ediel_sol  =         0.00000000
  ---------------------------------------------------
  free energy    TOTEN  =     -1214.47086176 eV

  energy without entropy =    -1214.47086176  energy(sigma->0) =    -1214.47086176


--------------------------------------------------------------------------------------------------------




--------------------------------------- Iteration      1(  11)  ---------------------------------------


    EDDIAG:  cpu time    3.3114: real time    3.3289
  RMM-DIIS:  cpu time   19.2591: real time   19.2886
    ORTHCH:  cpu time    0.5805: real time    0.5843
       DOS:  cpu time    0.0007: real time    0.0007
    --------------------------------------------
      LOOP:  cpu time   23.1517: real time   23.2024

 eigenvalue-minimisations  : 21637
 total energy-change (2. order) : 0.1016115E+00  (-0.9576853E-01)
 number of electron     672.0000000 magnetization      48.0000000
 augmentation part      672.0000000 magnetization      48.0000000

 Free energy of the ion-electron system (eV)
  ---------------------------------------------------
  alpha Z        PSCENC =      2652.81237852
  Ewald energy   TEWEN  =    -41784.09177760
  -Hartree energ DENC   =    -25824.24538153
  -exchange      EXHF   =         0.00000000
  -V(xc)+E(xc)   XCENC  =      3606.25978969
  PAW double counting   =     55594.23204139   -59034.67079123
  entropy T*S    EENTRO =        -0.00000000
  eigenvalues    EBANDS =    -10286.86365722
  atomic energy  EATOM  =     73862.19814772
  Solvation  Ediel_sol  =         0.00000000
  ---------------------------------------------------
  free energy    TOTEN  =     -1214.36925026 eV

  energy without entropy =    -1214.36925026  energy(sigma->0) =    -1214.36925026


--------------------------------------------------------------------------------------------------------




--------------------------------------- Iteration      1(  12)  ---------------------------------------


    EDDIAG:  cpu time    3.2723: real time    3.2782
  RMM-DIIS:  cpu time   19.9585: real time   20.0205
    ORTHCH:  cpu time    0.5810: real time    0.5848
       DOS:  cpu time    0.0007: real time    0.0007
    CHARGE:  cpu time    1.7911: real time    1.7946
    MIXING:  cpu time    0.0009: real time    0.0014
    --------------------------------------------
      LOOP:  cpu time   25.6046: real time   25.6803

 eigenvalue-minimisations  : 22790
 total energy-change (2. order) : 0.6915693E-02  (-0.6681977E-02)
 number of electron     672.0000427 magnetization      48.0000007
 augmentation part      239.1250776 magnetization      29.0450397

 Broyden mixing:
  rms(total) = 0.12604E+02    rms(broyden)= 0.12595E+02
  rms(prec ) = 0.14447E+02
  weight for this iteration     100.00

 Free energy of the ion-electron system (eV)
  ---------------------------------------------------
  alpha Z        PSCENC =      2652.81237852
  Ewald energy   TEWEN  =    -41784.09177760
  -Hartree energ DENC   =    -25824.24538153
  -exchange      EXHF   =         0.00000000
  -V(xc)+E(xc)   XCENC  =      3606.25978969
  PAW double counting   =     55594.23204139   -59034.67079123
  entropy T*S    EENTRO =        -0.00000000
  eigenvalues    EBANDS =    -10286.85674153
  atomic energy  EATOM  =     73862.19814772
  Solvation  Ediel_sol  =         0.00000000
  ---------------------------------------------------
  free energy    TOTEN  =     -1214.36233457 eV

  energy without entropy =    -1214.36233456  energy(sigma->0) =    -1214.36233457


--------------------------------------------------------------------------------------------------------




--------------------------------------- Iteration      1(  13)  ---------------------------------------


    POTLOK:  cpu time    0.0620: real time    0.0634
    SETDIJ:  cpu time    2.7121: real time    2.7135
    EDDIAG:  cpu time    3.3144: real time    3.3206
  RMM-DIIS:  cpu time   16.1361: real time   16.1848
    ORTHCH:  cpu time    0.5833: real time    0.5874
       DOS:  cpu time    0.0008: real time    0.0009
    CHARGE:  cpu time    1.8050: real time    1.8074
    MIXING:  cpu time    0.0010: real time    0.0010
    --------------------------------------------
      LOOP:  cpu time   24.6146: real time   24.6790

 eigenvalue-minimisations  : 17321
 total energy-change (2. order) : 0.2255024E+03  (-0.1375644E+03)
 number of electron     672.0000304 magnetization      48.0000016
 augmentation part      268.7508269 magnetization      26.7491480

 Broyden mixing:
  rms(total) = 0.13854E+02    rms(broyden)= 0.13851E+02
  rms(prec ) = 0.15537E+02
  weight for this iteration     100.00

 eigenvalues of (default mixing * dielectric matrix)
  average eigenvalue GAMMA=   0.3189
  0.3189

 Free energy of the ion-electron system (eV)
  ---------------------------------------------------
  alpha Z        PSCENC =      2652.81237852
  Ewald energy   TEWEN  =    -41784.09177760
  -Hartree energ DENC   =    -25158.77079433
  -exchange      EXHF   =         0.00000000
  -V(xc)+E(xc)   XCENC  =      3696.70237083
  PAW double counting   =     59940.38135874   -63365.93246358
  entropy T*S    EENTRO =        -0.09110177
  eigenvalues    EBANDS =    -10832.06805384
  atomic energy  EATOM  =     73862.19814772
  Solvation  Ediel_sol  =         0.00000000
  ---------------------------------------------------
  free energy    TOTEN  =      -988.85993529 eV

  energy without entropy =     -988.76883352  energy(sigma->0) =     -988.81438441


--------------------------------------------------------------------------------------------------------




--------------------------------------- Iteration      1(  14)  ---------------------------------------


    POTLOK:  cpu time    0.0609: real time    0.0610
    SETDIJ:  cpu time    2.7083: real time    2.7096
    EDDIAG:  cpu time    3.2541: real time    3.2613
  RMM-DIIS:  cpu time   16.9903: real time   17.0317
    ORTHCH:  cpu time    0.5841: real time    0.5883
       DOS:  cpu time    0.0006: real time    0.0006
    CHARGE:  cpu time    1.7970: real time    1.7995
    MIXING:  cpu time    0.0008: real time    0.0008
    --------------------------------------------
      LOOP:  cpu time   25.3962: real time   25.4528

 eigenvalue-minimisations  : 17769
 total energy-change (2. order) : 0.7385026E+02  (-0.1837518E+02)
 number of electron     672.0000375 magnetization      48.0000025
 augmentation part      246.7367047 magnetization      32.2262136

 Broyden mixing:
  rms(total) = 0.52696E+01    rms(broyden)= 0.52655E+01
  rms(prec ) = 0.56702E+01
  weight for this iteration     100.00

 eigenvalues of (default mixing * dielectric matrix)
  average eigenvalue GAMMA=   0.7318
  1.1028  0.3609

 Free energy of the ion-electron system (eV)
  ---------------------------------------------------
  alpha Z        PSCENC =      2652.81237852
  Ewald energy   TEWEN  =    -41784.09177760
  -Hartree energ DENC   =    -25768.00931606
  -exchange      EXHF   =         0.00000000
  -V(xc)+E(xc)   XCENC  =      3674.83143133
  PAW double counting   =     63375.03399685   -66857.76026857
  entropy T*S    EENTRO =        -0.00000000
  eigenvalues    EBANDS =    -10070.02426722
  atomic energy  EATOM  =     73862.19814772
  Solvation  Ediel_sol  =         0.00000000
  ---------------------------------------------------
  free energy    TOTEN  =      -915.00967503 eV

  energy without entropy =     -915.00967503  energy(sigma->0) =     -915.00967503


--------------------------------------------------------------------------------------------------------




--------------------------------------- Iteration      1(  15)  ---------------------------------------


    POTLOK:  cpu time    0.0625: real time    0.0634
    SETDIJ:  cpu time    2.7129: real time    2.7148
    EDDIAG:  cpu time    3.2473: real time    3.2530
  RMM-DIIS:  cpu time   16.7402: real time   16.8125
    ORTHCH:  cpu time    0.5847: real time    0.5886
       DOS:  cpu time    0.0006: real time    0.0006
    CHARGE:  cpu time    1.7979: real time    1.8009
    MIXING:  cpu time    0.0008: real time    0.0008
    --------------------------------------------
      LOOP:  cpu time   25.1469: real time   25.2346

 eigenvalue-minimisations  : 18434
 total energy-change (2. order) : 0.1326253E+02  (-0.1942180E+01)
 number of electron     672.0000362 magnetization      48.0000029
 augmentation part      249.6906566 magnetization      33.7987811

 Broyden mixing:
  rms(total) = 0.21396E+01    rms(broyden)= 0.21393E+01
  rms(prec ) = 0.22199E+01
  weight for this iteration     100.00

 eigenvalues of (default mixing * dielectric matrix)
  average eigenvalue GAMMA=   0.9612
  0.3875  0.7575  1.7387

 Free energy of the ion-electron system (eV)
  ---------------------------------------------------
  alpha Z        PSCENC =      2652.81237852
  Ewald energy   TEWEN  =    -41784.09177760
  -Hartree energ DENC   =    -25693.92282380
  -exchange      EXHF   =         0.00000000
  -V(xc)+E(xc)   XCENC  =      3707.12161460
  PAW double counting   =     67497.73910559   -71021.17546092
  entropy T*S    EENTRO =        -0.00000000
  eigenvalues    EBANDS =    -10122.42832772
  atomic energy  EATOM  =     73862.19814772
  Solvation  Ediel_sol  =         0.00000000
  ---------------------------------------------------
  free energy    TOTEN  =      -901.74714360 eV

  energy without entropy =     -901.74714360  energy(sigma->0) =     -901.74714360


--------------------------------------------------------------------------------------------------------




--------------------------------------- Iteration      1(  16)  ---------------------------------------


    POTLOK:  cpu time    0.0607: real time    0.0608
    SETDIJ:  cpu time    2.7408: real time    2.7423
    EDDIAG:  cpu time    3.2447: real time    3.2506
  RMM-DIIS:  cpu time   16.3307: real time   16.3520
    ORTHCH:  cpu time    0.5849: real time    0.5886
       DOS:  cpu time    0.0007: real time    0.0007
    CHARGE:  cpu time    1.7992: real time    1.8016
    MIXING:  cpu time    0.0008: real time    0.0008
    --------------------------------------------
      LOOP:  cpu time   24.7625: real time   24.7975

 eigenvalue-minimisations  : 17369
 total energy-change (2. order) :-0.1557807E+01  (-0.7044144E+00)
 number of electron     672.0000355 magnetization      48.0000029
 augmentation part      251.2271658 magnetization      33.8892785

 Broyden mixing:
  rms(total) = 0.13915E+01    rms(broyden)= 0.13910E+01
  rms(prec ) = 0.14829E+01
  weight for this iteration     100.00

 eigenvalues of (default mixing * dielectric matrix)
  average eigenvalue GAMMA=   0.9773
  2.0817  0.9024  0.3949  0.5304

 Free energy of the ion-electron system (eV)
  ---------------------------------------------------
  alpha Z        PSCENC =      2652.81237852
  Ewald energy   TEWEN  =    -41784.09177760
  -Hartree energ DENC   =    -25644.32366956
  -exchange      EXHF   =         0.00000000
  -V(xc)+E(xc)   XCENC  =      3708.60465140
  PAW double counting   =     70526.24897144   -74080.23687343
  entropy T*S    EENTRO =        -0.00000000
  eigenvalues    EBANDS =    -10144.51677895
  atomic energy  EATOM  =     73862.19814772
  Solvation  Ediel_sol  =         0.00000000
  ---------------------------------------------------
  free energy    TOTEN  =      -903.30495047 eV

  energy without entropy =     -903.30495047  energy(sigma->0) =     -903.30495047


--------------------------------------------------------------------------------------------------------




--------------------------------------- Iteration      1(  17)  ---------------------------------------


    POTLOK:  cpu time    0.0618: real time    0.0641
    SETDIJ:  cpu time    2.7279: real time    2.7436
    EDDIAG:  cpu time    3.2505: real time    3.2572
  RMM-DIIS:  cpu time   17.0845: real time   17.1069
    ORTHCH:  cpu time    0.5845: real time    0.5886
       DOS:  cpu time    0.0007: real time    0.0007
    CHARGE:  cpu time    1.8240: real time    1.8264
    MIXING:  cpu time    0.0011: real time    0.0011
    --------------------------------------------
      LOOP:  cpu time   25.5350: real time   25.5886

 eigenvalue-minimisations  : 18656
 total energy-change (2. order) : 0.1923773E+00  (-0.6225180E-01)
 number of electron     672.0000355 magnetization      48.0000029
 augmentation part      251.0985114 magnetization      33.8773060

 Broyden mixing:
  rms(total) = 0.74693E+00    rms(broyden)= 0.74684E+00
  rms(prec ) = 0.84080E+00
  weight for this iteration     100.00

 eigenvalues of (default mixing * dielectric matrix)
  average eigenvalue GAMMA=   1.0079
  2.2443  1.1402  0.3850  0.7035  0.5666

 Free energy of the ion-electron system (eV)
  ---------------------------------------------------
  alpha Z        PSCENC =      2652.81237852
  Ewald energy   TEWEN  =    -41784.09177760
  -Hartree energ DENC   =    -25637.79608732
  -exchange      EXHF   =         0.00000000
  -V(xc)+E(xc)   XCENC  =      3705.54405713
  PAW double counting   =     71326.84775196   -74888.63507252
  entropy T*S    EENTRO =        -0.00000000
  eigenvalues    EBANDS =    -10139.99197107
  atomic energy  EATOM  =     73862.19814772
  Solvation  Ediel_sol  =         0.00000000
  ---------------------------------------------------
  free energy    TOTEN  =      -903.11257316 eV

  energy without entropy =     -903.11257316  energy(sigma->0) =     -903.11257316


--------------------------------------------------------------------------------------------------------




--------------------------------------- Iteration      1(  18)  ---------------------------------------


    POTLOK:  cpu time    0.0616: real time    0.0622
    SETDIJ:  cpu time    2.7283: real time    2.7296
    EDDIAG:  cpu time    3.2531: real time    3.2593
  RMM-DIIS:  cpu time   16.4180: real time   16.4614
    ORTHCH:  cpu time    0.5841: real time    0.5886
       DOS:  cpu time    0.0006: real time    0.0006
    CHARGE:  cpu time    1.8018: real time    1.8043
    MIXING:  cpu time    0.0009: real time    0.0009
    --------------------------------------------
      LOOP:  cpu time   24.8483: real time   24.9068

 eigenvalue-minimisations  : 17527
 total energy-change (2. order) : 0.3796763E+00  (-0.7346750E-01)
 number of electron     672.0000359 magnetization      48.0000029
 augmentation part      250.5980199 magnetization      33.8387872

 Broyden mixing:
  rms(total) = 0.26319E+00    rms(broyden)= 0.26288E+00
  rms(prec ) = 0.27538E+00
  weight for this iteration     100.00

 eigenvalues of (default mixing * dielectric matrix)
  average eigenvalue GAMMA=   1.0232
[...]
   4      -0.986    -0.564     1.550    -0.030     0.120    -0.001
   5      -0.621    -0.724     1.346    -0.136     0.025    -0.018
   6      -0.829    -1.103     1.932     0.185    -0.034    -0.062
   7      -0.742    -1.083     1.825     0.210    -0.087    -0.003
   8      -0.766    -0.886     1.652     0.312    -0.008    -0.089
   9      -0.793    -0.512     1.305    -0.035     0.086     0.032
  10      -0.644    -1.176     1.820     0.174     0.040     0.108
  11      -0.627    -1.132     1.759     0.114    -0.011    -0.095
  12      -0.645    -0.842     1.487    -0.122     0.090     0.015
  13      -0.894    -0.887     1.781     0.237     0.008     0.007
  14      -0.609    -0.746     1.355    -0.156    -0.017     0.010
  15      -0.704    -0.549     1.253    -0.037     0.059    -0.019
  16      -0.671    -0.812     1.484    -0.171     0.064     0.082
  17       1.487     1.416    -2.903     0.035     0.101     0.115
  18       1.655     1.282    -2.936     0.020    -0.113    -0.070
  19       1.504     1.472    -2.977     0.259    -0.120    -0.036
  20       1.278     1.755    -3.033     0.111     0.113     0.075
  21       1.376     1.537    -2.912    -0.039    -0.086    -0.060
  22       1.437     1.544    -2.981     0.000     0.134     0.117
  23       1.495     1.446    -2.940    -0.046     0.172     0.029
  24       1.500     1.310    -2.810    -0.086    -0.065    -0.009
  25       0.789     0.272    -1.062    -0.344     0.475     0.074
  26       1.124    -2.105     0.981    -0.350     0.517    -0.130
  27      -0.055    -1.925     1.981     1.286    -0.377     0.236
  28      -0.218    -1.841     2.059     1.625    -1.547     0.641
  29      -0.716     1.686    -0.969    -0.519    -1.222     0.838
  30      -0.780     1.936    -1.155     0.462    -1.192    -0.544
  31       0.329    -0.023    -0.306     0.434    -0.213    -0.697
  32       0.097     0.013    -0.110     1.108     0.299     1.154
  33      -1.518    -0.991     2.508     0.381    -0.105    -0.318
  34      -0.088     0.323    -0.235     2.488     0.324    -1.600
  35      -0.144     0.295    -0.151     0.515    -0.259     0.605
  36      -0.199    -0.291     0.490     0.651    -0.040     0.076
  37       0.254    -0.118    -0.136     0.734     0.677     0.159
  38      -0.782    -0.193     0.975     0.449     0.891     0.432
  39       0.649    -0.034    -0.615     1.579     0.235     2.376
  40       0.114    -1.585     1.471    -1.024     0.153    -0.186
  41      -3.256     2.409     0.847    -5.436     3.440    -4.433
  42      -0.885     0.596     0.289     5.269     1.400     5.895
  43       6.874    -7.082     0.208     0.749    -4.807    -0.465
  44      -2.952     0.356     2.596    -2.972    -3.097     3.032
  45       4.425    -6.674     2.249     1.078     4.650    -0.065
  46      -4.222     2.525     1.697     4.136    -4.577    -3.226
  47      -3.310     3.677    -0.368    -5.431     2.565    -3.215
  48       2.657    -5.180     2.524    -1.209    -5.311    -1.715
  49      -3.592     2.566     1.026     5.224     1.685     3.619
  50      -1.206     0.001     1.205    -4.733    -1.114     4.597
  51      -2.348     1.761     0.587     5.659    -2.675    -4.641
  52       6.151    -5.264    -0.887     0.999     4.885     1.704
  53      -2.595     3.492    -0.897    -3.767     0.633    -4.920
  54      -3.048     3.327    -0.279     6.051     0.971     4.499
  55       5.906    -6.163     0.257     0.767    -4.327     1.160
  56      -2.505     2.619    -0.113    -5.608    -2.823     2.159
  57       6.814    -6.028    -0.786     1.947     4.304     1.097
  58      -4.280     4.466    -0.186     5.304    -1.203    -4.406
  59      -6.386     5.687     0.699    -3.901     1.923    -4.071
  60       5.152    -4.687    -0.465    -0.370    -4.392    -1.452
  61      -4.662     3.632     1.031     4.810     2.994     4.737
  62      -2.388     0.498     1.891    -4.375    -3.209     3.863
  63      -4.132     3.321     0.812     3.688    -2.056    -4.563
  64       6.346    -6.707     0.361     0.441     4.740     2.070
  65      -2.602     2.135     0.467    -3.635     1.371    -3.601
  66      -2.830     1.698     1.132     6.017     2.593     3.858
  67       7.437    -5.807    -1.631    -1.253    -3.690    -0.843
  68      -3.551     3.552    -0.001    -3.860    -2.692     3.036
  69       5.165    -5.169     0.005    -0.099     5.470    -1.778
  70      -1.930     3.110    -1.180     5.590    -1.706    -3.512
  71      -4.672     2.569     2.103    -3.461     3.061    -3.546
  72       5.769    -5.759    -0.010     0.068    -4.312     0.277
  73      -2.390     1.776     0.614     5.587     4.811     3.700
  74      -2.814     3.051    -0.237    -4.504    -1.319     3.336
  75      -4.441     4.013     0.427     5.688    -3.986    -2.915
  76       5.965    -7.934     1.969    -1.580     5.024     1.190
  77      -1.773     0.402     1.371    -5.278     3.528    -2.684
  78      -2.072    -0.270     2.342     4.250     3.170     4.662
  79       6.657    -5.601    -1.056    -1.771    -3.932    -0.758
  80      -0.598    -1.904     2.502    -6.839    -1.286     4.771
  81       5.459    -5.622     0.162    -0.577     4.237     1.306
  82      -6.051     3.919     2.133     3.698    -2.947    -4.200
  83      -0.433     0.935    -0.502    -5.708     2.808    -2.406
  84       3.113    -5.002     1.889    -1.286    -4.988     1.113
  85      -3.148     1.462     1.686     5.426     3.418     3.250
  86      -1.825     1.703     0.122    -5.223    -3.126     2.896
  87      -3.376     3.224     0.152     4.019    -0.547    -3.946
  88       5.781    -4.820    -0.961     2.474     4.962    -3.354
 ---------------------------------------------------------------------


 Total hyperfine coupling parameters after diagonalization (MHz)
 (convention: |A_zz| > |A_xx| > |A_yy|)
 ----------------------------------------------------------------------
  ion      A_xx      A_yy      A_zz     asymmetry (A_yy - A_xx)/ A_zz 
 ----------------------------------------------------------------------
   1       0.470     0.023     2.974      -0.150
   2       2.733     2.149     4.933      -0.118
   3       0.497     0.159     3.063      -0.110
   4       2.401     1.969     4.519      -0.096
   5       2.650     2.361     4.525      -0.064
   6       0.330    -0.130     3.001      -0.153
   7       1.050     0.511     3.523      -0.153
   8       1.349     0.715     3.515      -0.181
   9       2.373     2.080     4.190      -0.070
  10       1.267     0.631     3.686      -0.172
  11       1.125     0.568     3.489      -0.160
  12       2.296     1.984     4.375      -0.071
  13       0.595     0.120     3.029      -0.157
  14       1.916     1.576     3.779      -0.090
  15       1.830     1.658     3.627      -0.048
  16       2.805     2.430     4.849      -0.077
  17      13.435     9.124    13.538      -0.318
  18      14.957    10.736    15.335      -0.275
  19      14.300    10.090    14.820      -0.284
  20      15.589    11.296    16.114      -0.266
  21      13.778     9.494    13.955      -0.307
  22      14.213     9.784    14.320      -0.309
  23      14.031     9.662    14.135      -0.309
  24      12.996     8.908    13.253      -0.308
  25      99.320    97.972   100.202      -0.013
  26     100.125    97.445   101.196      -0.026
  27      96.918    93.742    98.402      -0.032
  28      98.205    94.628   100.689      -0.036
  29      97.919    95.930   100.222      -0.020
  30      97.456    95.294    99.664      -0.022
  31      95.422    94.572    96.382      -0.009
  32      97.356    96.195    99.415      -0.012
  33      93.981    93.086    97.346      -0.009
  34      94.956    91.812    97.790      -0.032
  35      94.480    93.448    95.186      -0.011
  36      97.937    96.632    98.035      -0.013
  37      92.131    91.557    93.565      -0.006
  38      94.992    94.084    96.847      -0.009
  39      97.395    94.402   100.265      -0.030
  40      97.365    94.752    98.346      -0.027
  41       3.255    -0.652    15.350      -0.255
  42       5.042    -0.262    15.588      -0.340
  43       5.707     0.885    17.452      -0.276
  44       5.504     2.200    13.753      -0.240
  45       7.319     1.847    16.817      -0.325
  46       6.462     0.272    15.909      -0.389
  47       7.180     2.919    17.798      -0.239
  48       3.800    -1.018    13.257      -0.363
  49       9.112     3.790    18.251      -0.292
  50       5.407     0.227    13.705      -0.378
  51       4.404     0.762    16.209      -0.225
  52       2.993     0.038    14.791      -0.200
  53       4.995     2.096    15.364      -0.189
  54       6.268     1.098    17.249      -0.300
  55       8.603     3.672    18.512      -0.266
  56       6.622     1.539    15.595      -0.326
  57       5.990     2.340    17.791      -0.205
  58       6.947     2.292    18.336      -0.254
  59       8.174     2.141    18.928      -0.319
  60       5.705     2.275    15.342      -0.224
  61       4.181    -0.258    16.203      -0.274
  62       2.354    -0.930    12.514      -0.262
  63       3.141     0.047    13.920      -0.222
  64       6.457     0.883    17.294      -0.322
  65       4.928     2.155    13.327      -0.208
  66       4.574    -0.704    15.003      -0.352
  67       6.687     2.894    17.997      -0.211
  68       6.672     2.769    15.697      -0.249
  69       3.218    -0.177    14.587      -0.233
  70       3.274     0.359    14.277      -0.204
  71       5.075    -0.119    13.916      -0.373
  72       6.874     3.382    17.234      -0.203
  73       3.470    -0.937    15.529      -0.284
  74       5.299     1.893    14.398      -0.237
  75       7.250     0.393    17.568      -0.390
  76       8.452     0.937    18.790      -0.400
  77       4.562    -0.267    13.672      -0.353
  78       2.367    -0.369    13.596      -0.201
  79       5.358     1.269    15.969      -0.256
  80       8.863    -0.137    17.331      -0.519
  81       7.524     3.063    17.007      -0.262
  82       5.931    -0.355    16.022      -0.392
  83       3.669     0.195    13.407      -0.259
  84       5.193     2.487    15.470      -0.175
  85       6.981     1.465    16.657      -0.331
  86       6.923     3.192    16.686      -0.224
  87       4.337     0.344    13.149      -0.304
  88      11.206     2.877    19.703      -0.423
 ---------------------------------------------------------------------



--------------------------------------------------------------------------------------------------------


 stress matrix after NEB project (eV)
    -44.82787     -0.72798     -3.40747
     -0.71399    -42.46045      0.72681
     -3.39693      0.69263    -55.79578
  FORCES: max atom, RMS     2.537998    1.027659
  FORCE total and by dimension    9.640296    2.115974
  Stress total and by dimension   83.371430   55.795782
     LOOP+:  cpu time  672.6757: real time  674.2344
    4ORBIT:  cpu time    0.0000: real time    0.0000
 


 total charge     
 
# of ion       s       p       d       tot
------------------------------------------
    1        0.055   6.000   0.000   6.055
    2        0.049   5.991   0.000   6.041
    3        0.046   5.989   0.000   6.035
    4        0.050   5.993   0.000   6.043
    5        0.050   5.993   0.000   6.044
    6        0.055   6.000   0.000   6.055
    7        0.052   5.996   0.000   6.049
    8        0.053   5.997   0.000   6.051
    9        0.049   5.991   0.000   6.041
   10        0.058   6.003   0.000   6.060
   11        0.053   5.997   0.000   6.049
   12        0.051   5.994   0.000   6.045
   13        0.051   5.994   0.000   6.045
   14        0.050   5.992   0.000   6.043
   15        0.051   5.994   0.000   6.045
   16        0.051   5.994   0.000   6.045
   17        0.145   6.121   0.079   6.345
   18        0.146   6.123   0.080   6.349
   19        0.151   6.133   0.088   6.372
   20        0.153   6.135   0.090   6.377
   21        0.149   6.127   0.083   6.359
   22        0.149   6.128   0.083   6.360
   23        0.146   6.124   0.081   6.351
   24        0.145   6.121   0.078   6.344
   25        0.380   6.467   4.845  11.693
   26        0.365   6.427   4.812  11.603
   27        0.381   6.464   4.838  11.683
   28        0.373   6.447   4.827  11.648
   29        0.364   6.431   4.810  11.605
   30        0.378   6.460   4.840  11.678
   31        0.370   6.439   4.823  11.633
   32        0.375   6.455   4.824  11.655
   33        0.378   6.459   4.826  11.664
   34        0.379   6.460   4.836  11.675
   35        0.391   6.491   4.859  11.740
   36        0.382   6.467   4.850  11.700
   37        0.386   6.477   4.851  11.715
   38        0.373   6.448   4.823  11.644
   39        0.390   6.482   4.873  11.744
   40        0.376   6.448   4.845  11.670
   41        1.599   3.497   0.000   5.096
   42        1.601   3.491   0.000   5.092
   43        1.601   3.501   0.000   5.102
   44        1.596   3.504   0.000   5.099
   45        1.600   3.522   0.000   5.122
   46        1.598   3.516   0.000   5.113
   47        1.599   3.523   0.000   5.122
   48        1.597   3.492   0.000   5.089
   49        1.598   3.495   0.000   5.093
   50        1.598   3.518   0.000   5.116
   51        1.599   3.506   0.000   5.105
   52        1.601   3.481   0.000   5.081
   53        1.598   3.502   0.000   5.099
   54        1.600   3.509   0.000   5.109
   55        1.601   3.521   0.000   5.121
   56        1.597   3.501   0.000   5.097
   57        1.602   3.522   0.000   5.124
   58        1.601   3.496   0.000   5.097
   59        1.600   3.498   0.000   5.099
   60        1.600   3.493   0.000   5.093
   61        1.603   3.506   0.000   5.109
   62        1.597   3.513   0.000   5.110
   63        1.598   3.508   0.000   5.106
   64        1.600   3.502   0.000   5.102
   65        1.596   3.525   0.000   5.121
   66        1.598   3.514   0.000   5.112
   67        1.601   3.485   0.000   5.086
   68        1.598   3.512   0.000   5.109
   69        1.599   3.502   0.000   5.100
   70        1.601   3.515   0.000   5.116
   71        1.597   3.486   0.000   5.082
   72        1.600   3.518   0.000   5.119
   73        1.599   3.505   0.000   5.105
   74        1.597   3.512   0.000   5.109
   75        1.601   3.512   0.000   5.114
   76        1.601   3.519   0.000   5.121
   77        1.597   3.528   0.000   5.126
   78        1.600   3.528   0.000   5.128
   79        1.600   3.464   0.000   5.064
   80        1.601   3.525   0.000   5.126
   81        1.598   3.514   0.000   5.112
   82        1.599   3.499   0.000   5.099
   83        1.597   3.518   0.000   5.115
   84        1.597   3.493   0.000   5.090
   85        1.598   3.517   0.000   5.115
   86        1.597   3.511   0.000   5.109
   87        1.601   3.527   0.000   5.127
   88        1.601   3.480   0.000   5.081
--------------------------------------------------
tot         84.810 416.578  78.045 579.434
 


 magnetization (x)
 
# of ion       s       p       d       tot
------------------------------------------
    1        0.001   0.000   0.000   0.001
    2        0.002   0.000   0.000   0.003
    3        0.001   0.000   0.000   0.001
    4        0.002   0.000   0.000   0.002
    5        0.002   0.001   0.000   0.003
    6        0.001   0.000   0.000   0.001
    7        0.001   0.001   0.000   0.002
    8        0.001   0.000   0.000   0.001
    9        0.002   0.000   0.000   0.002
   10        0.001   0.001   0.000   0.002
   11        0.001   0.001   0.000   0.002
   12        0.002   0.000   0.000   0.002
   13        0.001   0.000   0.000   0.001
   14        0.002   0.000   0.000   0.002
   15        0.002   0.000   0.000   0.002
   16        0.002   0.000   0.000   0.003
   17        0.007   0.002   0.001   0.010
   18        0.008   0.002   0.001   0.011
   19        0.007   0.002   0.001   0.010
   20        0.008   0.003   0.001   0.012
   21        0.007   0.002   0.001   0.010
   22        0.007   0.002   0.001   0.011
   23        0.007   0.002   0.001   0.010
   24        0.007   0.002   0.001   0.010
   25        0.016   0.032   2.742   2.789
   26        0.016   0.029   2.777   2.823
   27        0.015   0.030   2.749   2.794
   28        0.015   0.029   2.762   2.806
   29        0.015   0.029   2.776   2.820
   30        0.015   0.030   2.744   2.790
   31        0.015   0.029   2.757   2.801
   32        0.016   0.031   2.761   2.807
   33        0.015   0.030   2.761   2.805
   34        0.015   0.029   2.746   2.790
   35        0.015   0.031   2.723   2.768
   36        0.015   0.031   2.734   2.780
   37        0.014   0.031   2.724   2.769
   38        0.015   0.030   2.761   2.805
   39        0.016   0.031   2.716   2.763
   40        0.015   0.029   2.747   2.790
   41        0.002   0.024   0.000   0.025
   42        0.002   0.023   0.000   0.024
   43        0.002   0.039   0.000   0.041
   44        0.002   0.027   0.000   0.029
   45        0.002   0.050   0.000   0.052
   46        0.002   0.039   0.000   0.041
   47        0.002   0.045   0.000   0.047
   48        0.002   0.013   0.000   0.015
   49        0.003   0.051   0.000   0.053
   50        0.002   0.023   0.000   0.025
   51        0.002   0.034   0.000   0.036
   52        0.002   0.014   0.000   0.016
   53        0.002   0.032   0.000   0.034
   54        0.002   0.042   0.000   0.044
   55        0.003   0.053   0.000   0.056
   56        0.002   0.036   0.000   0.039
   57        0.002   0.043   0.000   0.046
   58        0.002   0.042   0.000   0.045
   59        0.003   0.045   0.000   0.048
   60        0.002   0.033   0.000   0.035
   61        0.002   0.027   0.000   0.029
   62        0.001   0.013   0.000   0.015
   63        0.002   0.025   0.000   0.027
   64        0.002   0.043   0.000   0.045
   65        0.002   0.027   0.000   0.029
   66        0.002   0.035   0.000   0.037
   67        0.003   0.036   0.000   0.038
   68        0.002   0.042   0.000   0.044
   69        0.002   0.020   0.000   0.022
   70        0.002   0.020   0.000   0.022
   71        0.002   0.022   0.000   0.024
   72        0.002   0.051   0.000   0.053
   73        0.002   0.029   0.000   0.030
   74        0.002   0.030   0.000   0.032
   75        0.002   0.048   0.000   0.050
   76        0.002   0.058   0.000   0.060
   77        0.002   0.031   0.000   0.033
   78        0.001   0.018   0.000   0.020
   79        0.002   0.022   0.000   0.024
   80        0.002   0.050   0.000   0.052
   81        0.002   0.043   0.000   0.045
   82        0.002   0.038   0.000   0.040
   83        0.002   0.018   0.000   0.020
   84        0.002   0.031   0.000   0.033
   85        0.002   0.048   0.000   0.050
   86        0.002   0.042   0.000   0.045
   87        0.002   0.021   0.000   0.023
   88        0.003   0.052   0.000   0.055
--------------------------------------------------
tot          0.421   2.153  43.989  46.563
 

 total amount of memory used by VASP MPI-rank0   104097. kBytes
=======================================================================

   base      :      30000. kBytes
   nonlr-proj:      13655. kBytes
   fftplans  :       1316. kBytes
   grid      :      22786. kBytes
   one-center:       2737. kBytes
   wavefun   :      33603. kBytes
 
  
  
 General timing and accounting informations for this job:
 ========================================================
  
                  Total CPU time used (sec):      686.434
                            User time (sec):      681.966
                          System time (sec):        4.468
                         Elapsed time (sec):      689.239
  
                   Maximum memory used (kb):      197400.
                   Average memory used (kb):           0.
  
                          Minor page faults:       328925
                          Major page faults:            0
                 Voluntary context switches:         5740
