 vasp.5.4.4.18Apr17-6-g9f103f2a35 (build Dec 02 2020 12:53:39) complex          
  
 executed on             LinuxIFC date 2021.07.31  12:35:41
 running on   64 total cores
 distrk:  each k-point on   64 cores,    1 groups
 distr:  one band on NCORES_PER_BAND=   1 cores,   64 groups


--------------------------------------------------------------------------------------------------------


 INCAR:
 POTCAR:    PAW_PBE Na_pv 19Sep2006               
 POTCAR:    PAW_PBE Mg_pv 13Apr2007               
 POTCAR:    PAW_PBE Mn_pv 02Aug2007               
 POTCAR:    PAW_PBE O 08Apr2002                   

 ----------------------------------------------------------------------------- 
|                                                                             |
|           W    W    AA    RRRRR   N    N  II  N    N   GGGG   !!!           |
|           W    W   A  A   R    R  NN   N  II  NN   N  G    G  !!!           |
|           W    W  A    A  R    R  N N  N  II  N N  N  G       !!!           |
|           W WW W  AAAAAA  RRRRR   N  N N  II  N  N N  G  GGG   !            |
|           WW  WW  A    A  R   R   N   NN  II  N   NN  G    G                |
|           W    W  A    A  R    R  N    N  II  N    N   GGGG   !!!           |
|                                                                             |
|      For optimal performance we recommend to set                            |
|        NCORE= 4 - approx SQRT( number of cores)                             |
|      NCORE specifies how many cores store one orbital (NPAR=cpu/NCORE).     |
|      This setting can  greatly improve the performance of VASP for DFT.     |
|      The default,   NCORE=1            might be grossly inefficient         |
|      on modern multi-core architectures or massively parallel machines.     |
|      Do your own testing !!!!                                               |
|      Unfortunately you need to use the default for GW and RPA calculations. |
|      (for HF NCORE is supported but not extensively tested yet)             |
|                                                                             |
 ----------------------------------------------------------------------------- 

 POTCAR:    PAW_PBE Na_pv 19Sep2006               
   VRHFIN =Na: p6s1                                                             
   LEXCH  = PE                                                                  
   EATOM  =   766.0439 eV,   56.3026 Ry                                         
                                                                                
   TITEL  = PAW_PBE Na_pv 19Sep2006                                             
   LULTRA =        F    use ultrasoft PP ?                                      
   IUNSCR =        1    unscreen: 0-lin 1-nonlin 2-no                           
   RPACOR =    1.800    partial core radius                                     
   POMASS =   22.990; ZVAL   =    7.000    mass and valenz                      
   RCORE  =    2.200    outmost cutoff radius                                   
   RWIGS  =    2.200; RWIGS  =    1.164    wigner-seitz radius (au A)           
   ENMAX  =  259.561; ENMIN  =  194.671 eV                                      
   ICORE  =        2    local potential                                         
   LCOR   =        T    correct aug charges                                     
   LPAW   =        T    paw PP                                                  
   EAUG   =  368.056                                                            
   DEXC   =    0.000                                                            
   RMAX   =    2.245    core radius for proj-oper                               
   RAUG   =    1.300    factor for augmentation sphere                          
   RDEP   =    2.259    radius for radial grids                                 
   RDEPT  =    1.738    core radius for aug-charge                              
                                                                                
   Atomic configuration                                                         
    5 entries                                                                   
     n  l   j            E        occ.                                          
     1  0  0.50     -1033.6933   2.0000                                         
     2  0  0.50       -56.7526   2.0000                                         
     2  1  1.50       -28.6721   6.0000                                         
     3  0  0.50        -2.7440   1.0000                                         
     3  2  1.50        -1.3606   0.0000                                         
   Description                                                                  
     l       E           TYP  RCUT    TYP  RCUT                                 
     1    -28.6720912     23  2.000                                             
     1      6.8029130     23  2.000                                             
     0     -2.7439560     23  2.200                                             
     0     34.0145650     23  2.200                                             
     2     -1.3605826     23  2.200                                             
  local pseudopotential read in
  partial core-charges read in
  partial kinetic energy density read in
  atomic valenz-charges read in
  non local Contribution for L=           1  read in
    real space projection operators read in
  non local Contribution for L=           1  read in
    real space projection operators read in
  non local Contribution for L=           0  read in
    real space projection operators read in
  non local Contribution for L=           0  read in
    real space projection operators read in
    PAW grid and wavefunctions read in
 
   number of l-projection  operators is LMAX  =           4
   number of lm-projection operators is LMMAX =           8
 
 POTCAR:    PAW_PBE Mg_pv 13Apr2007               
   VRHFIN =Mg: p6s2                                                             
   LEXCH  = PE                                                                  
   EATOM  =  1056.7344 eV,   77.6678 Ry                                         
                                                                                
   TITEL  = PAW_PBE Mg_pv 13Apr2007                                             
   LULTRA =        F    use ultrasoft PP ?                                      
   IUNSCR =        1    unscreen: 0-lin 1-nonlin 2-no                           
   RPACOR =    1.500    partial core radius                                     
   POMASS =   24.305; ZVAL   =    8.000    mass and valenz                      
   RCORE  =    2.000    outmost cutoff radius                                   
   RWIGS  =    2.000; RWIGS  =    1.058    wigner-seitz radius (au A)           
   ENMAX  =  403.929; ENMIN  =  302.947 eV                                      
   RCLOC  =    1.506    cutoff for local pot                                    
   LCOR   =        T    correct aug charges                                     
   LPAW   =        T    paw PP                                                  
   EAUG   =  758.780                                                            
   DEXC   =    0.000                                                            
   RMAX   =    2.045    core radius for proj-oper                               
   RAUG   =    1.300    factor for augmentation sphere                          
   RDEP   =    2.025    radius for radial grids                                 
   RDEPT  =    1.557    core radius for aug-charge                              
                                                                                
   Atomic configuration                                                         
    5 entries                                                                   
     n  l   j            E        occ.                                          
     1  0  0.50     -1259.6230   2.0000                                         
     2  0  0.50       -79.8442   2.0000                                         
     2  1  1.50       -46.6121   6.0000                                         
     3  0  0.50        -4.7055   2.0000                                         
     3  2  1.50        -1.3606   0.0000                                         
   Description                                                                  
     l       E           TYP  RCUT    TYP  RCUT                                 
     1    -46.6121073     23  1.600                                             
     1      2.7211652     23  1.600                                             
     0     -4.7054661     23  2.000                                             
     0     61.2262170     23  2.000                                             
     2     -1.3605826     23  2.000                                             
  local pseudopotential read in
  partial core-charges read in
  partial kinetic energy density read in
  atomic valenz-charges read in
  non local Contribution for L=           1  read in
    real space projection operators read in
  non local Contribution for L=           1  read in
    real space projection operators read in
  non local Contribution for L=           0  read in
    real space projection operators read in
  non local Contribution for L=           0  read in
    real space projection operators read in
  non local Contribution for L=           2  read in
    real space projection operators read in
    PAW grid and wavefunctions read in
 
   number of l-projection  operators is LMAX  =           5
   number of lm-projection operators is LMMAX =          13
 
 POTCAR:    PAW_PBE Mn_pv 02Aug2007               
   VRHFIN =Mn: 3p4s3d                                                           
   LEXCH  = PE                                                                  
   EATOM  =  2025.2664 eV,  148.8529 Ry                                         
                                                                                
   TITEL  = PAW_PBE Mn_pv 02Aug2007                                             
   LULTRA =        F    use ultrasoft PP ?                                      
   IUNSCR =        1    unscreen: 0-lin 1-nonlin 2-no                           
   RPACOR =    2.080    partial core radius                                     
   POMASS =   54.938; ZVAL   =   13.000    mass and valenz                      
   RCORE  =    2.300    outmost cutoff radius                                   
   RWIGS  =    2.500; RWIGS  =    1.323    wigner-seitz radius (au A)           
   ENMAX  =  269.864; ENMIN  =  202.398 eV                                      
   ICORE  =        3    local potential                                         
   LCOR   =        T    correct aug charges                                     
   LPAW   =        T    paw PP                                                  
   EAUG   =  569.085                                                            
   DEXC   =    0.000                                                            
   RMAX   =    2.343    core radius for proj-oper                               
   RAUG   =    1.300    factor for augmentation sphere                          
   RDEP   =    2.338    radius for radial grids                                 
   RDEPT  =    1.798    core radius for aug-charge                              
                                                                                
   Atomic configuration                                                         
    8 entries                                                                   
     n  l   j            E        occ.                                          
     1  0  0.50     -6424.8287   2.0000                                         
     2  0  0.50      -739.1154   2.0000                                         
     2  1  1.50      -625.3949   6.0000                                         
     3  0  0.50       -81.6100   2.0000                                         
     3  1  1.50       -50.4667   6.0000                                         
     3  2  2.50        -3.3745   6.0000                                         
     4  0  0.50        -4.1331   1.0000                                         
     4  3  2.50        -1.3606   0.0000                                         
   Description                                                                  
     l       E           TYP  RCUT    TYP  RCUT                                 
     1    -50.4666628     23  2.000                                             
     1     -1.3605826     23  2.000                                             
     2     -3.3744729     23  2.300                                             
     2     -4.7350555     23  2.300                                             
     0     -4.1331431     23  2.300                                             
     0      7.6656591     23  2.300                                             
     3      9.5240782     23  2.300                                             
  local pseudopotential read in
  partial core-charges read in
  partial kinetic energy density read in
  atomic valenz-charges read in
  non local Contribution for L=           1  read in
    real space projection operators read in
  non local Contribution for L=           1  read in
    real space projection operators read in
  non local Contribution for L=           2  read in
    real space projection operators read in
  non local Contribution for L=           2  read in
    real space projection operators read in
  non local Contribution for L=           0  read in
    real space projection operators read in
  non local Contribution for L=           0  read in
    real space projection operators read in
    PAW grid and wavefunctions read in
 
   number of l-projection  operators is LMAX  =           6
   number of lm-projection operators is LMMAX =          18
 
 POTCAR:    PAW_PBE O 08Apr2002                   
   VRHFIN =O: s2p4                                                              
   LEXCH  = PE                                                                  
   EATOM  =   432.3788 eV,   31.7789 Ry                                         
                                                                                
   TITEL  = PAW_PBE O 08Apr2002                                                 
   LULTRA =        F    use ultrasoft PP ?                                      
   IUNSCR =        1    unscreen: 0-lin 1-nonlin 2-no                           
   RPACOR =    1.200    partial core radius                                     
   POMASS =   16.000; ZVAL   =    6.000    mass and valenz                      
   RCORE  =    1.520    outmost cutoff radius                                   
   RWIGS  =    1.550; RWIGS  =    0.820    wigner-seitz radius (au A)           
   ENMAX  =  400.000; ENMIN  =  300.000 eV                                      
   ICORE  =        2    local potential                                         
   LCOR   =        T    correct aug charges                                     
   LPAW   =        T    paw PP                                                  
   EAUG   =  605.392                                                            
   DEXC   =    0.000                                                            
   RMAX   =    1.553    core radius for proj-oper                               
   RAUG   =    1.300    factor for augmentation sphere                          
   RDEP   =    1.550    radius for radial grids                                 
   RDEPT  =    1.329    core radius for aug-charge                              
                                                                                
   Atomic configuration                                                         
    4 entries                                                                   
     n  l   j            E        occ.                                          
     1  0  0.50      -514.6923   2.0000                                         
     2  0  0.50       -23.9615   2.0000                                         
     2  1  0.50        -9.0305   4.0000                                         
     3  2  1.50        -9.5241   0.0000                                         
   Description                                                                  
     l       E           TYP  RCUT    TYP  RCUT                                 
     0    -23.9615318     23  1.200                                             
     0     -9.5240782     23  1.200                                             
     1     -9.0304911     23  1.520                                             
     1      8.1634956     23  1.520                                             
     2     -9.5240782      7  1.500                                             
  local pseudopotential read in
  partial core-charges read in
  partial kinetic energy density read in
  kinetic energy density of atom read in
  atomic valenz-charges read in
  non local Contribution for L=           0  read in
    real space projection operators read in
  non local Contribution for L=           0  read in
    real space projection operators read in
  non local Contribution for L=           1  read in
    real space projection operators read in
  non local Contribution for L=           1  read in
    real space projection operators read in
    PAW grid and wavefunctions read in
 
   number of l-projection  operators is LMAX  =           4
   number of lm-projection operators is LMMAX =           8
 
 Optimization of the real space projectors (new method)

 maximal supplied QI-value         = 17.01
 optimisation between [QCUT,QGAM] = [ 10.20, 20.41] = [ 29.16,116.64] Ry 
 Optimized for a Real-space Cutoff    1.30 Angstroem

   l    n(q)    QCUT    max X(q) W(low)/X(q) W(high)/X(q)  e(spline) 
   1      7    10.205     4.940    0.23E-03    0.84E-03    0.11E-06
   1      7    10.205     6.253    0.40E-03    0.13E-02    0.18E-06
   0      8    10.205    37.438    0.23E-03    0.37E-03    0.42E-07
   0      8    10.205     9.606    0.16E-03    0.26E-03    0.31E-07
 Optimization of the real space projectors (new method)

 maximal supplied QI-value         = 18.90
 optimisation between [QCUT,QGAM] = [ 10.20, 20.41] = [ 29.16,116.64] Ry 
 Optimized for a Real-space Cutoff    1.26 Angstroem

   l    n(q)    QCUT    max X(q) W(low)/X(q) W(high)/X(q)  e(spline) 
   1      7    10.205     2.974    0.63E-04    0.14E-03    0.13E-06
   1      7    10.205     4.279    0.11E-03    0.45E-03    0.24E-06
   0      8    10.205    16.381    0.44E-03    0.15E-03    0.55E-07
   0      8    10.205     5.611    0.31E-03    0.11E-03    0.40E-07
   2      7    10.205     4.652    0.50E-03    0.47E-03    0.57E-07
 Optimization of the real space projectors (new method)

 maximal supplied QI-value         = 16.25
 optimisation between [QCUT,QGAM] = [ 10.24, 20.48] = [ 29.35,117.42] Ry 
 Optimized for a Real-space Cutoff    1.34 Angstroem

   l    n(q)    QCUT    max X(q) W(low)/X(q) W(high)/X(q)  e(spline) 
   1      8    10.239     3.658    0.23E-03    0.30E-03    0.98E-07
   1      8    10.239     5.612    0.32E-03    0.65E-03    0.21E-06
   2      7    10.239    55.373    0.42E-03    0.45E-03    0.65E-07
   2      7    10.239    50.863    0.43E-03    0.48E-03    0.67E-07
   0      8    10.239    79.536    0.11E-03    0.21E-03    0.56E-07
   0      8    10.239    38.668    0.96E-04    0.19E-03    0.52E-07
 Optimization of the real space projectors (new method)

 maximal supplied QI-value         = 24.76
 optimisation between [QCUT,QGAM] = [ 10.15, 20.30] = [ 28.85,115.39] Ry 
 Optimized for a Real-space Cutoff    1.38 Angstroem

   l    n(q)    QCUT    max X(q) W(low)/X(q) W(high)/X(q)  e(spline) 
   0      8    10.150    20.381    0.22E-03    0.32E-03    0.29E-06
   0      8    10.150    15.268    0.23E-03    0.35E-03    0.30E-06
   1      8    10.150     5.964    0.46E-03    0.53E-03    0.21E-06
   1      8    10.150     5.382    0.38E-03    0.45E-03    0.19E-06
  PAW_PBE Na_pv 19Sep2006               :
 energy of atom  1       EATOM= -766.0439
 kinetic energy error for atom=    0.0103 (will be added to EATOM!!)
  PAW_PBE Mg_pv 13Apr2007               :
 energy of atom  2       EATOM=-1056.7344
 kinetic energy error for atom=    0.0820 (will be added to EATOM!!)
  PAW_PBE Mn_pv 02Aug2007               :
 energy of atom  3       EATOM=-2025.2664
 kinetic energy error for atom=    0.0284 (will be added to EATOM!!)
  PAW_PBE O 08Apr2002                   :
 energy of atom  4       EATOM= -432.3788
 kinetic energy error for atom=    0.1156 (will be added to EATOM!!)
 
 
 POSCAR: Na Mg Mn  O                             
  positions in cartesian coordinates
  No initial velocities read in

 METAGGA = SCAN     LMAXTAU =  6    LMIXTAU =  F

 exchange correlation table for  LEXCH =        8
   RHO(1)=    0.500       N(1)  =     2000
   RHO(2)=  100.500       N(2)  =     4000

 VTST: version 3.2, (02/03/18)

 CHAIN: initializing optimizer
 
 OPT: Using VASP Dynamics algorithm
 CHAIN: Read ICHAIN            0
 
 POSCAR: Na Mg Mn  O                             
  positions in cartesian coordinates
  No initial velocities read in
 


--------------------------------------------------------------------------------------------------------


 ion  position               nearest neighbor table
   1  0.739  0.240  0.252-  62 2.17  53 2.20
   2  0.114  0.121  0.745-  44 2.25  45 2.36
   3  0.970  0.776  0.756-  73 2.29  44 2.36
   4  0.500  0.312  0.742-  68 2.18  71 2.35
   5  0.277  0.118  0.253-  42 2.24  26 2.85  28 2.86
   6  0.590  0.446  0.237-  43 2.19  65 2.30
   7  0.769  0.098  0.754-  59 2.27  56 2.30  30 2.77  32 2.88
   8  0.614  0.649  0.757-  72 2.33  85 2.37
   9  0.604  0.786  0.243-  65 2.34
  10  0.954  0.657  0.252-  76 2.27  67 2.29
  11  0.167  0.479  0.239-  78 2.14  87 2.26  77 2.30  86 2.37  15 2.79
  12  0.407  0.939  0.757-  84 2.21  81 2.35  46 2.36  49 2.36  29 2.80  31 2.88
  13  0.935  0.480  0.731-  70 2.12  57 2.29  39 2.76
  14  0.255  0.474  0.757-  83 2.29
  15  0.305  0.800  0.255-  88 2.24  79 2.29  11 2.79
  16  0.943  0.041  0.258-  63 2.22  50 2.29  54 2.30  27 2.90
  17  0.623  0.299  0.992-  66 2.00  53 2.00  60 2.04  71 2.05  49 2.10  43 2.10  29 2.84
  18  0.606  0.279  0.489-  52 1.97  62 2.08  46 2.09  75 2.12  57 2.13  68 2.15  31 2.82
  19  0.116  0.296  0.005-  41 2.01  61 2.03  83 2.05  55 2.08  48 2.08  78 2.17  37 2.83  26 2.84

  20  0.104  0.279  0.495-  58 2.01  87 2.01  50 2.03  80 2.05  64 2.06  45 2.25  39 2.82  32 2.84

  21  0.125  0.798  0.018-  77 1.99  84 2.00  42 2.03  67 2.07  47 2.12  73 2.19  29 2.76
  22  0.123  0.785  0.497-  51 1.94  70 2.06  81 2.08  86 2.08  76 2.10  44 2.16  31 2.81
  23  0.623  0.799  0.991-  85 1.98  54 2.01  72 2.03  65 2.08  79 2.14  59 2.14  25 2.82  30 2.85
                            38 2.85
  24  0.613  0.784  0.509-  82 1.99  63 2.00  69 2.00  56 2.02  74 2.07  88 2.07  27 2.82  35 2.84

  25  0.947  0.954  0.997-  67 1.88  61 1.89  72 1.90  41 1.90  47 1.94  54 2.01  34 2.78  23 2.82
                            26 2.87  30 2.94
  26  0.277  0.130  1.000-  41 1.86  48 1.90  47 1.94  49 1.96  42 1.98  43 1.98  29 2.79  19 2.84
                             5 2.85  25 2.87  33 2.91
  27  0.938  0.940  0.501-  63 1.82  76 1.85  69 1.86  50 1.89  58 2.01  44 2.06  36 2.78  24 2.82
                            16 2.90  28 2.95  32 2.96
  28  0.278  0.120  0.508-  45 1.91  50 1.92  52 1.93  46 1.97  44 1.97  51 1.97   5 2.86  31 2.90
                            35 2.93  27 2.95
  29  0.441  0.973  0.004-  42 1.86  49 1.88  53 1.91  59 1.92  84 1.96  79 1.98  21 2.76  26 2.79
                            12 2.80  17 2.84  38 2.91  30 2.96
  30  0.782  0.127  1.000-  53 1.89  61 1.90  60 1.93  54 1.94  55 1.95  59 2.02   7 2.77  23 2.85
                            37 2.89  25 2.94  29 2.96
  31  0.447  0.954  0.501-  51 1.87  46 1.88  62 1.92  81 1.94  56 1.97  88 1.98  22 2.81  18 2.82
                            32 2.87  12 2.88  28 2.90  40 2.97
  32  0.777  0.121  0.498-  62 1.84  56 1.86  58 1.91  64 1.96  57 1.98  63 2.01  20 2.84  31 2.87
                             7 2.88  39 2.88  27 2.96
  33  0.455  0.466  0.002-  78 1.87  71 1.87  43 1.89  65 1.93  85 1.99  48 2.05  34 2.89  38 2.90
                            26 2.91
  34  0.788  0.634  0.005-  73 1.86  66 1.88  67 1.90  72 1.91  65 1.96  71 2.00  25 2.78  33 2.89
                            37 2.96
  35  0.450  0.457  0.496-  74 1.84  82 1.86  52 1.91  68 1.94  87 1.97  45 2.03  40 2.81  24 2.84
                            36 2.86  28 2.93
  36  0.781  0.620  0.496-  76 1.82  70 1.86  68 1.93  75 1.94  69 1.94  74 2.03  27 2.78  35 2.86
                            39 2.96
  37  0.954  0.460  0.006-  83 1.84  55 1.91  77 1.94  60 1.96  73 1.99  66 1.99  19 2.83  30 2.89
                            38 2.96  34 2.96
  38  0.295  0.639  0.006-  79 1.85  85 1.87  84 1.92  78 1.96  83 1.96  77 2.07  23 2.85  33 2.90
                            29 2.91  37 2.96
  39  0.954  0.453  0.488-  80 1.84  64 1.86  86 1.92  57 1.93  70 2.01  75 2.09  13 2.76  20 2.82
                            40 2.85  32 2.88  36 2.96
  40  0.283  0.612  0.491-  88 1.89  82 1.90  80 1.90  86 1.90  87 1.93  81 1.93  35 2.81  39 2.85
                            31 2.97
  41  0.111  0.114  0.085-  26 1.86  25 1.90  19 2.01
  42  0.298  0.982  0.104-  29 1.86  26 1.98  21 2.03   5 2.24
  43  0.445  0.300  0.091-  33 1.89  26 1.98  17 2.10   6 2.19
  44  0.114  0.957  0.607-  28 1.97  27 2.06  22 2.16   2 2.25   3 2.36
  45  0.296  0.286  0.604-  28 1.91  35 2.03  20 2.25   2 2.36
  46  0.439  0.104  0.597-  31 1.88  28 1.97  18 2.09  12 2.36
  47  0.117  0.965  0.906-  26 1.94  25 1.94  21 2.12
  48  0.288  0.291  0.903-  26 1.90  33 2.05  19 2.08
  49  0.435  0.119  0.904-  29 1.88  26 1.96  17 2.10  12 2.36
  50  0.106  0.097  0.416-  27 1.89  28 1.92  20 2.03  16 2.29
  51  0.290  0.959  0.415-  31 1.87  22 1.94  28 1.97
  52  0.432  0.283  0.411-  35 1.91  28 1.93  18 1.97
  53  0.619  0.127  0.086-  30 1.89  29 1.91  17 2.00   1 2.20
  54  0.784  0.965  0.094-  30 1.94  23 2.01  25 2.01  16 2.30
  55  0.936  0.292  0.099-  37 1.91  30 1.95  19 2.08
  56  0.622  0.968  0.591-  32 1.86  31 1.97  24 2.02   7 2.30
  57  0.797  0.299  0.588-  39 1.93  32 1.98  18 2.13  13 2.29
  58  0.933  0.112  0.590-  32 1.91  20 2.01  27 2.01
  59  0.597  0.975  0.903-  29 1.92  30 2.02  23 2.14   7 2.27
  60  0.800  0.296  0.904-  30 1.93  37 1.96  17 2.04
  61  0.941  0.117  0.917-  25 1.89  30 1.90  19 2.03
  62  0.617  0.100  0.405-  32 1.84  31 1.92  18 2.08   1 2.17
  63  0.788  0.948  0.415-  27 1.82  24 2.00  32 2.01  16 2.22
  64  0.933  0.286  0.399-  39 1.86  32 1.96  20 2.06
  65  0.617  0.626  0.097-  33 1.93  34 1.96  23 2.08   6 2.30   9 2.34
  66  0.785  0.471  0.090-  34 1.88  37 1.99  17 2.00
  67  0.939  0.800  0.098-  25 1.88  34 1.90  21 2.07  10 2.29
  68  0.616  0.466  0.592-  36 1.93  35 1.94  18 2.15   4 2.18
  69  0.788  0.783  0.595-  27 1.86  36 1.94  24 2.00
  70  0.933  0.611  0.583-  36 1.86  39 2.01  22 2.06  13 2.12
  71  0.613  0.475  0.907-  33 1.87  34 2.00  17 2.05   4 2.35
  72  0.796  0.791  0.903-  25 1.90  34 1.91  23 2.03   8 2.33
  73  0.935  0.618  0.914-  34 1.86  37 1.99  21 2.19   3 2.29
  74  0.601  0.609  0.403-  35 1.84  36 2.03  24 2.07
  75  0.781  0.466  0.392-  36 1.94  39 2.09  18 2.12
  76  0.933  0.781  0.414-  36 1.82  27 1.85  22 2.10  10 2.27
  77  0.112  0.619  0.105-  37 1.94  21 1.99  38 2.07  11 2.30
  78  0.311  0.482  0.098-  33 1.87  38 1.96  11 2.14  19 2.17
  79  0.444  0.803  0.092-  38 1.85  29 1.98  23 2.14  15 2.29
  80  0.111  0.464  0.580-  39 1.84  40 1.90  20 2.05
  81  0.297  0.776  0.591-  40 1.93  31 1.94  22 2.08  12 2.35
  82  0.435  0.604  0.586-  35 1.86  40 1.90  24 1.99
  83  0.117  0.477  0.919-  37 1.84  38 1.96  19 2.05  14 2.29
  84  0.286  0.796  0.914-  38 1.92  29 1.96  21 2.00  12 2.21
  85  0.442  0.629  0.910-  38 1.87  23 1.98  33 1.99   8 2.37
  86  0.123  0.609  0.398-  40 1.90  39 1.92  22 2.08  11 2.37
  87  0.280  0.446  0.402-  40 1.93  35 1.97  20 2.01  11 2.26
  88  0.439  0.783  0.408-  40 1.89  31 1.98  24 2.07  15 2.24
 
  LATTYP: Found a hexagonal cell.
 ALAT       =    10.0190000534
 C/A-ratio  =     1.1196726572
  
  Lattice vectors:
  
 A1 = (  10.0190000534,   0.0000000000,   0.0000000000)
 A2 = (  -5.0095000267,   8.6767085668,   0.0000000000)
 A3 = (   0.0000000000,   0.0000000000,  11.2180004120)


Analysis of symmetry for initial positions (statically):
=====================================================================
 Subroutine PRICEL returns:
 Original cell was already a primitive cell.
 

 Routine SETGRP: Setting up the symmetry group for a 
 hexagonal supercell.


 Subroutine GETGRP returns: Found  1 space group operations
 (whereof  1 operations were pure point group operations)
 out of a pool of 24 trial point group operations.


The static configuration has the point symmetry C_1 .


Analysis of symmetry for dynamics (positions and initial velocities):
=====================================================================
 Subroutine PRICEL returns:
 Original cell was already a primitive cell.
 

 Routine SETGRP: Setting up the symmetry group for a 
 hexagonal supercell.


 Subroutine GETGRP returns: Found  1 space group operations
 (whereof  1 operations were pure point group operations)
 out of a pool of 24 trial point group operations.


The dynamic configuration has the point symmetry C_1 .


Analysis of structural, dynamic, and magnetic symmetry:
=====================================================================
 Subroutine PRICEL returns:
 Original cell was already a primitive cell.
 

 Routine SETGRP: Setting up the symmetry group for a 
 hexagonal supercell.


 Subroutine GETGRP returns: Found  1 space group operations
 (whereof  1 operations were pure point group operations)
 out of a pool of 24 trial point group operations.


The magnetic configuration has the point symmetry C_1 .


 Subroutine INISYM returns: Found  1 space group operations
 (whereof  1 operations are pure point group operations),
 and found     1 'primitive' translations

 
 

Automatic generation of k-mesh.
 generate k-points for:    2    2    2
Space group operators:
 irot       det(A)        alpha          n_x          n_y          n_z        tau_x        tau_y        tau_z
    1     1.000000     0.000000     1.000000     0.000000     0.000000     0.000000     0.000000     0.000000
 
 Subroutine IBZKPT returns following result:
 ===========================================
 
 Found      8 irreducible k-points:
 
 Following reciprocal coordinates:
            Coordinates               Weight
  0.000000  0.000000  0.000000      1.000000
  0.500000 -0.000000 -0.000000      1.000000
  0.000000  0.500000  0.000000      1.000000
  0.500000  0.500000 -0.000000      1.000000
  0.000000  0.000000  0.500000      1.000000
  0.500000 -0.000000  0.500000      1.000000
  0.000000  0.500000  0.500000      1.000000
  0.500000  0.500000  0.500000      1.000000
 
 Following cartesian coordinates:
            Coordinates               Weight
  0.000000  0.000000  0.000000      1.000000
  0.049905  0.028813 -0.000000      1.000000
  0.000000  0.057626  0.000000      1.000000
  0.049905  0.086438 -0.000000      1.000000
  0.000000  0.000000  0.044571      1.000000
  0.049905  0.028813  0.044571      1.000000
  0.000000  0.057626  0.044571      1.000000
  0.049905  0.086438  0.044571      1.000000
 


--------------------------------------------------------------------------------------------------------




 Dimension of arrays:
   k-points           NKPTS =      8   k-points in BZ     NKDIM =      8   number of bands    NBANDS=    448
   number of dos      NEDOS =    301   number of ions     NIONS =     88
   non local maximal  LDIM  =      6   non local SUM 2l+1 LMDIM =     18
   total plane-waves  NPLWV = 140000
   max r-space proj   IRMAX =   1632   max aug-charges    IRDMAX=   4555
   dimension x,y,z NGX =    50 NGY =   50 NGZ =   56
   dimension x,y,z NGXF=   100 NGYF=  100 NGZF=  112
   support grid    NGXF=   100 NGYF=  100 NGZF=  112
   ions per type =              16   8  16  48
   NGX,Y,Z   is equivalent  to a cutoff of   8.30,  8.30,  8.30 a.u.
   NGXF,Y,Z  is equivalent  to a cutoff of  16.59, 16.59, 16.60 a.u.

 SYSTEM =  unknown system                          
 POSCAR =  Na Mg Mn  O                             

 Startparameter for this run:
   NWRITE =      2    write-flag & timer
   PREC   = normal    normal or accurate (medium, high low for compatibility)
   ISTART =      0    job   : 0-new  1-cont  2-samecut
   ICHARG =      1    charge: 1-file 2-atom 10-const
   ISPIN  =      2    spin polarized calculation?
   LNONCOLLINEAR =      F non collinear calculations
   LSORBIT =      F    spin-orbit coupling
   INIWAV =      1    electr: 0-lowe 1-rand  2-diag
   LASPH  =      T    aspherical Exc in radial PAW
   METAGGA=      F    non-selfconsistent MetaGGA calc.

 Electronic Relaxation 1
   ENCUT  =  400.0 eV  29.40 Ry    5.42 a.u.  16.34 16.34 18.29*2*pi/ulx,y,z
   ENINI  =  400.0     initial cutoff
   ENAUG  =  758.8 eV  augmentation charge cutoff
   NELM   =    200;   NELMIN=  6; NELMDL=-12     # of ELM steps 
   EDIFF  = 0.1E-04   stopping-criterion for ELM
   LREAL  =      T    real-space projection
   NLSPLINE    = F    spline interpolate recip. space projectors
   LCOMPAT=      F    compatible to vasp.4.4
   GGA_COMPAT  = T    GGA compatible to vasp.4.4-vasp.4.6
   LMAXPAW     = -100 max onsite density
   LMAXMIX     =    4 max onsite mixed and CHGCAR
   VOSKOWN=      0    Vosko Wilk Nusair interpolation
   ROPT   =   -0.00050  -0.00050  -0.00050  -0.00050
 Ionic relaxation
   EDIFFG = 0.1E-03   stopping-criterion for IOM
   NSW    =      1    number of steps for IOM
   NBLOCK =      1;   KBLOCK =      1    inner block; outer block 
   IBRION =     -1    ionic relax: 0-MD 1-quasi-New 2-CG
   NFREE  =      0    steps in history (QN), initial steepest desc. (CG)
   ISIF   =      2    stress and relaxation
   IWAVPR =     10    prediction:  0-non 1-charg 2-wave 3-comb
   ISYM   =      2    0-nonsym 1-usesym 2-fastsym
   LCORR  =      T    Harris-Foulkes like correction to forces

   POTIM  = 0.5000    time-step for ionic-motion
   TEIN   =    0.0    initial temperature
   TEBEG  =    0.0;   TEEND  =   0.0 temperature during run
   SMASS  =  -3.00    Nose mass-parameter (am)
   estimated Nose-frequenzy (Omega)   =  0.10E-29 period in steps =****** mass=  -0.229E-26a.u.
   SCALEE = 1.0000    scale energy and forces
   NPACO  =    256;   APACO  = 16.0  distance and # of slots for P.C.
   PSTRESS=    0.0 pullay stress

  Mass of Ions in am
   POMASS =  22.99 24.30 54.94 16.00
  Ionic Valenz
   ZVAL   =   7.00  8.00 13.00  6.00
  Atomic Wigner-Seitz radii
   RWIGS  =  -1.00 -1.00 -1.00 -1.00
  virtual crystal weights 
   VCA    =   1.00  1.00  1.00  1.00
   NELECT =     672.0000    total number of electrons
   NUPDOWN=      48.0000    fix difference up-down

 DOS related values:
   EMIN   =  10.00;   EMAX   =-10.00  energy-range for DOS
   EFERMI =   0.00
   ISMEAR =     0;   SIGMA  =   0.05  broadening in eV -4-tet -1-fermi 0-gaus

 Electronic relaxation 2 (details)
   IALGO  =     48    algorithm
   LDIAG  =      T    sub-space diagonalisation (order eigenvalues)
   LSUBROT=      F    optimize rotation matrix (better conditioning)
   TURBO    =      0    0=normal 1=particle mesh
   IRESTART =      0    0=no restart 2=restart with 2 vectors
   NREBOOT  =      0    no. of reboots
   NMIN     =      0    reboot dimension
   EREF     =   0.00    reference energy to select bands
   IMIX   =      4    mixing-type and parameters
     AMIX     =   0.40;   BMIX     =  1.00
     AMIX_MAG =   1.60;   BMIX_MAG =  1.00
     AMIN     =   0.10
     WC   =   100.;   INIMIX=   1;  MIXPRE=   1;  MAXMIX= -45

 Intra band minimization:
   WEIMIN = 0.0000     energy-eigenvalue tresh-hold
   EBREAK =  0.56E-08  absolut break condition
   DEPER  =   0.30     relativ break condition  

   TIME   =   0.40     timestep for ELM

  volume/ion in A,a.u.               =      11.08        74.78
  Fermi-wavevector in a.u.,A,eV,Ry     =   1.445993  2.732531 28.448379  2.090897
  Thomas-Fermi vector in A             =   2.564112
 
 Write flags
   LWAVE        =      F    write WAVECAR
   LDOWNSAMPLE  =      F    k-point downsampling of WAVECAR
   LCHARG       =      F    write CHGCAR
   LVTOT        =      F    write LOCPOT, total local potential
   LVHAR        =      F    write LOCPOT, Hartree potential only
   LELF         =      F    write electronic localiz. function (ELF)
   LORBIT       =     11    0 simple, 1 ext, 2 COOP (PROOUT), +10 PAW based schemes


 Dipole corrections
   LMONO  =      F    monopole corrections only (constant potential shift)
   LDIPOL =      F    correct potential (dipole corrections)
   IDIPOL =      0    1-x, 2-y, 3-z, 4-all directions 
   EPSILON=  1.0000000 bulk dielectric constant

 Exchange correlation treatment:
   GGA     =    --    GGA type
   LEXCH   =     8    internal setting for exchange type
   VOSKOWN=      0    Vosko Wilk Nusair interpolation
   LHFCALC =     F    Hartree Fock is set to
   LHFONE  =     F    Hartree Fock one center treatment
   AEXX    =    0.0000 exact exchange contribution

 Linear response parameters
   LEPSILON=     F    determine dielectric tensor
   LRPA    =     F    only Hartree local field effects (RPA)
   LNABLA  =     F    use nabla operator in PAW spheres
   LVEL    =     F    velocity operator in full k-point grid
   LINTERFAST=   F  fast interpolation
   KINTER  =     0    interpolate to denser k-point grid
   CSHIFT  =0.1000    complex shift for real part using Kramers Kronig
   OMEGAMAX=  -1.0    maximum frequency
   DEG_THRESHOLD= 0.2000000E-02 threshold for treating states as degnerate
   RTIME   =   -0.100 relaxation time in fs
  (WPLASMAI=    0.000 imaginary part of plasma frequency in eV, 0.658/RTIME)
   DFIELD  = 0.0000000 0.0000000 0.0000000 field for delta impulse in time
 
 Orbital magnetization related:
   ORBITALMAG=     F  switch on orbital magnetization
   LCHIMAG   =     F  perturbation theory with respect to B field
   DQ        =  0.001000  dq finite difference perturbation B field
   LLRAUG    =     F  two centre corrections for induced B field



--------------------------------------------------------------------------------------------------------


 Static calculation
 charge density and potential will be updated during run
 spin polarized calculation
 RMM-DIIS sequential band-by-band
 perform sub-space diagonalisation
    before iterative eigenvector-optimisation
 modified Broyden-mixing scheme, WC =      100.0
 initial mixing is a Kerker type mixing with AMIX =  0.4000 and BMIX =      1.0000
 Hartree-type preconditioning will be used
 using additional bands          112
 real space projection scheme for non local part
 use partial core corrections
 calculate Harris-corrections to forces 
   (improved forces if not selfconsistent)
 use gradient corrections 
 use of overlap-Matrix (Vanderbilt PP)
 Gauss-broadening in eV      SIGMA  =   0.05


--------------------------------------------------------------------------------------------------------


  energy-cutoff  :      400.00
  volume of cell :      975.20
      direct lattice vectors                 reciprocal lattice vectors
    10.019000053  0.000000000  0.000000000     0.099810360  0.057625538 -0.000000000
    -5.009500027  8.676708567  0.000000000     0.000000000  0.115251076  0.000000000
     0.000000000  0.000000000 11.218000412     0.000000000  0.000000000  0.089142446

  length of vectors
    10.019000053 10.019000053 11.218000412     0.115251076  0.115251076  0.089142446


 
 k-points in units of 2pi/SCALE and weight: read from INCAR                         
   0.00000000  0.00000000  0.00000000       0.125
   0.04990518  0.02881277 -0.00000000       0.125
   0.00000000  0.05762554  0.00000000       0.125
   0.04990518  0.08643831 -0.00000000       0.125
   0.00000000  0.00000000  0.04457122       0.125
   0.04990518  0.02881277  0.04457122       0.125
   0.00000000  0.05762554  0.04457122       0.125
   0.04990518  0.08643831  0.04457122       0.125
 
 k-points in reciprocal lattice and weights: read from INCAR                         
   0.00000000  0.00000000  0.00000000       0.125
   0.50000000 -0.00000000 -0.00000000       0.125
   0.00000000  0.50000000  0.00000000       0.125
   0.50000000  0.50000000 -0.00000000       0.125
   0.00000000  0.00000000  0.50000000       0.125
   0.50000000 -0.00000000  0.50000000       0.125
   0.00000000  0.50000000  0.50000000       0.125
   0.50000000  0.50000000  0.50000000       0.125
 
 position of ions in fractional coordinates (direct lattice) 
   0.73892182  0.24012331  0.25241397
   0.11416885  0.12062375  0.74528345
   0.96959609  0.77634162  0.75560525
   0.50043432  0.31172403  0.74204757
   0.27715473  0.11771300  0.25333214
   0.58998400  0.44561927  0.23655642
   0.76889629  0.09808805  0.75397305
   0.61389109  0.64871242  0.75714831
   0.60412829  0.78618851  0.24290693
   0.95385817  0.65734406  0.25178284
   0.16661423  0.47936281  0.23945890
   0.40711510  0.93875360  0.75666783
   0.93458164  0.47986893  0.73108929
   0.25545440  0.47381924  0.75692456
   0.30478724  0.79950939  0.25510429
   0.94254955  0.04082325  0.25799429
   0.62312883  0.29948453  0.99210501
   0.60627250  0.27942393  0.48948117
   0.11642975  0.29594863  0.00482015
   0.10442098  0.27898828  0.49460419
   0.12497843  0.79846868  0.01822068
   0.12298730  0.78480681  0.49724281
   0.62256195  0.79942872  0.99089838
   0.61295162  0.78393897  0.50930021
   0.94715180  0.95423973  0.99685388
   0.27742599  0.13008504  0.99961551
   0.93754783  0.94015604  0.50147885
   0.27763196  0.11953381  0.50829736
   0.44146062  0.97307175  0.00435903
   0.78163621  0.12715305  0.99988408
   0.44706585  0.95441836  0.50141289
   0.77733825  0.12090068  0.49789355
   0.45501163  0.46568350  0.00249372
   0.78767517  0.63437419  0.00475601
   0.45044135  0.45665473  0.49644498
   0.78058349  0.62027668  0.49572649
   0.95399491  0.45957980  0.00575665
   0.29457363  0.63907759  0.00572913
   0.95390232  0.45284107  0.48762701
   0.28250436  0.61223100  0.49107147
   0.11106729  0.11373495  0.08493644
   0.29797449  0.98201346  0.10356391
   0.44534079  0.30001584  0.09102513
   0.11365705  0.95749875  0.60660098
   0.29617217  0.28602436  0.60385806
   0.43929889  0.10438278  0.59657513
   0.11732638  0.96464777  0.90587445
   0.28766801  0.29107812  0.90298624
   0.43473129  0.11947157  0.90350327
   0.10633131  0.09695946  0.41606256
   0.28987876  0.95909278  0.41478872
   0.43215989  0.28315000  0.41145033
   0.61933401  0.12745732  0.08593403
   0.78437585  0.96548991  0.09350419
   0.93600278  0.29219721  0.09945088
   0.62244058  0.96843043  0.59063289
   0.79663298  0.29928054  0.58849793
   0.93266772  0.11209262  0.59034407
   0.59734306  0.97534687  0.90341412
   0.80000979  0.29604313  0.90401138
   0.94124736  0.11675165  0.91685680
   0.61664850  0.09956310  0.40512211
   0.78754574  0.94832833  0.41535566
   0.93311187  0.28622374  0.39884381
   0.61744863  0.62614988  0.09666250
   0.78488214  0.47118558  0.08956320
   0.93870246  0.79982633  0.09768764
   0.61561622  0.46560513  0.59218040
   0.78793054  0.78290171  0.59494471
   0.93324242  0.61087450  0.58292742
   0.61300223  0.47506724  0.90725616
   0.79580580  0.79136806  0.90282578
   0.93459079  0.61847992  0.91399533
   0.60128522  0.60913997  0.40347119
   0.78136767  0.46590132  0.39225707
   0.93336041  0.78101966  0.41431091
   0.11169064  0.61854446  0.10508557
   0.31087053  0.48163886  0.09783740
   0.44420222  0.80338298  0.09230165
   0.11090261  0.46365969  0.57965143
   0.29706804  0.77616183  0.59108038
   0.43479154  0.60410350  0.58599570
   0.11732569  0.47720054  0.91866640
   0.28613518  0.79615098  0.91388836
   0.44237432  0.62866120  0.91027809
   0.12271180  0.60916648  0.39750845
   0.27997479  0.44635820  0.40191833
   0.43934729  0.78284409  0.40846049
 
 position of ions in cartesian coordinates  (Angst):
   6.20036005  2.08348000  2.83158000
   0.53959300  1.04661713  8.36059000
   5.82529995  6.73609000  8.47638000
   3.45226997  2.70473857  8.32429000
   2.18712997  1.02136143  2.84188000
   3.67871997  3.86650857  2.65369000
   7.21219992  0.85108143  8.45807000
   2.90084997  5.62868857  8.49369000
   2.11434997  6.82152857  2.72493000
   6.26374000  5.70358287  2.82450000
  -0.73206003  4.15929143  2.68625000
  -0.62379997  8.14529143  8.48830000
   6.95967005  4.16368287  8.20136000
   0.18580013  4.11119143  8.49118000
  -0.95147900  6.93711000  2.86176000
   9.23889997  0.35421143  2.89418000
   4.74286000  2.59854000 11.12943441
   4.67447000  2.42448000  5.49100000
  -0.31604500  2.56786000  0.05407240
  -0.35139800  2.42070000  5.54847000
  -2.74777000  6.92808000  0.20439959
  -2.69928000  6.80954000  5.57807000
   2.23271000  6.93641000 11.11589841
   2.21402000  6.80201000  5.71333000
   4.70925000  8.27966000 11.18270721
   2.12787000  1.12871000 11.21368718
   4.68358000  8.15746000  5.62559000
   2.18279000  1.03716000  5.70208000
  -0.45160900  8.44306000  0.04889959
   7.19424000  1.10327000 11.21670000
  -0.30200600  8.28121000  5.62485000
   7.18250000  1.04902000  5.58537000
   2.22592000  4.04060000  0.02797460
   4.71382000  5.50428000  0.05335290
   2.22536000  3.96226000  5.56912000
   4.71339000  5.38196000  5.56106000
   7.25581000  3.98764000  0.06457810
  -0.25012600  5.54509000  0.06426940
   7.28864000  3.92917000  5.47020000
  -0.23656000  5.31215000  5.50884000
   0.54302800  0.98684500  0.95281700
  -1.93399003  8.52064457  1.16178000
   2.95894000  2.60315000  1.02112000
  -3.65786003  8.30793757  6.80485000
   1.53451000  2.48175000  6.77408000
   3.87843000  0.90569900  6.69238000
  -3.65691003  8.36996757 10.16210000
   1.42399000  2.52560000 10.12970000
   3.75708000  1.03662000 10.13550000
   0.57961500  0.84128900  4.66739000
  -1.90028003  8.32176857  4.65310000
   2.91137000  2.45681000  4.61565000
   5.56661000  1.10591000  0.96400800
   3.02203997  8.37727457  1.04893000
   7.91405000  2.53531000  1.11564000
   1.38487997  8.40278857  6.62572000
   6.48222000  2.59677000  6.60177000
   8.78287000  0.97259500  6.62248000
   1.09877997  8.46280057 10.13450000
   6.53227000  2.56868000 10.14120000
   8.84549000  1.01302000 10.28530000
   5.67944000  0.86388000  4.54466000
   3.13976997  8.22836857  4.65946000
   7.91501000  2.48348000  4.47423000
   3.04952000  5.43292000  1.08436000
   5.50333000  4.08834000  1.00472000
   5.39813000  6.93986000  1.09586000
   3.83541000  4.03992000  6.64308000
   3.97233000  6.79301000  6.67409000
   6.28998000  5.30038000  6.53928000
   3.76182000  4.12202000 10.17760000
   4.00882000  6.86647000 10.12790000
   6.26539000  5.36637000 10.25320000
   2.97279000  5.28533000  4.52614000
   5.49459000  4.04249000  4.40034000
   5.43882000  6.77668000  4.64774000
  -1.97957000  5.36693000  1.17885000
   0.70184200  4.17904000  1.09754000
   0.42591500  6.97072000  1.03544000
  -1.21157000  4.02304000  6.50253000
  -0.91185800  6.73453000  6.63074000
   1.32992000  5.24163000  6.57370000
  -1.21505000  4.14053000 10.30560000
  -1.12153000  6.90797000 10.25200000
   1.28287000  5.45471000 10.21150000
  -1.82217000  5.28556000  4.45925000
   0.56903600  3.87292000  4.50872000
   0.48016300  6.79251000  4.58211000
 


--------------------------------------------------------------------------------------------------------


 k-point  1 :   0.0000 0.0000 0.0000  plane waves:   17725
 k-point  2 :   0.5000-0.0000-0.0000  plane waves:   17736
 k-point  3 :   0.0000 0.5000 0.0000  plane waves:   17736
 k-point  4 :   0.5000 0.5000-0.0000  plane waves:   17736
 k-point  5 :   0.0000 0.0000 0.5000  plane waves:   17676
 k-point  6 :   0.5000-0.0000 0.5000  plane waves:   17700
 k-point  7 :   0.0000 0.5000 0.5000  plane waves:   17700
 k-point  8 :   0.5000 0.5000 0.5000  plane waves:   17700

 maximum and minimum number of plane-waves per node :     17736    17676

 maximum number of plane-waves:     17736
 maximum index in each direction: 
   IXMAX=   16   IYMAX=   16   IZMAX=   18
   IXMIN=  -16   IYMIN=  -16   IZMIN=  -18


 serial   3D FFT for wavefunctions
 parallel 3D FFT for charge:
    minimum data exchange during FFTs selected (reduces bandwidth)


 total amount of memory used by VASP MPI-rank0   104114. kBytes
=======================================================================

   base      :      30000. kBytes
   nonlr-proj:      13672. kBytes
   fftplans  :       1316. kBytes
   grid      :      22786. kBytes
   one-center:       2737. kBytes
   wavefun   :      33603. kBytes
 
     INWAV:  cpu time    0.0000: real time    0.0000
 Broyden mixing: mesh for mixing (old mesh)
   NGX = 33   NGY = 33   NGZ = 37
  (NGX  =100   NGY  =100   NGZ  =112)
  gives a total of  40293 points

 initial charge density was supplied:
 charge density of overlapping atoms calculated
 number of electron     672.0000000 magnetization      48.0000000
 keeping initial charge density in first step


--------------------------------------------------------------------------------------------------------


 Maximum index for non-local projection operator         1552
 Maximum index for augmentation-charges          253 (set IRDMAX)


--------------------------------------------------------------------------------------------------------


 First call to EWALD:  gamma=   0.179
 Maximum number of real-space cells 3x 3x 2
 Maximum number of reciprocal cells 3x 3x 3

    FEWALD:  cpu time    0.0020: real time    0.0030


--------------------------------------- Iteration      1(   1)  ---------------------------------------


    POTLOK:  cpu time    0.0675: real time    0.0706
    SETDIJ:  cpu time    2.5329: real time    2.5359
    EDDIAG:  cpu time    3.6398: real time    3.6494
  RMM-DIIS:  cpu time   10.3187: real time   10.3363
    ORTHCH:  cpu time    0.6112: real time    0.6151
       DOS:  cpu time    0.0014: real time    0.0015
    --------------------------------------------
      LOOP:  cpu time   17.1715: real time   17.2089

 eigenvalue-minimisations  :  7168
 total energy-change (2. order) : 0.1789908E+04  (-0.3591610E+05)
 number of electron     672.0000000 magnetization      48.0000000
 augmentation part      672.0000000 magnetization      48.0000000

 Free energy of the ion-electron system (eV)
  ---------------------------------------------------
  alpha Z        PSCENC =      2652.81237852
  Ewald energy   TEWEN  =    -41863.97890002
  -Hartree energ DENC   =    -25751.06864951
  -exchange      EXHF   =         0.00000000
  -V(xc)+E(xc)   XCENC  =      3606.00027660
  PAW double counting   =     55594.23204139   -59034.67079123
  entropy T*S    EENTRO =        -0.03925701
  eigenvalues    EBANDS =     -7275.57717259
  atomic energy  EATOM  =     73862.19814772
  Solvation  Ediel_sol  =         0.00000000
  ---------------------------------------------------
  free energy    TOTEN  =      1789.90807386 eV

  energy without entropy =     1789.94733088  energy(sigma->0) =     1789.92770237


--------------------------------------------------------------------------------------------------------




--------------------------------------- Iteration      1(   2)  ---------------------------------------


    EDDIAG:  cpu time    3.6134: real time    3.6213
  RMM-DIIS:  cpu time   10.2749: real time   10.3602
    ORTHCH:  cpu time    0.6046: real time    0.6090
       DOS:  cpu time    0.0010: real time    0.0010
    --------------------------------------------
      LOOP:  cpu time   14.4940: real time   14.5915

 eigenvalue-minimisations  :  7168
 total energy-change (2. order) :-0.2632227E+04  (-0.8667910E+04)
 number of electron     672.0000000 magnetization      48.0000000
 augmentation part      672.0000000 magnetization      48.0000000

 Free energy of the ion-electron system (eV)
  ---------------------------------------------------
  alpha Z        PSCENC =      2652.81237852
  Ewald energy   TEWEN  =    -41863.97890002
  -Hartree energ DENC   =    -25751.06864951
  -exchange      EXHF   =         0.00000000
  -V(xc)+E(xc)   XCENC  =      3606.00027660
  PAW double counting   =     55594.23204139   -59034.67079123
  entropy T*S    EENTRO =        -0.05071155
  eigenvalues    EBANDS =     -9907.79265290
  atomic energy  EATOM  =     73862.19814772
  Solvation  Ediel_sol  =         0.00000000
  ---------------------------------------------------
  free energy    TOTEN  =      -842.31886098 eV

  energy without entropy =     -842.26814943  energy(sigma->0) =     -842.29350521


--------------------------------------------------------------------------------------------------------




--------------------------------------- Iteration      1(   3)  ---------------------------------------


    EDDIAG:  cpu time    3.6446: real time    3.6528
  RMM-DIIS:  cpu time   10.3207: real time   10.3370
    ORTHCH:  cpu time    0.6049: real time    0.6096
       DOS:  cpu time    0.0010: real time    0.0010
    --------------------------------------------
      LOOP:  cpu time   14.5713: real time   14.6005

 eigenvalue-minimisations  :  7168
 total energy-change (2. order) : 0.3076865E+03  (-0.1556973E+04)
 number of electron     672.0000000 magnetization      48.0000000
 augmentation part      672.0000000 magnetization      48.0000000

 Free energy of the ion-electron system (eV)
  ---------------------------------------------------
  alpha Z        PSCENC =      2652.81237852
  Ewald energy   TEWEN  =    -41863.97890002
  -Hartree energ DENC   =    -25751.06864951
  -exchange      EXHF   =         0.00000000
  -V(xc)+E(xc)   XCENC  =      3606.00027660
  PAW double counting   =     55594.23204139   -59034.67079123
  entropy T*S    EENTRO =        -0.04017177
  eigenvalues    EBANDS =     -9600.11670042
  atomic energy  EATOM  =     73862.19814772
  Solvation  Ediel_sol  =         0.00000000
  ---------------------------------------------------
  free energy    TOTEN  =      -534.63236872 eV

  energy without entropy =     -534.59219695  energy(sigma->0) =     -534.61228284


--------------------------------------------------------------------------------------------------------




--------------------------------------- Iteration      1(   4)  ---------------------------------------


    EDDIAG:  cpu time    3.6392: real time    3.6470
  RMM-DIIS:  cpu time   10.2907: real time   10.3341
    ORTHCH:  cpu time    0.6110: real time    0.6155
       DOS:  cpu time    0.0007: real time    0.0007
    --------------------------------------------
      LOOP:  cpu time   14.5417: real time   14.5973

 eigenvalue-minimisations  :  7168
 total energy-change (2. order) :-0.5233684E+03  (-0.5054505E+03)
 number of electron     672.0000000 magnetization      48.0000000
 augmentation part      672.0000000 magnetization      48.0000000

 Free energy of the ion-electron system (eV)
  ---------------------------------------------------
  alpha Z        PSCENC =      2652.81237852
  Ewald energy   TEWEN  =    -41863.97890002
  -Hartree energ DENC   =    -25751.06864951
  -exchange      EXHF   =         0.00000000
  -V(xc)+E(xc)   XCENC  =      3606.00027660
  PAW double counting   =     55594.23204139   -59034.67079123
  entropy T*S    EENTRO =        -0.00000000
  eigenvalues    EBANDS =    -10123.52530061
  atomic energy  EATOM  =     73862.19814772
  Solvation  Ediel_sol  =         0.00000000
  ---------------------------------------------------
  free energy    TOTEN  =     -1058.00079715 eV

  energy without entropy =    -1058.00079715  energy(sigma->0) =    -1058.00079715


--------------------------------------------------------------------------------------------------------




--------------------------------------- Iteration      1(   5)  ---------------------------------------


    EDDIAG:  cpu time    3.6399: real time    3.6481
  RMM-DIIS:  cpu time   10.3183: real time   10.3356
    ORTHCH:  cpu time    0.6070: real time    0.6112
       DOS:  cpu time    0.0007: real time    0.0006
    --------------------------------------------
      LOOP:  cpu time   14.5659: real time   14.5955

 eigenvalue-minimisations  :  7168
 total energy-change (2. order) :-0.1472791E+03  (-0.2120890E+03)
 number of electron     672.0000000 magnetization      48.0000000
 augmentation part      672.0000000 magnetization      48.0000000

 Free energy of the ion-electron system (eV)
  ---------------------------------------------------
  alpha Z        PSCENC =      2652.81237852
  Ewald energy   TEWEN  =    -41863.97890002
  -Hartree energ DENC   =    -25751.06864951
  -exchange      EXHF   =         0.00000000
  -V(xc)+E(xc)   XCENC  =      3606.00027660
  PAW double counting   =     55594.23204139   -59034.67079123
  entropy T*S    EENTRO =        -0.00000000
  eigenvalues    EBANDS =    -10270.80441859
  atomic energy  EATOM  =     73862.19814772
  Solvation  Ediel_sol  =         0.00000000
  ---------------------------------------------------
  free energy    TOTEN  =     -1205.27991512 eV

  energy without entropy =    -1205.27991512  energy(sigma->0) =    -1205.27991512


--------------------------------------------------------------------------------------------------------




--------------------------------------- Iteration      1(   6)  ---------------------------------------


    EDDIAG:  cpu time    3.6415: real time    3.6520
  RMM-DIIS:  cpu time   10.3003: real time   10.3492
    ORTHCH:  cpu time    0.6077: real time    0.6115
       DOS:  cpu time    0.0006: real time    0.0006
    --------------------------------------------
      LOOP:  cpu time   14.5501: real time   14.6133

 eigenvalue-minimisations  :  7168
 total energy-change (2. order) :-0.2156918E+02  (-0.1147506E+03)
 number of electron     672.0000000 magnetization      48.0000000
 augmentation part      672.0000000 magnetization      48.0000000

 Free energy of the ion-electron system (eV)
  ---------------------------------------------------
  alpha Z        PSCENC =      2652.81237852
  Ewald energy   TEWEN  =    -41863.97890002
  -Hartree energ DENC   =    -25751.06864951
  -exchange      EXHF   =         0.00000000
  -V(xc)+E(xc)   XCENC  =      3606.00027660
  PAW double counting   =     55594.23204139   -59034.67079123
  entropy T*S    EENTRO =        -0.00000000
  eigenvalues    EBANDS =    -10292.37359681
  atomic energy  EATOM  =     73862.19814772
  Solvation  Ediel_sol  =         0.00000000
  ---------------------------------------------------
  free energy    TOTEN  =     -1226.84909334 eV

  energy without entropy =    -1226.84909334  energy(sigma->0) =    -1226.84909334


--------------------------------------------------------------------------------------------------------




--------------------------------------- Iteration      1(   7)  ---------------------------------------


    EDDIAG:  cpu time    3.6353: real time    3.6433
  RMM-DIIS:  cpu time   10.3161: real time   10.3387
    ORTHCH:  cpu time    0.6113: real time    0.6151
       DOS:  cpu time    0.0007: real time    0.0007
    --------------------------------------------
      LOOP:  cpu time   14.5634: real time   14.5978

 eigenvalue-minimisations  :  7168
 total energy-change (2. order) :-0.6587434E+01  (-0.7569016E+02)
 number of electron     672.0000000 magnetization      48.0000000
 augmentation part      672.0000000 magnetization      48.0000000

 Free energy of the ion-electron system (eV)
  ---------------------------------------------------
  alpha Z        PSCENC =      2652.81237852
  Ewald energy   TEWEN  =    -41863.97890002
  -Hartree energ DENC   =    -25751.06864951
  -exchange      EXHF   =         0.00000000
  -V(xc)+E(xc)   XCENC  =      3606.00027660
  PAW double counting   =     55594.23204139   -59034.67079123
  entropy T*S    EENTRO =        -0.00000000
  eigenvalues    EBANDS =    -10298.96103069
  atomic energy  EATOM  =     73862.19814772
  Solvation  Ediel_sol  =         0.00000000
  ---------------------------------------------------
  free energy    TOTEN  =     -1233.43652723 eV

  energy without entropy =    -1233.43652723  energy(sigma->0) =    -1233.43652723


--------------------------------------------------------------------------------------------------------




--------------------------------------- Iteration      1(   8)  ---------------------------------------


    EDDIAG:  cpu time    3.6316: real time    3.6440
  RMM-DIIS:  cpu time   10.2997: real time   10.3380
    ORTHCH:  cpu time    0.6092: real time    0.6129
       DOS:  cpu time    0.0007: real time    0.0007
    --------------------------------------------
      LOOP:  cpu time   14.5412: real time   14.5956

 eigenvalue-minimisations  :  7168
 total energy-change (2. order) : 0.4650470E+01  (-0.5231070E+02)
 number of electron     672.0000000 magnetization      48.0000000
 augmentation part      672.0000000 magnetization      48.0000000

 Free energy of the ion-electron system (eV)
  ---------------------------------------------------
  alpha Z        PSCENC =      2652.81237852
  Ewald energy   TEWEN  =    -41863.97890002
  -Hartree energ DENC   =    -25751.06864951
  -exchange      EXHF   =         0.00000000
  -V(xc)+E(xc)   XCENC  =      3606.00027660
  PAW double counting   =     55594.23204139   -59034.67079123
  entropy T*S    EENTRO =        -0.00000000
  eigenvalues    EBANDS =    -10294.31056022
  atomic energy  EATOM  =     73862.19814772
  Solvation  Ediel_sol  =         0.00000000
  ---------------------------------------------------
  free energy    TOTEN  =     -1228.78605675 eV

  energy without entropy =    -1228.78605675  energy(sigma->0) =    -1228.78605675


--------------------------------------------------------------------------------------------------------




--------------------------------------- Iteration      1(   9)  ---------------------------------------


    EDDIAG:  cpu time    3.6367: real time    3.6456
  RMM-DIIS:  cpu time   20.9929: real time   21.0240
    ORTHCH:  cpu time    0.6102: real time    0.6141
       DOS:  cpu time    0.0007: real time    0.0007
    --------------------------------------------
      LOOP:  cpu time   25.2405: real time   25.2844

 eigenvalue-minimisations  : 20240
 total energy-change (2. order) : 0.1790422E+02  (-0.2342650E+02)
 number of electron     672.0000000 magnetization      48.0000000
 augmentation part      672.0000000 magnetization      48.0000000

 Free energy of the ion-electron system (eV)
  ---------------------------------------------------
  alpha Z        PSCENC =      2652.81237852
  Ewald energy   TEWEN  =    -41863.97890002
  -Hartree energ DENC   =    -25751.06864951
  -exchange      EXHF   =         0.00000000
  -V(xc)+E(xc)   XCENC  =      3606.00027660
  PAW double counting   =     55594.23204139   -59034.67079123
  entropy T*S    EENTRO =        -0.00000000
  eigenvalues    EBANDS =    -10276.40634328
  atomic energy  EATOM  =     73862.19814772
  Solvation  Ediel_sol  =         0.00000000
  ---------------------------------------------------
  free energy    TOTEN  =     -1210.88183981 eV

  energy without entropy =    -1210.88183981  energy(sigma->0) =    -1210.88183981


--------------------------------------------------------------------------------------------------------




--------------------------------------- Iteration      1(  10)  ---------------------------------------


    EDDIAG:  cpu time    3.6553: real time    3.7101
  RMM-DIIS:  cpu time   21.2401: real time   21.2700
    ORTHCH:  cpu time    0.6061: real time    0.6101
       DOS:  cpu time    0.0007: real time    0.0007
    --------------------------------------------
      LOOP:  cpu time   25.5022: real time   25.5909

 eigenvalue-minimisations  : 20240
 total energy-change (2. order) :-0.3083487E+01  (-0.1028156E+01)
 number of electron     672.0000000 magnetization      48.0000000
 augmentation part      672.0000000 magnetization      48.0000000

 Free energy of the ion-electron system (eV)
  ---------------------------------------------------
  alpha Z        PSCENC =      2652.81237852
  Ewald energy   TEWEN  =    -41863.97890002
  -Hartree energ DENC   =    -25751.06864951
  -exchange      EXHF   =         0.00000000
  -V(xc)+E(xc)   XCENC  =      3606.00027660
  PAW double counting   =     55594.23204139   -59034.67079123
  entropy T*S    EENTRO =        -0.00000030
  eigenvalues    EBANDS =    -10279.48983003
  atomic energy  EATOM  =     73862.19814772
  Solvation  Ediel_sol  =         0.00000000
  ---------------------------------------------------
  free energy    TOTEN  =     -1213.96532687 eV

  energy without entropy =    -1213.96532657  energy(sigma->0) =    -1213.96532672


--------------------------------------------------------------------------------------------------------




--------------------------------------- Iteration      1(  11)  ---------------------------------------


    EDDIAG:  cpu time    3.6336: real time    3.6408
  RMM-DIIS:  cpu time   22.3623: real time   22.4206
    ORTHCH:  cpu time    0.6125: real time    0.6164
       DOS:  cpu time    0.0007: real time    0.0007
    --------------------------------------------
      LOOP:  cpu time   26.6091: real time   26.6785

 eigenvalue-minimisations  : 21643
 total energy-change (2. order) : 0.1032842E+00  (-0.9577612E-01)
 number of electron     672.0000000 magnetization      48.0000000
 augmentation part      672.0000000 magnetization      48.0000000

 Free energy of the ion-electron system (eV)
  ---------------------------------------------------
  alpha Z        PSCENC =      2652.81237852
  Ewald energy   TEWEN  =    -41863.97890002
  -Hartree energ DENC   =    -25751.06864951
  -exchange      EXHF   =         0.00000000
  -V(xc)+E(xc)   XCENC  =      3606.00027660
  PAW double counting   =     55594.23204139   -59034.67079123
  entropy T*S    EENTRO =        -0.00000025
  eigenvalues    EBANDS =    -10279.38654586
  atomic energy  EATOM  =     73862.19814772
  Solvation  Ediel_sol  =         0.00000000
  ---------------------------------------------------
  free energy    TOTEN  =     -1213.86204264 eV

  energy without entropy =    -1213.86204239  energy(sigma->0) =    -1213.86204252


--------------------------------------------------------------------------------------------------------




--------------------------------------- Iteration      1(  12)  ---------------------------------------


    EDDIAG:  cpu time    3.6399: real time    3.6486
  RMM-DIIS:  cpu time   23.5907: real time   23.6687
    ORTHCH:  cpu time    0.6126: real time    0.6165
       DOS:  cpu time    0.0008: real time    0.0008
    CHARGE:  cpu time    2.1498: real time    2.1582
    MIXING:  cpu time    0.0010: real time    0.0014
    --------------------------------------------
      LOOP:  cpu time   29.9948: real time   30.0942

 eigenvalue-minimisations  : 22797
 total energy-change (2. order) : 0.6514324E-02  (-0.6916150E-02)
 number of electron     672.0000054 magnetization      48.0000012
 augmentation part      239.0779849 magnetization      29.0519239

 Broyden mixing:
  rms(total) = 0.12571E+02    rms(broyden)= 0.12561E+02
  rms(prec ) = 0.14419E+02
  weight for this iteration     100.00

 Free energy of the ion-electron system (eV)
  ---------------------------------------------------
  alpha Z        PSCENC =      2652.81237852
  Ewald energy   TEWEN  =    -41863.97890002
  -Hartree energ DENC   =    -25751.06864951
  -exchange      EXHF   =         0.00000000
  -V(xc)+E(xc)   XCENC  =      3606.00027660
  PAW double counting   =     55594.23204139   -59034.67079123
  entropy T*S    EENTRO =        -0.00000024
  eigenvalues    EBANDS =    -10279.38003155
  atomic energy  EATOM  =     73862.19814772
  Solvation  Ediel_sol  =         0.00000000
  ---------------------------------------------------
  free energy    TOTEN  =     -1213.85552832 eV

  energy without entropy =    -1213.85552808  energy(sigma->0) =    -1213.85552820


--------------------------------------------------------------------------------------------------------




--------------------------------------- Iteration      1(  13)  ---------------------------------------


    POTLOK:  cpu time    0.0606: real time    0.0629
    SETDIJ:  cpu time    2.6978: real time    2.6992
    EDDIAG:  cpu time    3.6366: real time    3.6441
  RMM-DIIS:  cpu time   18.8698: real time   18.9447
    ORTHCH:  cpu time    0.6139: real time    0.6178
       DOS:  cpu time    0.0008: real time    0.0008
    CHARGE:  cpu time    2.1759: real time    2.1789
    MIXING:  cpu time    0.0009: real time    0.0011
    --------------------------------------------
      LOOP:  cpu time   28.0564: real time   28.1496

 eigenvalue-minimisations  : 17300
 total energy-change (2. order) : 0.2248390E+03  (-0.1381887E+03)
 number of electron     672.0000058 magnetization      48.0000014
 augmentation part      268.6109748 magnetization      26.9020271

 Broyden mixing:
  rms(total) = 0.13796E+02    rms(broyden)= 0.13793E+02
  rms(prec ) = 0.15466E+02
  weight for this iteration     100.00

 eigenvalues of (default mixing * dielectric matrix)
  average eigenvalue GAMMA=   0.3185
  0.3185

 Free energy of the ion-electron system (eV)
  ---------------------------------------------------
  alpha Z        PSCENC =      2652.81237852
  Ewald energy   TEWEN  =    -41863.97890002
  -Hartree energ DENC   =    -25081.23982843
  -exchange      EXHF   =         0.00000000
  -V(xc)+E(xc)   XCENC  =      3696.21700271
  PAW double counting   =     59906.47932707   -63331.71159304
  entropy T*S    EENTRO =        -0.08535694
  eigenvalues    EBANDS =    -10829.70770302
  atomic energy  EATOM  =     73862.19814772
  Solvation  Ediel_sol  =         0.00000000
  ---------------------------------------------------
  free energy    TOTEN  =      -989.01652544 eV

  energy without entropy =     -988.93116850  energy(sigma->0) =     -988.97384697


--------------------------------------------------------------------------------------------------------




--------------------------------------- Iteration      1(  14)  ---------------------------------------


    POTLOK:  cpu time    0.0613: real time    0.0615
    SETDIJ:  cpu time    2.6958: real time    2.7005
    EDDIAG:  cpu time    3.6384: real time    3.6459
  RMM-DIIS:  cpu time   18.5867: real time   18.7150
    ORTHCH:  cpu time    0.6122: real time    0.6162
       DOS:  cpu time    0.0007: real time    0.0007
    CHARGE:  cpu time    2.1623: real time    2.1651
    MIXING:  cpu time    0.0008: real time    0.0008
    --------------------------------------------
      LOOP:  cpu time   27.7582: real time   27.9057

 eigenvalue-minimisations  : 17781
 total energy-change (2. order) : 0.7474673E+02  (-0.1804076E+02)
 number of electron     672.0000065 magnetization      48.0000022
 augmentation part      246.7324168 magnetization      32.2580567

 Broyden mixing:
  rms(total) = 0.52494E+01    rms(broyden)= 0.52453E+01
  rms(prec ) = 0.56417E+01
  weight for this iteration     100.00

 eigenvalues of (default mixing * dielectric matrix)
  average eigenvalue GAMMA=   0.7313
  1.1012  0.3615

 Free energy of the ion-electron system (eV)
  ---------------------------------------------------
  alpha Z        PSCENC =      2652.81237852
  Ewald energy   TEWEN  =    -41863.97890002
  -Hartree energ DENC   =    -25687.38153653
  -exchange      EXHF   =         0.00000000
  -V(xc)+E(xc)   XCENC  =      3674.34082650
  PAW double counting   =     63325.96687079   -66808.34270184
  entropy T*S    EENTRO =        -0.00000000
  eigenvalues    EBANDS =    -10069.88487845
  atomic energy  EATOM  =     73862.19814772
  Solvation  Ediel_sol  =         0.00000000
  ---------------------------------------------------
  free energy    TOTEN  =      -914.26979331 eV

  energy without entropy =     -914.26979331  energy(sigma->0) =     -914.26979331


--------------------------------------------------------------------------------------------------------




--------------------------------------- Iteration      1(  15)  ---------------------------------------


    POTLOK:  cpu time    0.0613: real time    0.0618
    SETDIJ:  cpu time    2.6967: real time    2.6993
    EDDIAG:  cpu time    3.6355: real time    3.6423
  RMM-DIIS:  cpu time   19.5496: real time   19.6222
    ORTHCH:  cpu time    0.6112: real time    0.6151
       DOS:  cpu time    0.0006: real time    0.0006
    CHARGE:  cpu time    2.1816: real time    2.1846
    MIXING:  cpu time    0.0008: real time    0.0008
    --------------------------------------------
      LOOP:  cpu time   28.7373: real time   28.8266

 eigenvalue-minimisations  : 18401
 total energy-change (2. order) : 0.1308516E+02  (-0.1838176E+01)
 number of electron     672.0000063 magnetization      48.0000027
 augmentation part      249.6925285 magnetization      33.8182789

 Broyden mixing:
  rms(total) = 0.21037E+01    rms(broyden)= 0.21034E+01
  rms(prec ) = 0.21803E+01
  weight for this iteration     100.00

 eigenvalues of (default mixing * dielectric matrix)
  average eigenvalue GAMMA=   0.9754
  0.3876  0.7689  1.7697

 Free energy of the ion-electron system (eV)
  ---------------------------------------------------
  alpha Z        PSCENC =      2652.81237852
  Ewald energy   TEWEN  =    -41863.97890002
  -Hartree energ DENC   =    -25611.00097639
  -exchange      EXHF   =         0.00000000
  -V(xc)+E(xc)   XCENC  =      3706.41250790
  PAW double counting   =     67417.62944141   -70940.55084789
  entropy T*S    EENTRO =        -0.00000000
  eigenvalues    EBANDS =    -10124.70638327
  atomic energy  EATOM  =     73862.19814772
  Solvation  Ediel_sol  =         0.00000000
  ---------------------------------------------------
  free energy    TOTEN  =      -901.18463201 eV

  energy without entropy =     -901.18463201  energy(sigma->0) =     -901.18463201


--------------------------------------------------------------------------------------------------------




--------------------------------------- Iteration      1(  16)  ---------------------------------------


    POTLOK:  cpu time    0.0611: real time    0.0624
    SETDIJ:  cpu time    2.7286: real time    2.7301
    EDDIAG:  cpu time    3.6478: real time    3.6567
  RMM-DIIS:  cpu time   18.8291: real time   18.8745
    ORTHCH:  cpu time    0.6136: real time    0.6176
       DOS:  cpu time    0.0006: real time    0.0006
    CHARGE:  cpu time    2.1634: real time    2.1664
    MIXING:  cpu time    0.0010: real time    0.0010
    --------------------------------------------
      LOOP:  cpu time   28.0453: real time   28.1093

 eigenvalue-minimisations  : 17313
 total energy-change (2. order) :-0.1634345E+01  (-0.6911562E+00)
 number of electron     672.0000061 magnetization      48.0000028
 augmentation part      251.2621141 magnetization      33.8986890

 Broyden mixing:
  rms(total) = 0.13568E+01    rms(broyden)= 0.13563E+01
  rms(prec ) = 0.14556E+01
  weight for this iteration     100.00

 eigenvalues of (default mixing * dielectric matrix)
  average eigenvalue GAMMA=   0.9819
  2.0843  0.9075  0.3953  0.5404

 Free energy of the ion-electron system (eV)
  ---------------------------------------------------
  alpha Z        PSCENC =      2652.81237852
  Ewald energy   TEWEN  =    -41863.97890002
  -Hartree energ DENC   =    -25559.70069697
  -exchange      EXHF   =         0.00000000
  -V(xc)+E(xc)   XCENC  =      3707.98586190
  PAW double counting   =     70498.78049583   -74052.80061004
  entropy T*S    EENTRO =        -0.00000000
  eigenvalues    EBANDS =    -10148.11565398
  atomic energy  EATOM  =     73862.19814772
  Solvation  Ediel_sol  =         0.00000000
  ---------------------------------------------------
  free energy    TOTEN  =      -902.81897705 eV

  energy without entropy =     -902.81897705  energy(sigma->0) =     -902.81897705


--------------------------------------------------------------------------------------------------------




--------------------------------------- Iteration      1(  17)  ---------------------------------------


    POTLOK:  cpu time    0.0605: real time    0.0626
    SETDIJ:  cpu time    2.7333: real time    2.7348
    EDDIAG:  cpu time    3.6394: real time    3.6472
  RMM-DIIS:  cpu time   20.1124: real time   20.1586
    ORTHCH:  cpu time    0.6094: real time    0.6133
       DOS:  cpu time    0.0007: real time    0.0007
    CHARGE:  cpu time    2.1644: real time    2.1673
    MIXING:  cpu time    0.0010: real time    0.0011
    --------------------------------------------
      LOOP:  cpu time   29.3211: real time   29.3855

 eigenvalue-minimisations  : 18653
 total energy-change (2. order) : 0.2525966E+00  (-0.5679127E-01)
 number of electron     672.0000062 magnetization      48.0000029
 augmentation part      251.0616313 magnetization      33.8854409

 Broyden mixing:
  rms(total) = 0.72671E+00    rms(broyden)= 0.72664E+00
  rms(prec ) = 0.81609E+00
  weight for this iteration     100.00

 eigenvalues of (default mixing * dielectric matrix)
  average eigenvalue GAMMA=   1.0157
  2.2568  1.1468  0.3863  0.7145  0.5739

 Free energy of the ion-electron system (eV)
  ---------------------------------------------------
  alpha Z        PSCENC =      2652.81237852
  Ewald energy   TEWEN  =    -41863.97890002
  -Hartree energ DENC   =    -25555.13458547
  -exchange      EXHF   =         0.00000000
  -V(xc)+E(xc)   XCENC  =      3704.74202371
  PAW double counting   =     71249.77600754   -74811.08366937
  entropy T*S    EENTRO =        -0.00000000
  eigenvalues    EBANDS =    -10141.89778307
  atomic energy  EATOM  =     73862.19814772
  Solvation  Ediel_sol  =         0.00000000
  ---------------------------------------------------
  free energy    TOTEN  =      -902.56638045 eV

  energy without entropy =     -902.56638045  energy(sigma->0) =     -902.56638045


--------------------------------------------------------------------------------------------------------




--------------------------------------- Iteration      1(  18)  ---------------------------------------


    POTLOK:  cpu time    0.0612: real time    0.0616
    SETDIJ:  cpu time    2.7139: real time    2.7155
    EDDIAG:  cpu time    3.6272: real time    3.6342
  RMM-DIIS:  cpu time   19.0478: real time   19.1611
    ORTHCH:  cpu time    0.6091: real time    0.6127
       DOS:  cpu time    0.0007: real time    0.0007
    CHARGE:  cpu time    2.1590: real time    2.1694
    MIXING:  cpu time    0.0010: real time    0.0010
    --------------------------------------------
      LOOP:  cpu time   28.2198: real time   28.3561

 eigenvalue-minimisations  : 17611
 total energy-change (2. order) : 0.3613169E+00  (-0.7014248E-01)
 number of electron     672.0000062 magnetization      48.0000029
 augmentation part      250.5648960 magnetization      33.8439867

 Broyden mixing:
  rms(total) = 0.24766E+00    rms(broyden)= 0.24732E+00
  rms(prec ) = 0.25933E+00
  weight for this iteration     100.00

 eigenvalues of (default mixing * dielectric matrix)
  average eigenvalue GAMMA=   1.0265
  2.4884  1.3584  0.8541  0.3874  0.5853  0.4851

 Free energy of the ion-electron system (eV)
  ---------------------------------------------------
  alpha Z        PSCENC =      2652.81237852
  Ewald energy   TEWEN  =    -41863.97890002
[...]
   4      -0.790    -0.507     1.297     0.065     0.096     0.030
   5      -0.901    -0.967     1.868    -0.014    -0.039     0.014
   6      -0.664    -0.877     1.541     0.228     0.057    -0.077
   7      -0.792    -1.173     1.965    -0.038     0.081     0.127
   8      -0.677    -0.761     1.438     0.169     0.073    -0.020
   9      -0.356    -0.393     0.749     0.010     0.035     0.037
  10      -0.622    -0.796     1.418    -0.216    -0.052    -0.025
  11      -0.539    -1.003     1.542     0.152     0.034    -0.039
  12      -1.012    -0.897     1.908    -0.184    -0.044    -0.068
  13      -0.762    -1.015     1.777    -0.197    -0.010     0.041
  14      -0.592    -0.880     1.472    -0.096    -0.005     0.046
  15      -1.163    -0.557     1.720    -0.047     0.034    -0.096
  16      -0.689    -1.020     1.708    -0.219    -0.089    -0.075
  17       1.389     1.570    -2.959    -0.071     0.088     0.064
  18       1.473     1.384    -2.858    -0.106    -0.081    -0.083
  19       1.426     1.532    -2.957    -0.140    -0.008     0.088
  20       1.316     1.588    -2.904    -0.068     0.026    -0.176
  21       1.594     1.276    -2.870     0.041    -0.034    -0.095
  22       1.620     1.345    -2.965     0.243    -0.035     0.146
  23       1.534     1.350    -2.884     0.184    -0.045     0.004
  24       1.473     1.576    -3.048     0.199     0.014     0.122
  25       0.173    -1.337     1.164     0.099    -0.353    -0.036
  26      -0.359     0.731    -0.372    -0.798     0.465     1.591
  27      -0.976    -0.729     1.705    -0.103     0.006     1.093
  28       0.441    -0.429    -0.012    -0.445    -0.544    -1.288
  29       0.122     0.518    -0.640    -0.305     0.455     0.491
  30      -2.331     0.931     1.400     0.035    -0.493     0.853
  31      -0.715    -0.233     0.948    -0.220    -0.129    -0.194
  32       0.220    -0.912     0.691    -0.941    -1.387     0.349
  33      -0.005    -0.033     0.039     0.791     1.481     0.180
  34       0.440    -0.678     0.237     1.068     0.433    -0.668
  35       1.029    -1.002    -0.026     0.159     0.520    -0.115
  36      -0.294    -0.196     0.489    -1.047     0.836     0.669
  37      -0.610     0.210     0.400    -0.306     0.613     0.602
  38      -0.610    -0.595     1.205     0.520     1.189    -1.303
  39       0.113     0.068    -0.181    -0.829    -0.382    -0.683
  40       0.806    -1.992     1.186    -1.140    -1.564    -0.286
  41      -3.111     1.184     1.927    -5.021     2.887    -2.890
  42      -3.947     4.020    -0.073     3.677     2.484     3.247
  43       3.731    -5.661     1.930    -0.303    -5.205     1.527
  44      -0.207     0.480    -0.273    -5.734    -1.712     4.590
  45       6.566    -5.844    -0.722     0.835     4.444    -2.756
  46      -3.214     2.291     0.922     5.645    -1.811    -5.472
  47      -2.989     1.309     1.679    -4.620     3.993    -5.549
  48       4.398    -5.333     0.935     0.207    -3.823     1.930
  49      -2.004     2.897    -0.893     5.357     1.557     4.894
  50      -2.001     1.329     0.672    -5.658    -3.513     2.163
  51      -4.140     2.902     1.237     3.727    -3.213    -3.632
  52       4.850    -5.903     1.052    -1.312     4.255     1.166
  53      -5.300     4.083     1.217    -4.285     3.176    -4.590
  54      -2.605     1.673     0.932     4.878     2.636     4.628
  55       6.443    -6.308    -0.135    -0.221    -3.631     0.755
  56      -2.651     1.509     1.142    -5.345    -2.206     5.921
  57       5.614    -5.223    -0.391    -1.056     5.705    -0.138
  58      -2.492     0.644     1.848     4.052    -3.030    -3.368
  59      -3.435     3.529    -0.095    -4.389     1.215    -4.560
  60       4.913    -5.306     0.393    -1.006    -5.147     0.383
  61      -3.660    -0.026     3.686     4.943     3.290     4.066
  62      -4.049     5.088    -1.039    -5.653    -2.679     2.907
  63      -4.463     2.286     2.178     4.532    -3.682    -3.484
  64       5.964    -6.362     0.398    -0.594     3.527    -2.258
  65      -2.340     0.522     1.818    -5.557     1.873    -5.590
  66      -2.076    -0.968     3.044     5.035     2.541     4.808
  67       6.463    -5.654    -0.809    -0.887    -3.925     0.105
  68      -3.807     4.247    -0.439    -3.018    -2.616     3.813
  69       4.517    -4.977     0.461     1.175     4.628     1.741
  70      -4.333     4.121     0.211     3.675    -2.706    -2.086
  71      -3.130     3.067     0.063    -4.379     2.798    -1.970
  72       4.653    -4.422    -0.231    -0.183    -4.404    -0.407
  73      -3.634     4.038    -0.404     5.850     3.777     3.800
  74      -2.033     0.215     1.818    -5.898    -0.782     5.431
  75      -1.445     0.908     0.537     3.852    -0.782    -4.496
  76       4.066    -7.070     3.004     0.444     5.831    -0.190
  77      -1.059     0.308     0.750    -3.998     1.518    -3.660
  78      -2.374     1.006     1.368     5.664     3.039     4.551
  79       4.957    -6.167     1.211     1.186    -4.686    -3.746
  80      -4.232     4.872    -0.640    -5.025    -3.840     2.851
  81       7.047    -6.478    -0.569     0.690     4.776     0.351
  82      -3.762     3.578     0.184     4.368    -1.028    -3.729
  83      -3.845     3.192     0.652    -5.329     4.452    -2.465
  84       4.856    -5.837     0.981     2.999    -5.784    -0.735
  85      -3.318     3.465    -0.147     4.642     3.858     2.601
  86      -2.332     0.501     1.831    -4.094    -2.585     3.912
  87      -3.470    -0.489     3.959     3.620    -2.448    -5.348
  88       5.207    -6.571     1.364     0.363     4.569     1.002
 ---------------------------------------------------------------------


 Total hyperfine coupling parameters after diagonalization (MHz)
 (convention: |A_zz| > |A_xx| > |A_yy|)
 ----------------------------------------------------------------------
  ion      A_xx      A_yy      A_zz     asymmetry (A_yy - A_xx)/ A_zz 
 ----------------------------------------------------------------------
   1       1.906     1.448     3.873      -0.118
   2       2.303     1.791     4.534      -0.113
   3       2.114     1.863     4.156      -0.060
   4       1.837     1.524     3.633      -0.086
   5       0.110     0.039     2.877      -0.025
   6       2.322     1.815     4.385      -0.116
   7      -0.471    -0.079     2.684       0.146
   8       2.077     1.728     4.064      -0.086
   9       1.559     1.518     2.666      -0.016
  10       2.112     1.646     4.008      -0.116
  11       1.730     1.174     3.766      -0.147
  12       0.207    -0.181     2.879      -0.135
  13       0.418    -0.051     2.850      -0.165
  14       1.561     1.214     3.597      -0.096
  15       2.602     1.993     4.884      -0.125
  16       1.603     1.052     3.898      -0.141
  17      15.029    10.701    15.257      -0.284
  18      13.494     9.315    13.720      -0.305
  19      15.370    11.081    15.670      -0.274
  20      13.972     9.761    14.283      -0.295
  21      13.185     9.041    13.513      -0.307
  22      14.707    10.528    15.261      -0.274
  23      13.072     8.951    13.484      -0.306
  24      16.197    11.826    16.610      -0.263
  25      98.370    96.961    99.583      -0.014
  26      97.193    95.209    99.100      -0.020
  27      94.588    94.327    97.644      -0.003
  28      96.401    94.028    96.889      -0.024
  29      94.998    93.613    95.411      -0.015
  30      99.308    96.587   101.071      -0.027
  31      97.905    97.247    99.052      -0.007
  32      97.692    96.721   100.389      -0.010
  33      95.402    93.968    97.334      -0.015
  34      95.101    92.871    95.618      -0.023
  35      93.612    92.774    95.063      -0.009
  36      97.135    94.572    97.385      -0.026
  37      95.193    93.906    96.006      -0.013
  38      96.044    94.057    98.283      -0.020
  39      97.735    96.161    98.404      -0.016
  40      96.612    94.072    99.302      -0.026
  41       7.174     1.567    15.520      -0.361
  42       7.709     3.854    17.059      -0.226
  43       4.064     0.224    14.473      -0.265
  44       4.504     0.001    14.741      -0.305
  45       6.098    -0.352    15.896      -0.406
  46       5.696     1.061    17.654      -0.263
  47       3.422     1.375    17.275      -0.118
  48       6.182     0.996    13.980      -0.371
  49       6.199     3.056    17.956      -0.175
  50       5.468    -0.053    14.264      -0.387
  51       5.401     0.882    14.869      -0.304
  52       6.405     1.005    15.146      -0.357
  53       5.219     0.142    16.773      -0.303
  54       2.778    -0.291    14.093      -0.218
  55       6.752     2.016    16.490      -0.287
  56       4.257     0.334    16.782      -0.234
  57       2.942     1.256    15.787      -0.107
  58       3.991     0.515    13.061      -0.266
  59       1.644    -1.641    12.367      -0.266
  60       3.274     0.813    14.577      -0.169
  61       7.209     1.735    17.639      -0.310
  62       9.183     4.339    20.551      -0.236
  63       4.913    -1.016    14.485      -0.409
  64       9.588     3.299    18.203      -0.345
  65       4.101    -1.181    15.228      -0.347
  66       4.908    -0.119    15.341      -0.328
  67       8.441     5.215    19.173      -0.168
  68       4.991     2.008    15.070      -0.198
  69       6.451     3.303    16.630      -0.189
  70       5.662    -0.058    13.034      -0.439
  71       6.565     1.553    14.189      -0.353
  72       6.836     5.009    16.792      -0.109
  73       4.164    -0.524    16.546      -0.283
  74       8.183     0.928    17.457      -0.416
  75       4.198     0.192    12.182      -0.329
  76       6.735     1.902    18.407      -0.263
  77       3.828     0.532    11.644      -0.283
  78       6.415     2.290    17.995      -0.229
  79       6.733    -0.045    16.529      -0.410
  80       7.044     1.123    17.543      -0.338
  81       4.655     1.009    16.910      -0.216
  82       5.895     1.715    15.185      -0.275
  83       7.559     0.542    16.859      -0.416
  84       5.836     1.924    18.212      -0.215
  85       4.722    -0.639    13.983      -0.383
  86       5.899     2.769    15.400      -0.203
  87       5.946     2.726    17.649      -0.182
  88       4.603    -0.506    14.486      -0.353
 ---------------------------------------------------------------------



--------------------------------------------------------------------------------------------------------


 stress matrix after NEB project (eV)
    -44.82655      0.76412     -5.34427
      0.76405    -46.62590     -9.79576
     -5.32147     -9.78073    -58.59750
  FORCES: max atom, RMS     2.676108    1.084288
  FORCE total and by dimension   10.171527    2.544290
  Stress total and by dimension   88.694570   58.597498
     LOOP+:  cpu time  746.9539: real time  749.1374
    4ORBIT:  cpu time    0.0000: real time    0.0000
 


 total charge     
 
# of ion       s       p       d       tot
------------------------------------------
    1        0.053   5.997   0.000   6.050
    2        0.050   5.992   0.000   6.043
    3        0.048   5.990   0.000   6.039
    4        0.049   5.992   0.000   6.041
    5        0.049   5.992   0.000   6.041
    6        0.051   5.995   0.000   6.046
    7        0.051   5.994   0.000   6.044
    8        0.047   5.989   0.000   6.036
    9        0.044   5.986   0.000   6.030
   10        0.051   5.993   0.000   6.043
   11        0.057   6.002   0.000   6.059
   12        0.051   5.996   0.000   6.048
   13        0.052   5.996   0.000   6.048
   14        0.042   5.984   0.000   6.025
   15        0.054   5.996   0.000   6.050
   16        0.051   5.994   0.000   6.045
   17        0.150   6.131   0.087   6.368
   18        0.145   6.121   0.078   6.343
   19        0.146   6.124   0.081   6.351
   20        0.149   6.128   0.083   6.360
   21        0.150   6.129   0.084   6.363
   22        0.148   6.126   0.082   6.356
   23        0.150   6.130   0.085   6.365
   24        0.154   6.138   0.093   6.385
   25        0.379   6.465   4.840  11.684
   26        0.370   6.445   4.823  11.638
   27        0.389   6.476   4.861  11.726
   28        0.364   6.428   4.801  11.593
   29        0.382   6.469   4.846  11.698
   30        0.368   6.440   4.814  11.623
   31        0.377   6.455   4.833  11.664
   32        0.379   6.462   4.845  11.686
   33        0.374   6.451   4.828  11.653
   34        0.381   6.466   4.843  11.689
   35        0.380   6.460   4.840  11.680
   36        0.382   6.467   4.843  11.692
   37        0.370   6.440   4.813  11.624
   38        0.373   6.442   4.827  11.642
   39        0.374   6.444   4.838  11.656
   40        0.385   6.477   4.850  11.712
   41        1.600   3.535   0.000   5.135
   42        1.598   3.523   0.000   5.122
   43        1.599   3.499   0.000   5.098
   44        1.596   3.467   0.000   5.063
   45        1.596   3.471   0.000   5.067
   46        1.599   3.497   0.000   5.096
   47        1.601   3.476   0.000   5.078
   48        1.596   3.480   0.000   5.075
   49        1.601   3.495   0.000   5.096
   50        1.597   3.530   0.000   5.126
   51        1.598   3.529   0.000   5.127
   52        1.597   3.525   0.000   5.122
   53        1.602   3.519   0.000   5.121
   54        1.598   3.495   0.000   5.093
   55        1.599   3.483   0.000   5.082
   56        1.601   3.511   0.000   5.112
   57        1.600   3.471   0.000   5.072
   58        1.596   3.505   0.000   5.101
   59        1.598   3.481   0.000   5.079
   60        1.599   3.483   0.000   5.082
   61        1.598   3.524   0.000   5.123
   62        1.602   3.522   0.000   5.124
   63        1.601   3.527   0.000   5.128
   64        1.599   3.503   0.000   5.102
   65        1.600   3.495   0.000   5.095
   66        1.597   3.516   0.000   5.113
   67        1.601   3.507   0.000   5.108
   68        1.599   3.496   0.000   5.095
   69        1.600   3.519   0.000   5.119
   70        1.599   3.525   0.000   5.124
   71        1.597   3.512   0.000   5.109
   72        1.599   3.522   0.000   5.121
   73        1.599   3.495   0.000   5.094
   74        1.601   3.491   0.000   5.092
   75        1.593   3.474   0.000   5.067
   76        1.604   3.538   0.000   5.142
   77        1.592   3.513   0.000   5.105
   78        1.602   3.497   0.000   5.098
   79        1.599   3.509   0.000   5.108
   80        1.602   3.526   0.000   5.128
   81        1.601   3.476   0.000   5.078
   82        1.601   3.534   0.000   5.134
   83        1.599   3.518   0.000   5.117
   84        1.604   3.492   0.000   5.096
   85        1.598   3.516   0.000   5.114
   86        1.595   3.527   0.000   5.122
   87        1.601   3.491   0.000   5.092
   88        1.598   3.513   0.000   5.110
--------------------------------------------------
tot         84.773 416.450  78.019 579.242
 


 magnetization (x)
 
# of ion       s       p       d       tot
------------------------------------------
    1        0.002   0.000   0.000   0.002
    2        0.002   0.000   0.000   0.002
    3        0.002   0.000   0.000   0.002
    4        0.002   0.000   0.000   0.002
    5        0.001   0.000   0.000   0.001
    6        0.002   0.000   0.000   0.002
    7        0.001   0.000   0.000   0.001
    8        0.002   0.000   0.000   0.002
    9        0.001   0.001   0.000   0.002
   10        0.002   0.000   0.000   0.002
   11        0.002   0.000   0.000   0.002
   12        0.001   0.000   0.000   0.001
   13        0.001   0.000   0.000   0.001
   14        0.002   0.000   0.000   0.002
   15        0.002   0.000   0.000   0.002
   16        0.002   0.000   0.000   0.002
   17        0.008   0.003   0.001   0.011
   18        0.007   0.002   0.001   0.011
   19        0.008   0.003   0.001   0.011
   20        0.007   0.002   0.001   0.010
   21        0.007   0.002   0.001   0.010
   22        0.008   0.003   0.001   0.012
   23        0.007   0.002   0.001   0.010
   24        0.008   0.003   0.001   0.012
   25        0.016   0.031   2.751   2.797
   26        0.015   0.029   2.757   2.801
   27        0.015   0.030   2.728   2.773
   28        0.015   0.029   2.774   2.818
   29        0.015   0.031   2.731   2.777
   30        0.016   0.030   2.778   2.824
   31        0.016   0.031   2.750   2.797
   32        0.016   0.030   2.742   2.788
   33        0.015   0.029   2.755   2.799
   34        0.015   0.029   2.741   2.784
   35        0.015   0.028   2.741   2.784
   36        0.015   0.030   2.747   2.792
   37        0.015   0.029   2.762   2.806
   38        0.015   0.029   2.756   2.800
   39        0.015   0.029   2.747   2.790
   40        0.015   0.031   2.737   2.783
   41        0.002   0.047   0.000   0.049
   42        0.002   0.053   0.000   0.055
   43        0.002   0.025   0.000   0.027
   44        0.002   0.016   0.000   0.018
   45        0.002   0.029   0.000   0.031
   46        0.002   0.038   0.000   0.040
   47        0.002   0.022   0.000   0.024
   48        0.002   0.025   0.000   0.027
   49        0.002   0.043   0.000   0.045
   50        0.002   0.037   0.000   0.038
   51        0.002   0.034   0.000   0.035
   52        0.002   0.038   0.000   0.040
   53        0.002   0.037   0.000   0.038
   54        0.002   0.015   0.000   0.016
   55        0.002   0.027   0.000   0.030
   56        0.002   0.034   0.000   0.036
   57        0.002   0.016   0.000   0.018
   58        0.002   0.026   0.000   0.028
   59        0.001   0.005   0.000   0.006
   60        0.002   0.017   0.000   0.019
   61        0.002   0.052   0.000   0.055
   62        0.003   0.058   0.000   0.061
   63        0.002   0.027   0.000   0.029
   64        0.003   0.050   0.000   0.053
   65        0.002   0.021   0.000   0.022
   66        0.002   0.035   0.000   0.037
   67        0.003   0.052   0.000   0.055
   68        0.002   0.033   0.000   0.034
   69        0.002   0.042   0.000   0.044
   70        0.002   0.025   0.000   0.027
   71        0.002   0.033   0.000   0.035
   72        0.002   0.052   0.000   0.054
   73        0.002   0.032   0.000   0.034
   74        0.002   0.044   0.000   0.046
   75        0.002   0.015   0.000   0.017
   76        0.002   0.061   0.000   0.063
   77        0.002   0.014   0.000   0.016
   78        0.002   0.048   0.000   0.051
   79        0.002   0.042   0.000   0.043
   80        0.002   0.045   0.000   0.047
   81        0.002   0.023   0.000   0.025
   82        0.002   0.040   0.000   0.042
   83        0.002   0.048   0.000   0.050
   84        0.002   0.033   0.000   0.035
   85        0.002   0.021   0.000   0.023
   86        0.002   0.043   0.000   0.045
   87        0.002   0.043   0.000   0.045
   88        0.002   0.028   0.000   0.030
--------------------------------------------------
tot          0.422   2.141  44.005  46.568
 

 total amount of memory used by VASP MPI-rank0   104114. kBytes
=======================================================================

   base      :      30000. kBytes
   nonlr-proj:      13672. kBytes
   fftplans  :       1316. kBytes
   grid      :      22786. kBytes
   one-center:       2737. kBytes
   wavefun   :      33603. kBytes
 
  
  
 General timing and accounting informations for this job:
 ========================================================
  
                  Total CPU time used (sec):      760.385
                            User time (sec):      755.830
                          System time (sec):        4.555
                         Elapsed time (sec):      763.885
  
                   Maximum memory used (kb):      197216.
                   Average memory used (kb):           0.
  
                          Minor page faults:       314615
                          Major page faults:            0
                 Voluntary context switches:         4345
