 vasp.5.4.4.18Apr17-6-g9f103f2a35 (build Dec 02 2020 12:53:39) complex          
  
 executed on             LinuxIFC date 2021.08.02  23:19:16
 running on   96 total cores
 distrk:  each k-point on   96 cores,    1 groups
 distr:  one band on NCORES_PER_BAND=   1 cores,   96 groups


--------------------------------------------------------------------------------------------------------


 INCAR:
 POTCAR:    PAW_PBE Na_pv 19Sep2006               
 POTCAR:    PAW_PBE Mg_pv 13Apr2007               
 POTCAR:    PAW_PBE Mn_pv 02Aug2007               
 POTCAR:    PAW_PBE O 08Apr2002                   

 ----------------------------------------------------------------------------- 
|                                                                             |
|           W    W    AA    RRRRR   N    N  II  N    N   GGGG   !!!           |
|           W    W   A  A   R    R  NN   N  II  NN   N  G    G  !!!           |
|           W    W  A    A  R    R  N N  N  II  N N  N  G       !!!           |
|           W WW W  AAAAAA  RRRRR   N  N N  II  N  N N  G  GGG   !            |
|           WW  WW  A    A  R   R   N   NN  II  N   NN  G    G                |
|           W    W  A    A  R    R  N    N  II  N    N   GGGG   !!!           |
|                                                                             |
|      For optimal performance we recommend to set                            |
|        NCORE= 4 - approx SQRT( number of cores)                             |
|      NCORE specifies how many cores store one orbital (NPAR=cpu/NCORE).     |
|      This setting can  greatly improve the performance of VASP for DFT.     |
|      The default,   NCORE=1            might be grossly inefficient         |
|      on modern multi-core architectures or massively parallel machines.     |
|      Do your own testing !!!!                                               |
|      Unfortunately you need to use the default for GW and RPA calculations. |
|      (for HF NCORE is supported but not extensively tested yet)             |
|                                                                             |
 ----------------------------------------------------------------------------- 

 POTCAR:    PAW_PBE Na_pv 19Sep2006               
   VRHFIN =Na: p6s1                                                             
   LEXCH  = PE                                                                  
   EATOM  =   766.0439 eV,   56.3026 Ry                                         
                                                                                
   TITEL  = PAW_PBE Na_pv 19Sep2006                                             
   LULTRA =        F    use ultrasoft PP ?                                      
   IUNSCR =        1    unscreen: 0-lin 1-nonlin 2-no                           
   RPACOR =    1.800    partial core radius                                     
   POMASS =   22.990; ZVAL   =    7.000    mass and valenz                      
   RCORE  =    2.200    outmost cutoff radius                                   
   RWIGS  =    2.200; RWIGS  =    1.164    wigner-seitz radius (au A)           
   ENMAX  =  259.561; ENMIN  =  194.671 eV                                      
   ICORE  =        2    local potential                                         
   LCOR   =        T    correct aug charges                                     
   LPAW   =        T    paw PP                                                  
   EAUG   =  368.056                                                            
   DEXC   =    0.000                                                            
   RMAX   =    2.245    core radius for proj-oper                               
   RAUG   =    1.300    factor for augmentation sphere                          
   RDEP   =    2.259    radius for radial grids                                 
   RDEPT  =    1.738    core radius for aug-charge                              
                                                                                
   Atomic configuration                                                         
    5 entries                                                                   
     n  l   j            E        occ.                                          
     1  0  0.50     -1033.6933   2.0000                                         
     2  0  0.50       -56.7526   2.0000                                         
     2  1  1.50       -28.6721   6.0000                                         
     3  0  0.50        -2.7440   1.0000                                         
     3  2  1.50        -1.3606   0.0000                                         
   Description                                                                  
     l       E           TYP  RCUT    TYP  RCUT                                 
     1    -28.6720912     23  2.000                                             
     1      6.8029130     23  2.000                                             
     0     -2.7439560     23  2.200                                             
     0     34.0145650     23  2.200                                             
     2     -1.3605826     23  2.200                                             
  local pseudopotential read in
  partial core-charges read in
  partial kinetic energy density read in
  atomic valenz-charges read in
  non local Contribution for L=           1  read in
    real space projection operators read in
  non local Contribution for L=           1  read in
    real space projection operators read in
  non local Contribution for L=           0  read in
    real space projection operators read in
  non local Contribution for L=           0  read in
    real space projection operators read in
    PAW grid and wavefunctions read in
 
   number of l-projection  operators is LMAX  =           4
   number of lm-projection operators is LMMAX =           8
 
 POTCAR:    PAW_PBE Mg_pv 13Apr2007               
   VRHFIN =Mg: p6s2                                                             
   LEXCH  = PE                                                                  
   EATOM  =  1056.7344 eV,   77.6678 Ry                                         
                                                                                
   TITEL  = PAW_PBE Mg_pv 13Apr2007                                             
   LULTRA =        F    use ultrasoft PP ?                                      
   IUNSCR =        1    unscreen: 0-lin 1-nonlin 2-no                           
   RPACOR =    1.500    partial core radius                                     
   POMASS =   24.305; ZVAL   =    8.000    mass and valenz                      
   RCORE  =    2.000    outmost cutoff radius                                   
   RWIGS  =    2.000; RWIGS  =    1.058    wigner-seitz radius (au A)           
   ENMAX  =  403.929; ENMIN  =  302.947 eV                                      
   RCLOC  =    1.506    cutoff for local pot                                    
   LCOR   =        T    correct aug charges                                     
   LPAW   =        T    paw PP                                                  
   EAUG   =  758.780                                                            
   DEXC   =    0.000                                                            
   RMAX   =    2.045    core radius for proj-oper                               
   RAUG   =    1.300    factor for augmentation sphere                          
   RDEP   =    2.025    radius for radial grids                                 
   RDEPT  =    1.557    core radius for aug-charge                              
                                                                                
   Atomic configuration                                                         
    5 entries                                                                   
     n  l   j            E        occ.                                          
     1  0  0.50     -1259.6230   2.0000                                         
     2  0  0.50       -79.8442   2.0000                                         
     2  1  1.50       -46.6121   6.0000                                         
     3  0  0.50        -4.7055   2.0000                                         
     3  2  1.50        -1.3606   0.0000                                         
   Description                                                                  
     l       E           TYP  RCUT    TYP  RCUT                                 
     1    -46.6121073     23  1.600                                             
     1      2.7211652     23  1.600                                             
     0     -4.7054661     23  2.000                                             
     0     61.2262170     23  2.000                                             
     2     -1.3605826     23  2.000                                             
  local pseudopotential read in
  partial core-charges read in
  partial kinetic energy density read in
  atomic valenz-charges read in
  non local Contribution for L=           1  read in
    real space projection operators read in
  non local Contribution for L=           1  read in
    real space projection operators read in
  non local Contribution for L=           0  read in
    real space projection operators read in
  non local Contribution for L=           0  read in
    real space projection operators read in
  non local Contribution for L=           2  read in
    real space projection operators read in
    PAW grid and wavefunctions read in
 
   number of l-projection  operators is LMAX  =           5
   number of lm-projection operators is LMMAX =          13
 
 POTCAR:    PAW_PBE Mn_pv 02Aug2007               
   VRHFIN =Mn: 3p4s3d                                                           
   LEXCH  = PE                                                                  
   EATOM  =  2025.2664 eV,  148.8529 Ry                                         
                                                                                
   TITEL  = PAW_PBE Mn_pv 02Aug2007                                             
   LULTRA =        F    use ultrasoft PP ?                                      
   IUNSCR =        1    unscreen: 0-lin 1-nonlin 2-no                           
   RPACOR =    2.080    partial core radius                                     
   POMASS =   54.938; ZVAL   =   13.000    mass and valenz                      
   RCORE  =    2.300    outmost cutoff radius                                   
   RWIGS  =    2.500; RWIGS  =    1.323    wigner-seitz radius (au A)           
   ENMAX  =  269.864; ENMIN  =  202.398 eV                                      
   ICORE  =        3    local potential                                         
   LCOR   =        T    correct aug charges                                     
   LPAW   =        T    paw PP                                                  
   EAUG   =  569.085                                                            
   DEXC   =    0.000                                                            
   RMAX   =    2.343    core radius for proj-oper                               
   RAUG   =    1.300    factor for augmentation sphere                          
   RDEP   =    2.338    radius for radial grids                                 
   RDEPT  =    1.798    core radius for aug-charge                              
                                                                                
   Atomic configuration                                                         
    8 entries                                                                   
     n  l   j            E        occ.                                          
     1  0  0.50     -6424.8287   2.0000                                         
     2  0  0.50      -739.1154   2.0000                                         
     2  1  1.50      -625.3949   6.0000                                         
     3  0  0.50       -81.6100   2.0000                                         
     3  1  1.50       -50.4667   6.0000                                         
     3  2  2.50        -3.3745   6.0000                                         
     4  0  0.50        -4.1331   1.0000                                         
     4  3  2.50        -1.3606   0.0000                                         
   Description                                                                  
     l       E           TYP  RCUT    TYP  RCUT                                 
     1    -50.4666628     23  2.000                                             
     1     -1.3605826     23  2.000                                             
     2     -3.3744729     23  2.300                                             
     2     -4.7350555     23  2.300                                             
     0     -4.1331431     23  2.300                                             
     0      7.6656591     23  2.300                                             
     3      9.5240782     23  2.300                                             
  local pseudopotential read in
  partial core-charges read in
  partial kinetic energy density read in
  atomic valenz-charges read in
  non local Contribution for L=           1  read in
    real space projection operators read in
  non local Contribution for L=           1  read in
    real space projection operators read in
  non local Contribution for L=           2  read in
    real space projection operators read in
  non local Contribution for L=           2  read in
    real space projection operators read in
  non local Contribution for L=           0  read in
    real space projection operators read in
  non local Contribution for L=           0  read in
    real space projection operators read in
    PAW grid and wavefunctions read in
 
   number of l-projection  operators is LMAX  =           6
   number of lm-projection operators is LMMAX =          18
 
 POTCAR:    PAW_PBE O 08Apr2002                   
   VRHFIN =O: s2p4                                                              
   LEXCH  = PE                                                                  
   EATOM  =   432.3788 eV,   31.7789 Ry                                         
                                                                                
   TITEL  = PAW_PBE O 08Apr2002                                                 
   LULTRA =        F    use ultrasoft PP ?                                      
   IUNSCR =        1    unscreen: 0-lin 1-nonlin 2-no                           
   RPACOR =    1.200    partial core radius                                     
   POMASS =   16.000; ZVAL   =    6.000    mass and valenz                      
   RCORE  =    1.520    outmost cutoff radius                                   
   RWIGS  =    1.550; RWIGS  =    0.820    wigner-seitz radius (au A)           
   ENMAX  =  400.000; ENMIN  =  300.000 eV                                      
   ICORE  =        2    local potential                                         
   LCOR   =        T    correct aug charges                                     
   LPAW   =        T    paw PP                                                  
   EAUG   =  605.392                                                            
   DEXC   =    0.000                                                            
   RMAX   =    1.553    core radius for proj-oper                               
   RAUG   =    1.300    factor for augmentation sphere                          
   RDEP   =    1.550    radius for radial grids                                 
   RDEPT  =    1.329    core radius for aug-charge                              
                                                                                
   Atomic configuration                                                         
    4 entries                                                                   
     n  l   j            E        occ.                                          
     1  0  0.50      -514.6923   2.0000                                         
     2  0  0.50       -23.9615   2.0000                                         
     2  1  0.50        -9.0305   4.0000                                         
     3  2  1.50        -9.5241   0.0000                                         
   Description                                                                  
     l       E           TYP  RCUT    TYP  RCUT                                 
     0    -23.9615318     23  1.200                                             
     0     -9.5240782     23  1.200                                             
     1     -9.0304911     23  1.520                                             
     1      8.1634956     23  1.520                                             
     2     -9.5240782      7  1.500                                             
  local pseudopotential read in
  partial core-charges read in
  partial kinetic energy density read in
  kinetic energy density of atom read in
  atomic valenz-charges read in
  non local Contribution for L=           0  read in
    real space projection operators read in
  non local Contribution for L=           0  read in
    real space projection operators read in
  non local Contribution for L=           1  read in
    real space projection operators read in
  non local Contribution for L=           1  read in
    real space projection operators read in
    PAW grid and wavefunctions read in
 
   number of l-projection  operators is LMAX  =           4
   number of lm-projection operators is LMMAX =           8
 
 Optimization of the real space projectors (new method)

 maximal supplied QI-value         = 17.01
 optimisation between [QCUT,QGAM] = [ 10.20, 20.41] = [ 29.16,116.64] Ry 
 Optimized for a Real-space Cutoff    1.30 Angstroem

   l    n(q)    QCUT    max X(q) W(low)/X(q) W(high)/X(q)  e(spline) 
   1      7    10.205     4.940    0.23E-03    0.84E-03    0.11E-06
   1      7    10.205     6.253    0.40E-03    0.13E-02    0.18E-06
   0      8    10.205    37.438    0.23E-03    0.37E-03    0.42E-07
   0      8    10.205     9.606    0.16E-03    0.26E-03    0.31E-07
 Optimization of the real space projectors (new method)

 maximal supplied QI-value         = 18.90
 optimisation between [QCUT,QGAM] = [ 10.20, 20.41] = [ 29.16,116.64] Ry 
 Optimized for a Real-space Cutoff    1.26 Angstroem

   l    n(q)    QCUT    max X(q) W(low)/X(q) W(high)/X(q)  e(spline) 
   1      7    10.205     2.974    0.63E-04    0.14E-03    0.13E-06
   1      7    10.205     4.279    0.11E-03    0.45E-03    0.24E-06
   0      8    10.205    16.381    0.44E-03    0.15E-03    0.55E-07
   0      8    10.205     5.611    0.31E-03    0.11E-03    0.40E-07
   2      7    10.205     4.652    0.50E-03    0.47E-03    0.57E-07
 Optimization of the real space projectors (new method)

 maximal supplied QI-value         = 16.25
 optimisation between [QCUT,QGAM] = [ 10.24, 20.48] = [ 29.35,117.42] Ry 
 Optimized for a Real-space Cutoff    1.34 Angstroem

   l    n(q)    QCUT    max X(q) W(low)/X(q) W(high)/X(q)  e(spline) 
   1      8    10.239     3.658    0.23E-03    0.30E-03    0.98E-07
   1      8    10.239     5.612    0.32E-03    0.65E-03    0.21E-06
   2      7    10.239    55.373    0.42E-03    0.45E-03    0.65E-07
   2      7    10.239    50.863    0.43E-03    0.48E-03    0.67E-07
   0      8    10.239    79.536    0.11E-03    0.21E-03    0.56E-07
   0      8    10.239    38.668    0.96E-04    0.19E-03    0.52E-07
 Optimization of the real space projectors (new method)

 maximal supplied QI-value         = 24.76
 optimisation between [QCUT,QGAM] = [ 10.15, 20.30] = [ 28.85,115.39] Ry 
 Optimized for a Real-space Cutoff    1.38 Angstroem

   l    n(q)    QCUT    max X(q) W(low)/X(q) W(high)/X(q)  e(spline) 
   0      8    10.150    20.381    0.22E-03    0.32E-03    0.29E-06
   0      8    10.150    15.268    0.23E-03    0.35E-03    0.30E-06
   1      8    10.150     5.964    0.46E-03    0.53E-03    0.21E-06
   1      8    10.150     5.382    0.38E-03    0.45E-03    0.19E-06
  PAW_PBE Na_pv 19Sep2006               :
 energy of atom  1       EATOM= -766.0439
 kinetic energy error for atom=    0.0103 (will be added to EATOM!!)
  PAW_PBE Mg_pv 13Apr2007               :
 energy of atom  2       EATOM=-1056.7344
 kinetic energy error for atom=    0.0820 (will be added to EATOM!!)
  PAW_PBE Mn_pv 02Aug2007               :
 energy of atom  3       EATOM=-2025.2664
 kinetic energy error for atom=    0.0284 (will be added to EATOM!!)
  PAW_PBE O 08Apr2002                   :
 energy of atom  4       EATOM= -432.3788
 kinetic energy error for atom=    0.1156 (will be added to EATOM!!)
 
 
 POSCAR: Na Mg Mn  O                             
  positions in cartesian coordinates
  No initial velocities read in

 METAGGA = SCAN     LMAXTAU =  6    LMIXTAU =  F

 exchange correlation table for  LEXCH =        8
   RHO(1)=    0.500       N(1)  =     2000
   RHO(2)=  100.500       N(2)  =     4000

 VTST: version 3.2, (02/03/18)

 CHAIN: initializing optimizer
 
 OPT: Using VASP Dynamics algorithm
 CHAIN: Read ICHAIN            0
 
 POSCAR: Na Mg Mn  O                             
  positions in cartesian coordinates
  No initial velocities read in
 


--------------------------------------------------------------------------------------------------------


 ion  position               nearest neighbor table
   1  0.496  0.374  0.238-  43 2.14  52 2.21  78 2.34  33 2.78  35 2.88
   2  0.535  0.240  0.732-  46 2.06  68 2.35  49 2.37
   3  0.296  0.374  0.750-  45 2.31  80 2.34  48 2.34  83 2.38
   4  0.048  0.959  0.754-  44 2.24  47 2.30  61 2.32  25 2.90  27 2.94
   5  0.062  0.115  0.257-  50 2.22  41 2.32
   6  0.832  0.256  0.252-  75 2.34  55 2.37
   7  0.537  0.765  0.751-  81 2.36
   8  0.724  0.595  0.751-  68 2.24  71 2.25  69 2.35  72 2.35
   9  0.228  0.946  0.265-  51 2.16  50 2.34
  10  0.810  0.744  0.254-  74 2.20  63 2.24  65 2.30
  11  0.025  0.586  0.257-  75 2.16  86 2.29
  12  0.315  0.901  0.753-  44 2.32  47 2.34
  13  0.056  0.494  0.754-  73 2.17  70 2.20  37 2.90  39 2.95
  14  0.813  0.091  0.748-  59 2.30  56 2.37  60 2.38  32 2.87  30 2.90
  15  0.359  0.590  0.256-  87 2.23  88 2.26  40 2.81  38 2.91
  16  0.504  0.918  0.243-  42 2.31  51 2.38  29 2.78  31 2.91
  17  0.683  0.261  0.990-  60 1.95  71 2.00  43 2.02  53 2.10  49 2.14  66 2.15
  18  0.688  0.267  0.485-  62 2.03  75 2.03  57 2.07  52 2.07  68 2.11  46 2.24  36 2.80
  19  0.178  0.255  0.016-  61 2.01  78 2.02  41 2.04  55 2.04  83 2.06  48 2.15  30 2.82
  20  0.179  0.256  0.500-  50 2.01  45 2.01  58 2.05  64 2.07  80 2.13  87 2.16  39 2.85
  21  0.181  0.759  0.007-  67 2.01  73 2.02  77 2.04  47 2.04  84 2.11  42 2.12  25 2.84  26 2.85

  22  0.202  0.771  0.511-  81 2.00  44 2.07  86 2.10  51 2.10  70 2.10  76 2.12  31 2.79  40 2.83
                            28 2.84
  23  0.681  0.751  0.002-  79 2.00  85 2.03  65 2.04  72 2.10  59 2.11  54 2.14  33 2.81  34 2.83

  24  0.677  0.758  0.488-  82 2.02  56 2.02  74 2.06  88 2.10  63 2.13  69 2.13  31 2.82  40 2.83
                            35 2.85
  25  0.016  0.921  0.011-  54 1.84  41 1.89  67 1.92  72 1.95  47 1.95  61 1.98  21 2.84  34 2.86
                             4 2.90  26 2.90  30 2.92
  26  0.350  0.086  0.994-  42 1.82  47 1.87  49 1.89  43 1.93  41 1.98  48 1.98  29 2.82  21 2.85
                            25 2.90  33 2.97
  27  0.011  0.921  0.495-  50 1.88  76 1.88  69 1.91  63 1.95  44 2.01  58 2.04  36 2.88  32 2.88
                             4 2.94  28 2.96
  28  0.351  0.098  0.508-  52 1.92  46 1.93  44 1.95  51 1.96  50 1.97  45 1.97  22 2.84  35 2.88
                            27 2.96  31 2.96
  29  0.518  0.929  0.995-  59 1.90  79 1.91  49 1.93  53 1.94  84 1.95  42 1.95  16 2.78  26 2.82
                            30 2.91  38 2.96
  30  0.853  0.095  0.005-  55 1.87  60 1.88  59 1.94  53 1.96  61 1.96  54 1.97  19 2.82  37 2.87
                            14 2.90  29 2.91  25 2.92
  31  0.524  0.930  0.502-  56 1.82  62 1.86  88 1.92  51 1.93  46 1.98  81 2.04  32 2.79  22 2.79
                            24 2.82  40 2.90  16 2.91  28 2.96
  32  0.845  0.087  0.495-  56 1.85  64 1.87  57 1.88  58 1.89  62 1.93  63 2.06  31 2.79  14 2.87
                            27 2.88  39 2.94
  33  0.511  0.428  0.994-  48 1.86  78 1.88  85 1.89  71 1.92  43 1.95  65 2.01   1 2.78  23 2.81
                            38 2.85  34 2.92  26 2.97
  34  0.847  0.592  0.001-  72 1.87  67 1.90  66 1.91  65 1.93  73 1.94  71 1.97  23 2.83  25 2.86
                            37 2.92  33 2.92
  35  0.519  0.429  0.491-  52 1.89  45 1.89  87 1.89  82 1.93  74 1.93  68 2.12  24 2.85  28 2.88
                             1 2.88  40 2.89  36 2.93
  36  0.856  0.590  0.503-  70 1.88  68 1.91  76 1.92  75 1.96  74 1.96  69 1.98  18 2.80  39 2.85
                            27 2.88  35 2.93
  37  0.018  0.426  0.007-  66 1.85  73 1.89  83 1.91  77 1.96  60 1.96  55 1.99  38 2.82  30 2.87
                            13 2.90  34 2.92
  38  0.343  0.588  0.997-  84 1.89  83 1.89  77 1.89  79 1.94  85 1.96  78 2.00  37 2.82  33 2.85
                            15 2.91  29 2.96
  39  0.021  0.426  0.496-  70 1.81  57 1.90  80 1.92  64 1.97  86 1.97  75 2.02  36 2.85  20 2.85
                            40 2.88  32 2.94  13 2.95
  40  0.352  0.595  0.506-  88 1.87  82 1.87  80 1.89  81 1.89  86 2.00  87 2.01  15 2.81  24 2.83
                            22 2.83  39 2.88  35 2.89  31 2.90
  41  0.186  0.076  0.097-  25 1.89  26 1.98  19 2.04   5 2.32
  42  0.367  0.950  0.091-  26 1.82  29 1.95  21 2.12  16 2.31
  43  0.509  0.259  0.081-  26 1.93  33 1.95  17 2.02   1 2.14
  44  0.181  0.940  0.601-  28 1.95  27 2.01  22 2.07   4 2.24  12 2.32
  45  0.363  0.278  0.589-  35 1.89  28 1.97  20 2.01   3 2.31
  46  0.506  0.084  0.600-  28 1.93  31 1.98   2 2.06  18 2.24
  47  0.181  0.932  0.911-  26 1.87  25 1.95  21 2.04   4 2.30  12 2.34
  48  0.359  0.264  0.908-  33 1.86  26 1.98  19 2.15   3 2.34
  49  0.498  0.075  0.896-  26 1.89  29 1.93  17 2.14   2 2.37
  50  0.178  0.081  0.413-  27 1.88  28 1.97  20 2.01   5 2.22   9 2.34
  51  0.373  0.950  0.408-  31 1.93  28 1.96  22 2.10   9 2.16  16 2.38
  52  0.497  0.257  0.405-  35 1.89  28 1.92  18 2.07   1 2.21
  53  0.681  0.085  0.094-  29 1.94  30 1.96  17 2.10
  54  0.867  0.935  0.097-  25 1.84  30 1.97  23 2.14
  55  0.997  0.251  0.104-  30 1.87  37 1.99  19 2.04   6 2.37
  56  0.685  0.934  0.581-  31 1.82  32 1.85  24 2.02  14 2.37
  57  0.860  0.256  0.579-  32 1.88  39 1.90  18 2.07
  58  0.997  0.084  0.593-  32 1.89  27 2.04  20 2.05
  59  0.687  0.938  0.910-  29 1.90  30 1.94  23 2.11  14 2.30
  60  0.856  0.254  0.915-  30 1.88  17 1.95  37 1.96  14 2.38
  61  0.018  0.087  0.915-  30 1.96  25 1.98  19 2.01   4 2.32
  62  0.677  0.080  0.406-  31 1.86  32 1.93  18 2.03
  63  0.863  0.931  0.387-  27 1.95  32 2.06  24 2.13  10 2.24
  64  0.999  0.248  0.405-  32 1.87  39 1.97  20 2.07
  65  0.683  0.580  0.098-  34 1.93  33 2.01  23 2.04  10 2.30
  66  0.867  0.441  0.092-  37 1.85  34 1.91  17 2.15
  67  0.002  0.749  0.097-  34 1.90  25 1.92  21 2.01
  68  0.696  0.438  0.600-  36 1.91  18 2.11  35 2.12   8 2.24   2 2.35
  69  0.856  0.761  0.591-  27 1.91  36 1.98  24 2.13   8 2.35
  70  0.013  0.574  0.583-  39 1.81  36 1.88  22 2.10  13 2.20
  71  0.678  0.434  0.905-  33 1.92  34 1.97  17 2.00   8 2.25
  72  0.866  0.756  0.910-  34 1.87  25 1.95  23 2.10   8 2.35
  73  0.010  0.581  0.916-  37 1.89  34 1.94  21 2.02  13 2.17
  74  0.693  0.584  0.402-  35 1.93  36 1.96  24 2.06  10 2.20
  75  0.864  0.441  0.393-  36 1.96  39 2.02  18 2.03  11 2.16   6 2.34
  76  0.014  0.758  0.413-  27 1.88  36 1.92  22 2.12
  77  0.191  0.588  0.098-  38 1.89  37 1.96  21 2.04
  78  0.363  0.433  0.095-  33 1.88  38 2.00  19 2.02   1 2.34
  79  0.507  0.760  0.083-  29 1.91  38 1.94  23 2.00
  80  0.185  0.442  0.595-  40 1.89  39 1.92  20 2.13   3 2.34
  81  0.363  0.755  0.604-  40 1.89  22 2.00  31 2.04   7 2.36
  82  0.512  0.586  0.586-  40 1.87  35 1.93  24 2.02
  83  0.177  0.425  0.914-  38 1.89  37 1.91  19 2.06   3 2.38
  84  0.357  0.754  0.908-  38 1.89  29 1.95  21 2.11
  85  0.507  0.586  0.904-  33 1.89  38 1.96  23 2.03
  86  0.188  0.593  0.403-  39 1.97  40 2.00  22 2.10  11 2.29
  87  0.365  0.440  0.401-  35 1.89  40 2.01  20 2.16  15 2.23
  88  0.487  0.756  0.406-  40 1.87  31 1.92  24 2.10  15 2.26
 
  LATTYP: Found a hexagonal cell.
 ALAT       =    10.0190000534
 C/A-ratio  =     1.1196726572
  
  Lattice vectors:
  
 A1 = (  10.0190000534,   0.0000000000,   0.0000000000)
 A2 = (  -5.0095000267,   8.6767085668,   0.0000000000)
 A3 = (   0.0000000000,   0.0000000000,  11.2180004120)


Analysis of symmetry for initial positions (statically):
=====================================================================
 Subroutine PRICEL returns:
 Original cell was already a primitive cell.
 

 Routine SETGRP: Setting up the symmetry group for a 
 hexagonal supercell.


 Subroutine GETGRP returns: Found  1 space group operations
 (whereof  1 operations were pure point group operations)
 out of a pool of 24 trial point group operations.


The static configuration has the point symmetry C_1 .


Analysis of symmetry for dynamics (positions and initial velocities):
=====================================================================
 Subroutine PRICEL returns:
 Original cell was already a primitive cell.
 

 Routine SETGRP: Setting up the symmetry group for a 
 hexagonal supercell.


 Subroutine GETGRP returns: Found  1 space group operations
 (whereof  1 operations were pure point group operations)
 out of a pool of 24 trial point group operations.


The dynamic configuration has the point symmetry C_1 .


Analysis of structural, dynamic, and magnetic symmetry:
=====================================================================
 Subroutine PRICEL returns:
 Original cell was already a primitive cell.
 

 Routine SETGRP: Setting up the symmetry group for a 
 hexagonal supercell.


 Subroutine GETGRP returns: Found  1 space group operations
 (whereof  1 operations were pure point group operations)
 out of a pool of 24 trial point group operations.


The magnetic configuration has the point symmetry C_1 .


 Subroutine INISYM returns: Found  1 space group operations
 (whereof  1 operations are pure point group operations),
 and found     1 'primitive' translations

 
 

Automatic generation of k-mesh.
 generate k-points for:    2    2    2
Space group operators:
 irot       det(A)        alpha          n_x          n_y          n_z        tau_x        tau_y        tau_z
    1     1.000000     0.000000     1.000000     0.000000     0.000000     0.000000     0.000000     0.000000
 
 Subroutine IBZKPT returns following result:
 ===========================================
 
 Found      8 irreducible k-points:
 
 Following reciprocal coordinates:
            Coordinates               Weight
  0.000000  0.000000  0.000000      1.000000
  0.500000 -0.000000 -0.000000      1.000000
  0.000000  0.500000  0.000000      1.000000
  0.500000  0.500000 -0.000000      1.000000
  0.000000  0.000000  0.500000      1.000000
  0.500000 -0.000000  0.500000      1.000000
  0.000000  0.500000  0.500000      1.000000
  0.500000  0.500000  0.500000      1.000000
 
 Following cartesian coordinates:
            Coordinates               Weight
  0.000000  0.000000  0.000000      1.000000
  0.049905  0.028813 -0.000000      1.000000
  0.000000  0.057626  0.000000      1.000000
  0.049905  0.086438 -0.000000      1.000000
  0.000000  0.000000  0.044571      1.000000
  0.049905  0.028813  0.044571      1.000000
  0.000000  0.057626  0.044571      1.000000
  0.049905  0.086438  0.044571      1.000000
 


--------------------------------------------------------------------------------------------------------




 Dimension of arrays:
   k-points           NKPTS =      8   k-points in BZ     NKDIM =      8   number of bands    NBANDS=    480
   number of dos      NEDOS =    301   number of ions     NIONS =     88
   non local maximal  LDIM  =      6   non local SUM 2l+1 LMDIM =     18
   total plane-waves  NPLWV = 140000
   max r-space proj   IRMAX =   1632   max aug-charges    IRDMAX=   4555
   dimension x,y,z NGX =    50 NGY =   50 NGZ =   56
   dimension x,y,z NGXF=   100 NGYF=  100 NGZF=  112
   support grid    NGXF=   100 NGYF=  100 NGZF=  112
   ions per type =              16   8  16  48
   NGX,Y,Z   is equivalent  to a cutoff of   8.30,  8.30,  8.30 a.u.
   NGXF,Y,Z  is equivalent  to a cutoff of  16.59, 16.59, 16.60 a.u.

 SYSTEM =  unknown system                          
 POSCAR =  Na Mg Mn  O                             

 Startparameter for this run:
   NWRITE =      2    write-flag & timer
   PREC   = normal    normal or accurate (medium, high low for compatibility)
   ISTART =      0    job   : 0-new  1-cont  2-samecut
   ICHARG =      1    charge: 1-file 2-atom 10-const
   ISPIN  =      2    spin polarized calculation?
   LNONCOLLINEAR =      F non collinear calculations
   LSORBIT =      F    spin-orbit coupling
   INIWAV =      1    electr: 0-lowe 1-rand  2-diag
   LASPH  =      T    aspherical Exc in radial PAW
   METAGGA=      F    non-selfconsistent MetaGGA calc.

 Electronic Relaxation 1
   ENCUT  =  400.0 eV  29.40 Ry    5.42 a.u.  16.34 16.34 18.29*2*pi/ulx,y,z
   ENINI  =  400.0     initial cutoff
   ENAUG  =  758.8 eV  augmentation charge cutoff
   NELM   =    200;   NELMIN=  6; NELMDL=-12     # of ELM steps 
   EDIFF  = 0.1E-04   stopping-criterion for ELM
   LREAL  =      T    real-space projection
   NLSPLINE    = F    spline interpolate recip. space projectors
   LCOMPAT=      F    compatible to vasp.4.4
   GGA_COMPAT  = T    GGA compatible to vasp.4.4-vasp.4.6
   LMAXPAW     = -100 max onsite density
   LMAXMIX     =    4 max onsite mixed and CHGCAR
   VOSKOWN=      0    Vosko Wilk Nusair interpolation
   ROPT   =   -0.00050  -0.00050  -0.00050  -0.00050
 Ionic relaxation
   EDIFFG = 0.1E-03   stopping-criterion for IOM
   NSW    =      1    number of steps for IOM
   NBLOCK =      1;   KBLOCK =      1    inner block; outer block 
   IBRION =     -1    ionic relax: 0-MD 1-quasi-New 2-CG
   NFREE  =      0    steps in history (QN), initial steepest desc. (CG)
   ISIF   =      2    stress and relaxation
   IWAVPR =     10    prediction:  0-non 1-charg 2-wave 3-comb
   ISYM   =      2    0-nonsym 1-usesym 2-fastsym
   LCORR  =      T    Harris-Foulkes like correction to forces

   POTIM  = 0.5000    time-step for ionic-motion
   TEIN   =    0.0    initial temperature
   TEBEG  =    0.0;   TEEND  =   0.0 temperature during run
   SMASS  =  -3.00    Nose mass-parameter (am)
   estimated Nose-frequenzy (Omega)   =  0.10E-29 period in steps =****** mass=  -0.229E-26a.u.
   SCALEE = 1.0000    scale energy and forces
   NPACO  =    256;   APACO  = 16.0  distance and # of slots for P.C.
   PSTRESS=    0.0 pullay stress

  Mass of Ions in am
   POMASS =  22.99 24.30 54.94 16.00
  Ionic Valenz
   ZVAL   =   7.00  8.00 13.00  6.00
  Atomic Wigner-Seitz radii
   RWIGS  =  -1.00 -1.00 -1.00 -1.00
  virtual crystal weights 
   VCA    =   1.00  1.00  1.00  1.00
   NELECT =     672.0000    total number of electrons
   NUPDOWN=      48.0000    fix difference up-down

 DOS related values:
   EMIN   =  10.00;   EMAX   =-10.00  energy-range for DOS
   EFERMI =   0.00
   ISMEAR =     0;   SIGMA  =   0.05  broadening in eV -4-tet -1-fermi 0-gaus

 Electronic relaxation 2 (details)
   IALGO  =     48    algorithm
   LDIAG  =      T    sub-space diagonalisation (order eigenvalues)
   LSUBROT=      F    optimize rotation matrix (better conditioning)
   TURBO    =      0    0=normal 1=particle mesh
   IRESTART =      0    0=no restart 2=restart with 2 vectors
   NREBOOT  =      0    no. of reboots
   NMIN     =      0    reboot dimension
   EREF     =   0.00    reference energy to select bands
   IMIX   =      4    mixing-type and parameters
     AMIX     =   0.40;   BMIX     =  1.00
     AMIX_MAG =   1.60;   BMIX_MAG =  1.00
     AMIN     =   0.10
     WC   =   100.;   INIMIX=   1;  MIXPRE=   1;  MAXMIX= -45

 Intra band minimization:
   WEIMIN = 0.0000     energy-eigenvalue tresh-hold
   EBREAK =  0.52E-08  absolut break condition
   DEPER  =   0.30     relativ break condition  

   TIME   =   0.40     timestep for ELM

  volume/ion in A,a.u.               =      11.08        74.78
  Fermi-wavevector in a.u.,A,eV,Ry     =   1.445993  2.732531 28.448379  2.090897
  Thomas-Fermi vector in A             =   2.564112
 
 Write flags
   LWAVE        =      F    write WAVECAR
   LDOWNSAMPLE  =      F    k-point downsampling of WAVECAR
   LCHARG       =      F    write CHGCAR
   LVTOT        =      F    write LOCPOT, total local potential
   LVHAR        =      F    write LOCPOT, Hartree potential only
   LELF         =      F    write electronic localiz. function (ELF)
   LORBIT       =     11    0 simple, 1 ext, 2 COOP (PROOUT), +10 PAW based schemes


 Dipole corrections
   LMONO  =      F    monopole corrections only (constant potential shift)
   LDIPOL =      F    correct potential (dipole corrections)
   IDIPOL =      0    1-x, 2-y, 3-z, 4-all directions 
   EPSILON=  1.0000000 bulk dielectric constant

 Exchange correlation treatment:
   GGA     =    --    GGA type
   LEXCH   =     8    internal setting for exchange type
   VOSKOWN=      0    Vosko Wilk Nusair interpolation
   LHFCALC =     F    Hartree Fock is set to
   LHFONE  =     F    Hartree Fock one center treatment
   AEXX    =    0.0000 exact exchange contribution

 Linear response parameters
   LEPSILON=     F    determine dielectric tensor
   LRPA    =     F    only Hartree local field effects (RPA)
   LNABLA  =     F    use nabla operator in PAW spheres
   LVEL    =     F    velocity operator in full k-point grid
   LINTERFAST=   F  fast interpolation
   KINTER  =     0    interpolate to denser k-point grid
   CSHIFT  =0.1000    complex shift for real part using Kramers Kronig
   OMEGAMAX=  -1.0    maximum frequency
   DEG_THRESHOLD= 0.2000000E-02 threshold for treating states as degnerate
   RTIME   =   -0.100 relaxation time in fs
  (WPLASMAI=    0.000 imaginary part of plasma frequency in eV, 0.658/RTIME)
   DFIELD  = 0.0000000 0.0000000 0.0000000 field for delta impulse in time
 
 Orbital magnetization related:
   ORBITALMAG=     F  switch on orbital magnetization
   LCHIMAG   =     F  perturbation theory with respect to B field
   DQ        =  0.001000  dq finite difference perturbation B field
   LLRAUG    =     F  two centre corrections for induced B field



--------------------------------------------------------------------------------------------------------


 Static calculation
 charge density and potential will be updated during run
 spin polarized calculation
 RMM-DIIS sequential band-by-band
 perform sub-space diagonalisation
    before iterative eigenvector-optimisation
 modified Broyden-mixing scheme, WC =      100.0
 initial mixing is a Kerker type mixing with AMIX =  0.4000 and BMIX =      1.0000
 Hartree-type preconditioning will be used
 using additional bands          144
 real space projection scheme for non local part
 use partial core corrections
 calculate Harris-corrections to forces 
   (improved forces if not selfconsistent)
 use gradient corrections 
 use of overlap-Matrix (Vanderbilt PP)
 Gauss-broadening in eV      SIGMA  =   0.05


--------------------------------------------------------------------------------------------------------


  energy-cutoff  :      400.00
  volume of cell :      975.20
      direct lattice vectors                 reciprocal lattice vectors
    10.019000053  0.000000000  0.000000000     0.099810360  0.057625538 -0.000000000
    -5.009500027  8.676708567  0.000000000     0.000000000  0.115251076  0.000000000
     0.000000000  0.000000000 11.218000412     0.000000000  0.000000000  0.089142446

  length of vectors
    10.019000053 10.019000053 11.218000412     0.115251076  0.115251076  0.089142446


 
 k-points in units of 2pi/SCALE and weight: read from INCAR                         
   0.00000000  0.00000000  0.00000000       0.125
   0.04990518  0.02881277 -0.00000000       0.125
   0.00000000  0.05762554  0.00000000       0.125
   0.04990518  0.08643831 -0.00000000       0.125
   0.00000000  0.00000000  0.04457122       0.125
   0.04990518  0.02881277  0.04457122       0.125
   0.00000000  0.05762554  0.04457122       0.125
   0.04990518  0.08643831  0.04457122       0.125
 
 k-points in reciprocal lattice and weights: read from INCAR                         
   0.00000000  0.00000000  0.00000000       0.125
   0.50000000 -0.00000000 -0.00000000       0.125
   0.00000000  0.50000000  0.00000000       0.125
   0.50000000  0.50000000 -0.00000000       0.125
   0.00000000  0.00000000  0.50000000       0.125
   0.50000000 -0.00000000  0.50000000       0.125
   0.00000000  0.50000000  0.50000000       0.125
   0.50000000  0.50000000  0.50000000       0.125
 
 position of ions in fractional coordinates (direct lattice) 
   0.49623282  0.37428017  0.23814494
   0.53547380  0.24012216  0.73199855
   0.29558947  0.37443675  0.74995362
   0.04805453  0.95890976  0.75424494
   0.06236160  0.11460244  0.25728382
   0.83200093  0.25579746  0.25221340
   0.53693533  0.76461828  0.75069083
   0.72408027  0.59546066  0.75079691
   0.22756917  0.94644085  0.26481457
   0.81036727  0.74400036  0.25407023
   0.02516215  0.58572705  0.25733641
   0.31477297  0.90130958  0.75273308
   0.05557640  0.49380377  0.75393739
   0.81286837  0.09083300  0.74816453
   0.35850396  0.58996927  0.25610001
   0.50375844  0.91782730  0.24297735
   0.68319976  0.26085007  0.98956106
   0.68847820  0.26742053  0.48480209
   0.17844240  0.25503911  0.01649795
   0.17886954  0.25551970  0.50023443
   0.18075266  0.75866672  0.00678370
   0.20198503  0.77084299  0.51054018
   0.68061059  0.75120421  0.00209774
   0.67697370  0.75777813  0.48756015
   0.01646630  0.92135859  0.01119620
   0.35043739  0.08636835  0.99353529
   0.01074417  0.92063597  0.49465143
   0.35127146  0.09808938  0.50782669
   0.51826486  0.92877846  0.99519519
   0.85330459  0.09471979  0.00467103
   0.52386727  0.92953911  0.50178283
   0.84516124  0.08710261  0.49450435
   0.51101624  0.42818080  0.99384767
   0.84721216  0.59194105  0.00139952
   0.51853588  0.42891725  0.49111337
   0.85603367  0.58965793  0.50271793
   0.01755624  0.42601177  0.00701020
   0.34264389  0.58823458  0.99720918
   0.02054618  0.42582737  0.49616151
   0.35214542  0.59538475  0.50642893
   0.18573058  0.07612829  0.09673114
   0.36705910  0.95023159  0.09078445
   0.50878084  0.25917662  0.08143216
   0.18121314  0.94003682  0.60061239
   0.36275688  0.27758683  0.58882776
   0.50613575  0.08438649  0.59998393
   0.18080746  0.93243037  0.91116952
   0.35928669  0.26383737  0.90806736
   0.49764320  0.07490513  0.89562307
   0.17834833  0.08061721  0.41293990
   0.37301354  0.94966017  0.40784898
   0.49705637  0.25725077  0.40519788
   0.68081183  0.08500124  0.09358352
   0.86677139  0.93464469  0.09724549
   0.99743396  0.25052818  0.10403013
   0.68476990  0.93413309  0.58144319
   0.86002728  0.25638754  0.57867978
   0.99695848  0.08419944  0.59285610
   0.68667914  0.93759823  0.90960952
   0.85592180  0.25446861  0.91496698
   0.01758932  0.08714791  0.91468173
   0.67650916  0.07972159  0.40626492
   0.86304215  0.93077340  0.38682919
   0.99906134  0.24847902  0.40500266
   0.68259695  0.57973827  0.09835264
   0.86708848  0.44098404  0.09175699
   0.00218991  0.74876550  0.09704760
   0.69567682  0.43785728  0.59961845
   0.85649757  0.76080232  0.59137277
   0.01261659  0.57400453  0.58315206
   0.67761454  0.43395949  0.90506326
   0.86594863  0.75627295  0.91022461
   0.00985115  0.58126535  0.91633978
   0.69271765  0.58411781  0.40242109
   0.86433770  0.44148308  0.39285522
   0.01421975  0.75779772  0.41346673
   0.19077994  0.58771019  0.09763148
   0.36341236  0.43289918  0.09506061
   0.50688075  0.76022722  0.08305491
   0.18522332  0.44248576  0.59491975
   0.36304156  0.75457300  0.60417452
   0.51154222  0.58615660  0.58594311
   0.17746607  0.42493533  0.91426276
   0.35710711  0.75431484  0.90779102
   0.50654883  0.58556997  0.90418075
   0.18816414  0.59289879  0.40314671
   0.36465476  0.43971974  0.40061418
   0.48706858  0.75576008  0.40642092
 
 position of ions in cartesian coordinates  (Angst):
   3.09680011  3.24752000  2.67151000
   4.16202005  2.08347000  8.21156000
   1.08577003  3.24887857  8.41298000
  -4.32220013  8.32018057  8.46112000
   0.05069995  0.99437200  2.88621000
   7.05439995  2.21948000  2.82933000
   1.54919984  6.63437000  8.42125000
   4.27160008  5.16663857  8.42244000
  -2.46117997  8.21199143  2.97069000
   4.39199992  6.45547430  2.85016000
  -2.68210005  5.08218287  2.88680000
  -1.36139997  7.82040057  8.44416000
  -1.91689003  4.28459143  8.45767000
   7.68910035  0.78813143  8.39291000
   0.63640008  5.11899143  2.87293000
   0.44929995  7.96372000  2.72572000
   5.53825000  2.26332000 11.10089641
   5.55822000  2.32033000  5.43851000
   0.51019600  2.21290000  0.18507400
   0.51206800  2.21707000  5.61163000
  -1.98958000  6.58273000  0.07609959
  -1.83785000  6.68838000  5.72724000
   3.05588000  6.51798000  0.02353250
   2.98651000  6.57502000  5.46945000
  -4.45057005  7.99436000  0.12559900
   3.07837000  0.74939300 11.14547931
  -4.50428005  7.98809000  5.54900000
   3.02801000  0.85109300  5.69680000
   0.53978000  8.05874000 11.16410000
   8.07476000  0.82185600  0.05239959
   0.59210000  8.06534000  5.62900000
   8.03133000  0.75576400  5.54735000
   2.97490000  3.71520000 11.14898361
   5.52289000  5.13610000  0.01569980
   3.04655000  3.72159000  5.50931000
   5.62271000  5.11629000  5.63949000
  -1.95821005  3.69638000  0.07864040
   0.48618800  5.10394000 11.18669301
  -1.92733005  3.69478000  5.56594000
   0.54556500  5.16598000  5.68112000
   1.47947000  0.66054300  1.08513000
  -1.08262003  8.24488257  1.01842000
   3.79913000  2.24880000  0.91350600
  -2.89354003  8.15642557  6.73767000
   2.24389000  2.40854000  6.60547000
   4.64824000  0.73219700  6.73062000
  -2.85950003  8.09042657 10.22150000
   2.27800000  2.28924000 10.18670000
   4.61065000  0.64993000 10.04710000
   1.38302000  0.69949200  4.63236000
  -1.02010003  8.23992457  4.57525000
   3.69131000  2.23209000  4.54551000
   6.39524000  0.73753100  1.04982000
   4.00207997  8.10963957  1.09090000
   8.73827000  2.17376000  1.16701000
   2.18116997  8.10520057  6.52263000
   7.33224000  2.22460000  6.49163000
   9.56673000  0.73057400  6.65066000
   2.18293997  8.13526657 10.20400000
   7.30072000  2.20795000 10.26410000
  -0.26034005  0.75615700 10.26090000
   6.37858000  0.69172100  4.55748000
   3.98410997  8.07604957  4.33945000
   8.76484000  2.15598000  4.54332000
   3.93474000  5.03022000  1.10332000
   6.47825000  3.82629000  1.02933000
  -3.72900005  6.49682000  1.08868000
   4.77654000  3.79916000  6.72652000
   4.77001000  6.60126000  6.63402000
  -2.74907005  4.98047000  6.54180000
   4.61510000  3.76534000 10.15300000
   4.88739000  6.56196000 10.21090000
  -2.81315005  5.04347000 10.27950000
   4.01420000  5.06822000  4.51436000
   6.44819000  3.83062000  4.40705000
  -3.65372005  6.57519000  4.63827000
  -1.03271000  5.09939000  1.09523000
   1.47242000  3.75614000  1.06639000
   1.27008000  6.59627000  0.93171000
  -0.36088000  3.83932000  6.67381000
  -0.14272000  6.54721000  6.77763000
   2.18879000  5.08591000  6.57311000
  -0.35068100  3.68704000 10.25620000
  -0.20088400  6.54497000 10.18360000
   2.14170000  5.08082000 10.14310000
  -1.08491000  5.14441000  4.52250000
   1.45070000  3.81532000  4.49409000
   1.09396000  6.55751000  4.55923000
 


--------------------------------------------------------------------------------------------------------


 k-point  1 :   0.0000 0.0000 0.0000  plane waves:   17725
 k-point  2 :   0.5000-0.0000-0.0000  plane waves:   17736
 k-point  3 :   0.0000 0.5000 0.0000  plane waves:   17736
 k-point  4 :   0.5000 0.5000-0.0000  plane waves:   17736
 k-point  5 :   0.0000 0.0000 0.5000  plane waves:   17676
 k-point  6 :   0.5000-0.0000 0.5000  plane waves:   17700
 k-point  7 :   0.0000 0.5000 0.5000  plane waves:   17700
 k-point  8 :   0.5000 0.5000 0.5000  plane waves:   17700

 maximum and minimum number of plane-waves per node :     17736    17676

 maximum number of plane-waves:     17736
 maximum index in each direction: 
   IXMAX=   16   IYMAX=   16   IZMAX=   18
   IXMIN=  -16   IYMIN=  -16   IZMIN=  -18


 serial   3D FFT for wavefunctions
 parallel 3D FFT for charge:
    minimum data exchange during FFTs selected (reduces bandwidth)


 total amount of memory used by VASP MPI-rank0    94425. kBytes
=======================================================================

   base      :      30000. kBytes
   nonlr-proj:      13666. kBytes
   fftplans  :       1275. kBytes
   grid      :      22786. kBytes
   one-center:       2737. kBytes
   wavefun   :      23961. kBytes
 
     INWAV:  cpu time    0.0000: real time    0.0001
 Broyden mixing: mesh for mixing (old mesh)
   NGX = 33   NGY = 33   NGZ = 37
  (NGX  =100   NGY  =100   NGZ  =112)
  gives a total of  40293 points

 initial charge density was supplied:
 charge density of overlapping atoms calculated
 number of electron     672.0000000 magnetization      48.0000000
 keeping initial charge density in first step


--------------------------------------------------------------------------------------------------------


 Maximum index for non-local projection operator         1550
 Maximum index for augmentation-charges          504 (set IRDMAX)


--------------------------------------------------------------------------------------------------------


 First call to EWALD:  gamma=   0.179
 Maximum number of real-space cells 3x 3x 2
 Maximum number of reciprocal cells 3x 3x 3

    FEWALD:  cpu time    0.0027: real time    0.0027


--------------------------------------- Iteration      1(   1)  ---------------------------------------


    POTLOK:  cpu time    0.1919: real time    0.1938
    SETDIJ:  cpu time    4.5793: real time    4.6039
    EDDIAG:  cpu time    4.4330: real time    4.8291
  RMM-DIIS:  cpu time    9.0861: real time    9.0982
    ORTHCH:  cpu time    1.2058: real time    1.2868
       DOS:  cpu time    0.0027: real time    0.0028
    --------------------------------------------
      LOOP:  cpu time   19.4988: real time   20.0146

 eigenvalue-minimisations  :  7680
 total energy-change (2. order) : 0.1592516E+04  (-0.3496240E+05)
 number of electron     672.0000000 magnetization      48.0000000
 augmentation part      672.0000000 magnetization      48.0000000

 Free energy of the ion-electron system (eV)
  ---------------------------------------------------
  alpha Z        PSCENC =      2652.81237852
  Ewald energy   TEWEN  =    -41879.47894193
  -Hartree energ DENC   =    -25735.28641922
  -exchange      EXHF   =         0.00000000
  -V(xc)+E(xc)   XCENC  =      3605.86068665
  PAW double counting   =     55594.23204139   -59034.67079123
  entropy T*S    EENTRO =        -0.04914753
  eigenvalues    EBANDS =     -7473.10190558
  atomic energy  EATOM  =     73862.19814772
  Solvation  Ediel_sol  =         0.00000000
  ---------------------------------------------------
  free energy    TOTEN  =      1592.51604879 eV

  energy without entropy =     1592.56519632  energy(sigma->0) =     1592.54062255


--------------------------------------------------------------------------------------------------------




--------------------------------------- Iteration      1(   2)  ---------------------------------------


    EDDIAG:  cpu time    4.4046: real time    4.7955
  RMM-DIIS:  cpu time    9.0521: real time    9.0997
    ORTHCH:  cpu time    1.1753: real time    1.2519
       DOS:  cpu time    0.0018: real time    0.0018
    --------------------------------------------
      LOOP:  cpu time   14.6338: real time   15.1488

 eigenvalue-minimisations  :  7680
 total energy-change (2. order) :-0.2319197E+04  (-0.8020585E+04)
 number of electron     672.0000000 magnetization      48.0000000
 augmentation part      672.0000000 magnetization      48.0000000

 Free energy of the ion-electron system (eV)
  ---------------------------------------------------
  alpha Z        PSCENC =      2652.81237852
  Ewald energy   TEWEN  =    -41879.47894193
  -Hartree energ DENC   =    -25735.28641922
  -exchange      EXHF   =         0.00000000
  -V(xc)+E(xc)   XCENC  =      3605.86068665
  PAW double counting   =     55594.23204139   -59034.67079123
  entropy T*S    EENTRO =        -0.04458301
  eigenvalues    EBANDS =     -9792.30314403
  atomic energy  EATOM  =     73862.19814772
  Solvation  Ediel_sol  =         0.00000000
  ---------------------------------------------------
  free energy    TOTEN  =      -726.68062515 eV

  energy without entropy =     -726.63604213  energy(sigma->0) =     -726.65833364


--------------------------------------------------------------------------------------------------------




--------------------------------------- Iteration      1(   3)  ---------------------------------------


    EDDIAG:  cpu time    4.4762: real time    4.8574
  RMM-DIIS:  cpu time    9.1100: real time    9.1133
    ORTHCH:  cpu time    1.1845: real time    1.2650
       DOS:  cpu time    0.0021: real time    0.0021
    --------------------------------------------
      LOOP:  cpu time   14.7726: real time   15.2378

 eigenvalue-minimisations  :  7680
 total energy-change (2. order) : 0.8072955E+02  (-0.1420152E+04)
 number of electron     672.0000000 magnetization      48.0000000
 augmentation part      672.0000000 magnetization      48.0000000

 Free energy of the ion-electron system (eV)
  ---------------------------------------------------
  alpha Z        PSCENC =      2652.81237852
  Ewald energy   TEWEN  =    -41879.47894193
  -Hartree energ DENC   =    -25735.28641922
  -exchange      EXHF   =         0.00000000
  -V(xc)+E(xc)   XCENC  =      3605.86068665
  PAW double counting   =     55594.23204139   -59034.67079123
  entropy T*S    EENTRO =        -0.03546411
  eigenvalues    EBANDS =     -9711.58271130
  atomic energy  EATOM  =     73862.19814772
  Solvation  Ediel_sol  =         0.00000000
  ---------------------------------------------------
  free energy    TOTEN  =      -645.95107351 eV

  energy without entropy =     -645.91560940  energy(sigma->0) =     -645.93334146


--------------------------------------------------------------------------------------------------------




--------------------------------------- Iteration      1(   4)  ---------------------------------------


    EDDIAG:  cpu time    4.4186: real time    4.8229
  RMM-DIIS:  cpu time    9.0692: real time    9.0950
    ORTHCH:  cpu time    1.1829: real time    1.2611
       DOS:  cpu time    0.0013: real time    0.0013
    --------------------------------------------
      LOOP:  cpu time   14.6720: real time   15.1803

 eigenvalue-minimisations  :  7680
 total energy-change (2. order) :-0.4658964E+03  (-0.4288248E+03)
 number of electron     672.0000000 magnetization      48.0000000
 augmentation part      672.0000000 magnetization      48.0000000

 Free energy of the ion-electron system (eV)
  ---------------------------------------------------
  alpha Z        PSCENC =      2652.81237852
  Ewald energy   TEWEN  =    -41879.47894193
  -Hartree energ DENC   =    -25735.28641922
  -exchange      EXHF   =         0.00000000
  -V(xc)+E(xc)   XCENC  =      3605.86068665
  PAW double counting   =     55594.23204139   -59034.67079123
  entropy T*S    EENTRO =        -0.00000000
  eigenvalues    EBANDS =    -10177.51456963
  atomic energy  EATOM  =     73862.19814772
  Solvation  Ediel_sol  =         0.00000000
  ---------------------------------------------------
  free energy    TOTEN  =     -1111.84746773 eV

  energy without entropy =    -1111.84746773  energy(sigma->0) =    -1111.84746773


--------------------------------------------------------------------------------------------------------




--------------------------------------- Iteration      1(   5)  ---------------------------------------


    EDDIAG:  cpu time    4.4659: real time    4.8529
  RMM-DIIS:  cpu time    9.0826: real time    9.0994
    ORTHCH:  cpu time    1.1706: real time    1.2521
       DOS:  cpu time    0.0014: real time    0.0014
    --------------------------------------------
      LOOP:  cpu time   14.7205: real time   15.2058

 eigenvalue-minimisations  :  7680
 total energy-change (2. order) :-0.1040515E+03  (-0.1595944E+03)
 number of electron     672.0000000 magnetization      48.0000000
 augmentation part      672.0000000 magnetization      48.0000000

 Free energy of the ion-electron system (eV)
  ---------------------------------------------------
  alpha Z        PSCENC =      2652.81237852
  Ewald energy   TEWEN  =    -41879.47894193
  -Hartree energ DENC   =    -25735.28641922
  -exchange      EXHF   =         0.00000000
  -V(xc)+E(xc)   XCENC  =      3605.86068665
  PAW double counting   =     55594.23204139   -59034.67079123
  entropy T*S    EENTRO =        -0.00000000
  eigenvalues    EBANDS =    -10281.56602226
  atomic energy  EATOM  =     73862.19814772
  Solvation  Ediel_sol  =         0.00000000
  ---------------------------------------------------
  free energy    TOTEN  =     -1215.89892036 eV

  energy without entropy =    -1215.89892036  energy(sigma->0) =    -1215.89892036


--------------------------------------------------------------------------------------------------------




--------------------------------------- Iteration      1(   6)  ---------------------------------------


    EDDIAG:  cpu time    4.4151: real time    4.8210
  RMM-DIIS:  cpu time    9.0623: real time    9.0961
    ORTHCH:  cpu time    1.1960: real time    1.2747
       DOS:  cpu time    0.0013: real time    0.0013
    --------------------------------------------
      LOOP:  cpu time   14.6747: real time   15.1931

 eigenvalue-minimisations  :  7680
 total energy-change (2. order) :-0.8911965E+01  (-0.7902555E+02)
 number of electron     672.0000000 magnetization      48.0000000
 augmentation part      672.0000000 magnetization      48.0000000

 Free energy of the ion-electron system (eV)
  ---------------------------------------------------
  alpha Z        PSCENC =      2652.81237852
  Ewald energy   TEWEN  =    -41879.47894193
  -Hartree energ DENC   =    -25735.28641922
  -exchange      EXHF   =         0.00000000
  -V(xc)+E(xc)   XCENC  =      3605.86068665
  PAW double counting   =     55594.23204139   -59034.67079123
  entropy T*S    EENTRO =        -0.00000000
  eigenvalues    EBANDS =    -10290.47798757
  atomic energy  EATOM  =     73862.19814772
  Solvation  Ediel_sol  =         0.00000000
  ---------------------------------------------------
  free energy    TOTEN  =     -1224.81088567 eV

  energy without entropy =    -1224.81088567  energy(sigma->0) =    -1224.81088567


--------------------------------------------------------------------------------------------------------




--------------------------------------- Iteration      1(   7)  ---------------------------------------


    EDDIAG:  cpu time    4.4039: real time    4.8100
  RMM-DIIS:  cpu time    9.1097: real time    9.1168
    ORTHCH:  cpu time    1.1765: real time    1.2563
       DOS:  cpu time    0.0012: real time    0.0012
    --------------------------------------------
      LOOP:  cpu time   14.6913: real time   15.1844

 eigenvalue-minimisations  :  7680
 total energy-change (2. order) :-0.1805592E+01  (-0.4818896E+02)
 number of electron     672.0000000 magnetization      48.0000000
 augmentation part      672.0000000 magnetization      48.0000000

 Free energy of the ion-electron system (eV)
  ---------------------------------------------------
  alpha Z        PSCENC =      2652.81237852
  Ewald energy   TEWEN  =    -41879.47894193
  -Hartree energ DENC   =    -25735.28641922
  -exchange      EXHF   =         0.00000000
  -V(xc)+E(xc)   XCENC  =      3605.86068665
  PAW double counting   =     55594.23204139   -59034.67079123
  entropy T*S    EENTRO =        -0.00000000
  eigenvalues    EBANDS =    -10292.28357942
  atomic energy  EATOM  =     73862.19814772
  Solvation  Ediel_sol  =         0.00000000
  ---------------------------------------------------
  free energy    TOTEN  =     -1226.61647752 eV

  energy without entropy =    -1226.61647752  energy(sigma->0) =    -1226.61647752


--------------------------------------------------------------------------------------------------------




--------------------------------------- Iteration      1(   8)  ---------------------------------------


    EDDIAG:  cpu time    4.4279: real time    4.8225
  RMM-DIIS:  cpu time    9.0635: real time    9.1019
    ORTHCH:  cpu time    1.1919: real time    1.2717
       DOS:  cpu time    0.0017: real time    0.0017
    --------------------------------------------
      LOOP:  cpu time   14.6851: real time   15.1978

 eigenvalue-minimisations  :  7680
 total energy-change (2. order) : 0.4984248E+01  (-0.2988707E+02)
 number of electron     672.0000000 magnetization      48.0000000
 augmentation part      672.0000000 magnetization      48.0000000

 Free energy of the ion-electron system (eV)
  ---------------------------------------------------
  alpha Z        PSCENC =      2652.81237852
  Ewald energy   TEWEN  =    -41879.47894193
  -Hartree energ DENC   =    -25735.28641922
  -exchange      EXHF   =         0.00000000
  -V(xc)+E(xc)   XCENC  =      3605.86068665
  PAW double counting   =     55594.23204139   -59034.67079123
  entropy T*S    EENTRO =        -0.00000000
  eigenvalues    EBANDS =    -10287.29933158
  atomic energy  EATOM  =     73862.19814772
  Solvation  Ediel_sol  =         0.00000000
  ---------------------------------------------------
  free energy    TOTEN  =     -1221.63222968 eV

  energy without entropy =    -1221.63222968  energy(sigma->0) =    -1221.63222968


--------------------------------------------------------------------------------------------------------




--------------------------------------- Iteration      1(   9)  ---------------------------------------


    EDDIAG:  cpu time    4.4341: real time    4.8252
  RMM-DIIS:  cpu time   19.2161: real time   19.2280
    ORTHCH:  cpu time    1.1966: real time    1.2860
       DOS:  cpu time    0.0016: real time    0.0016
    --------------------------------------------
      LOOP:  cpu time   24.8483: real time   25.3407

 eigenvalue-minimisations  : 21783
 total energy-change (2. order) : 0.9238077E+01  (-0.1319267E+02)
 number of electron     672.0000000 magnetization      48.0000000
 augmentation part      672.0000000 magnetization      48.0000000

 Free energy of the ion-electron system (eV)
  ---------------------------------------------------
  alpha Z        PSCENC =      2652.81237852
  Ewald energy   TEWEN  =    -41879.47894193
  -Hartree energ DENC   =    -25735.28641922
  -exchange      EXHF   =         0.00000000
  -V(xc)+E(xc)   XCENC  =      3605.86068665
  PAW double counting   =     55594.23204139   -59034.67079123
  entropy T*S    EENTRO =        -0.00000000
  eigenvalues    EBANDS =    -10278.06125448
  atomic energy  EATOM  =     73862.19814772
  Solvation  Ediel_sol  =         0.00000000
  ---------------------------------------------------
  free energy    TOTEN  =     -1212.39415258 eV

  energy without entropy =    -1212.39415258  energy(sigma->0) =    -1212.39415258


--------------------------------------------------------------------------------------------------------




--------------------------------------- Iteration      1(  10)  ---------------------------------------


    EDDIAG:  cpu time    4.4261: real time    4.8278
  RMM-DIIS:  cpu time   17.7860: real time   17.7984
    ORTHCH:  cpu time    1.1713: real time    1.2501
       DOS:  cpu time    0.0016: real time    0.0016
    --------------------------------------------
      LOOP:  cpu time   23.3849: real time   23.8780

 eigenvalue-minimisations  : 19646
 total energy-change (2. order) :-0.1885580E+01  (-0.5271004E+00)
 number of electron     672.0000000 magnetization      48.0000000
 augmentation part      672.0000000 magnetization      48.0000000

 Free energy of the ion-electron system (eV)
  ---------------------------------------------------
  alpha Z        PSCENC =      2652.81237852
  Ewald energy   TEWEN  =    -41879.47894193
  -Hartree energ DENC   =    -25735.28641922
  -exchange      EXHF   =         0.00000000
  -V(xc)+E(xc)   XCENC  =      3605.86068665
  PAW double counting   =     55594.23204139   -59034.67079123
  entropy T*S    EENTRO =        -0.00000001
  eigenvalues    EBANDS =    -10279.94683493
  atomic energy  EATOM  =     73862.19814772
  Solvation  Ediel_sol  =         0.00000000
  ---------------------------------------------------
  free energy    TOTEN  =     -1214.27973304 eV

  energy without entropy =    -1214.27973303  energy(sigma->0) =    -1214.27973303


--------------------------------------------------------------------------------------------------------




--------------------------------------- Iteration      1(  11)  ---------------------------------------


    EDDIAG:  cpu time    4.4286: real time    4.8282
  RMM-DIIS:  cpu time   20.0009: real time   20.0506
    ORTHCH:  cpu time    1.1755: real time    1.2531
       DOS:  cpu time    0.0016: real time    0.0016
    --------------------------------------------
      LOOP:  cpu time   25.6066: real time   26.1335

 eigenvalue-minimisations  : 22585
 total energy-change (2. order) : 0.6995062E-01  (-0.4343687E-01)
 number of electron     672.0000000 magnetization      48.0000000
 augmentation part      672.0000000 magnetization      48.0000000

 Free energy of the ion-electron system (eV)
  ---------------------------------------------------
  alpha Z        PSCENC =      2652.81237852
  Ewald energy   TEWEN  =    -41879.47894193
  -Hartree energ DENC   =    -25735.28641922
  -exchange      EXHF   =         0.00000000
  -V(xc)+E(xc)   XCENC  =      3605.86068665
  PAW double counting   =     55594.23204139   -59034.67079123
  entropy T*S    EENTRO =        -0.00000001
  eigenvalues    EBANDS =    -10279.87688431
  atomic energy  EATOM  =     73862.19814772
  Solvation  Ediel_sol  =         0.00000000
  ---------------------------------------------------
  free energy    TOTEN  =     -1214.20978242 eV

  energy without entropy =    -1214.20978241  energy(sigma->0) =    -1214.20978242


--------------------------------------------------------------------------------------------------------




--------------------------------------- Iteration      1(  12)  ---------------------------------------


    EDDIAG:  cpu time    4.4157: real time    4.8225
  RMM-DIIS:  cpu time   21.6799: real time   21.7312
    ORTHCH:  cpu time    1.1951: real time    1.2735
       DOS:  cpu time    0.0015: real time    0.0015
    CHARGE:  cpu time    1.7841: real time    1.7906
    MIXING:  cpu time    0.0009: real time    0.0012
    --------------------------------------------
      LOOP:  cpu time   29.0772: real time   29.6206

 eigenvalue-minimisations  : 24363
 total energy-change (2. order) :-0.7224391E-03  (-0.4257769E-02)
 number of electron     672.0000130 magnetization      48.0000022
 augmentation part      239.0634879 magnetization      29.0353092

 Broyden mixing:
  rms(total) = 0.12542E+02    rms(broyden)= 0.12533E+02
  rms(prec ) = 0.14400E+02
  weight for this iteration     100.00

 Free energy of the ion-electron system (eV)
  ---------------------------------------------------
  alpha Z        PSCENC =      2652.81237852
  Ewald energy   TEWEN  =    -41879.47894193
  -Hartree energ DENC   =    -25735.28641922
  -exchange      EXHF   =         0.00000000
  -V(xc)+E(xc)   XCENC  =      3605.86068665
  PAW double counting   =     55594.23204139   -59034.67079123
  entropy T*S    EENTRO =        -0.00000001
  eigenvalues    EBANDS =    -10279.87760675
  atomic energy  EATOM  =     73862.19814772
  Solvation  Ediel_sol  =         0.00000000
  ---------------------------------------------------
  free energy    TOTEN  =     -1214.21050486 eV

  energy without entropy =    -1214.21050485  energy(sigma->0) =    -1214.21050486


--------------------------------------------------------------------------------------------------------




--------------------------------------- Iteration      1(  13)  ---------------------------------------


    POTLOK:  cpu time    0.1739: real time    0.1747
    SETDIJ:  cpu time    4.9477: real time    4.9496
    EDDIAG:  cpu time    4.4429: real time    4.8506
  RMM-DIIS:  cpu time   17.3706: real time   17.3981
    ORTHCH:  cpu time    1.2357: real time    1.3166
       DOS:  cpu time    0.0016: real time    0.0016
    CHARGE:  cpu time    1.7821: real time    1.7876
    MIXING:  cpu time    0.0009: real time    0.0009
    --------------------------------------------
      LOOP:  cpu time   29.9554: real time   30.4797

 eigenvalue-minimisations  : 18772
 total energy-change (2. order) : 0.2278244E+03  (-0.1221966E+03)
 number of electron     672.0000209 magnetization      48.0000024
 augmentation part      268.9413173 magnetization      26.5473142

 Broyden mixing:
  rms(total) = 0.13949E+02    rms(broyden)= 0.13946E+02
  rms(prec ) = 0.15703E+02
  weight for this iteration     100.00

 eigenvalues of (default mixing * dielectric matrix)
  average eigenvalue GAMMA=   0.3168
  0.3168

 Free energy of the ion-electron system (eV)
  ---------------------------------------------------
  alpha Z        PSCENC =      2652.81237852
  Ewald energy   TEWEN  =    -41879.47894193
  -Hartree energ DENC   =    -25064.15434368
  -exchange      EXHF   =         0.00000000
  -V(xc)+E(xc)   XCENC  =      3696.06721397
  PAW double counting   =     59882.81665216   -63307.95007534
  entropy T*S    EENTRO =        -0.07220384
  eigenvalues    EBANDS =    -10828.62492409
  atomic energy  EATOM  =     73862.19814772
  Solvation  Ediel_sol  =         0.00000000
  ---------------------------------------------------
  free energy    TOTEN  =      -986.38609651 eV

  energy without entropy =     -986.31389267  energy(sigma->0) =     -986.34999459


--------------------------------------------------------------------------------------------------------




--------------------------------------- Iteration      1(  14)  ---------------------------------------


    POTLOK:  cpu time    0.1718: real time    0.1723
    SETDIJ:  cpu time    4.9325: real time    4.9375
    EDDIAG:  cpu time    4.4995: real time    4.9203
  RMM-DIIS:  cpu time   18.0192: real time   18.0794
    ORTHCH:  cpu time    1.1703: real time    1.2485
       DOS:  cpu time    0.0011: real time    0.0011
    CHARGE:  cpu time    1.7884: real time    1.7908
    MIXING:  cpu time    0.0009: real time    0.0009
    --------------------------------------------
      LOOP:  cpu time   30.5838: real time   31.1508

 eigenvalue-minimisations  : 19394
 total energy-change (2. order) : 0.7097087E+02  (-0.1751213E+02)
 number of electron     672.0000160 magnetization      48.0000040
 augmentation part      246.6123137 magnetization      32.1762933

 Broyden mixing:
  rms(total) = 0.52654E+01    rms(broyden)= 0.52612E+01
  rms(prec ) = 0.56897E+01
  weight for this iteration     100.00

 eigenvalues of (default mixing * dielectric matrix)
  average eigenvalue GAMMA=   0.7289
  1.1002  0.3576

 Free energy of the ion-electron system (eV)
  ---------------------------------------------------
  alpha Z        PSCENC =      2652.81237852
  Ewald energy   TEWEN  =    -41879.47894193
  -Hartree energ DENC   =    -25673.85216373
  -exchange      EXHF   =         0.00000000
  -V(xc)+E(xc)   XCENC  =      3673.41421411
  PAW double counting   =     63258.10409874   -66740.41134355
  entropy T*S    EENTRO =        -0.00000000
  eigenvalues    EBANDS =    -10068.20161733
  atomic energy  EATOM  =     73862.19814772
  Solvation  Ediel_sol  =         0.00000000
  ---------------------------------------------------
  free energy    TOTEN  =      -915.41522745 eV

  energy without entropy =     -915.41522745  energy(sigma->0) =     -915.41522745


--------------------------------------------------------------------------------------------------------




--------------------------------------- Iteration      1(  15)  ---------------------------------------


    POTLOK:  cpu time    0.1703: real time    0.1713
    SETDIJ:  cpu time    4.9478: real time    4.9510
    EDDIAG:  cpu time    4.4297: real time    4.8687
  RMM-DIIS:  cpu time   18.1254: real time   18.1674
    ORTHCH:  cpu time    1.1734: real time    1.2515
       DOS:  cpu time    0.0014: real time    0.0014
    CHARGE:  cpu time    1.7814: real time    1.7857
    MIXING:  cpu time    0.0014: real time    0.0014
    --------------------------------------------
      LOOP:  cpu time   30.6308: real time   31.1984

 eigenvalue-minimisations  : 20189
 total energy-change (2. order) : 0.1409204E+02  (-0.1967061E+01)
 number of electron     672.0000168 magnetization      48.0000051
 augmentation part      249.6703132 magnetization      33.8200998

 Broyden mixing:
  rms(total) = 0.21662E+01    rms(broyden)= 0.21659E+01
  rms(prec ) = 0.22481E+01
  weight for this iteration     100.00

 eigenvalues of (default mixing * dielectric matrix)
  average eigenvalue GAMMA=   0.9504
  0.3829  0.7565  1.7117

 Free energy of the ion-electron system (eV)
  ---------------------------------------------------
  alpha Z        PSCENC =      2652.81237852
  Ewald energy   TEWEN  =    -41879.47894193
  -Hartree energ DENC   =    -25596.15223101
  -exchange      EXHF   =         0.00000000
  -V(xc)+E(xc)   XCENC  =      3706.37998620
  PAW double counting   =     67314.89881510   -70837.52715013
  entropy T*S    EENTRO =        -0.00000000
  eigenvalues    EBANDS =    -10124.45419526
  atomic energy  EATOM  =     73862.19814772
  Solvation  Ediel_sol  =         0.00000000
  ---------------------------------------------------
  free energy    TOTEN  =      -901.32319078 eV

  energy without entropy =     -901.32319078  energy(sigma->0) =     -901.32319078


--------------------------------------------------------------------------------------------------------




--------------------------------------- Iteration      1(  16)  ---------------------------------------


    POTLOK:  cpu time    0.1724: real time    0.1734
    SETDIJ:  cpu time    5.0041: real time    5.0064
    EDDIAG:  cpu time    4.4335: real time    4.8447
  RMM-DIIS:  cpu time   17.4268: real time   17.4540
    ORTHCH:  cpu time    1.1698: real time    1.2511
       DOS:  cpu time    0.0017: real time    0.0017
    CHARGE:  cpu time    1.7852: real time    1.7867
    MIXING:  cpu time    0.0009: real time    0.0010
    --------------------------------------------
      LOOP:  cpu time   29.9945: real time   30.5190

 eigenvalue-minimisations  : 19050
 total energy-change (2. order) :-0.1543157E+01  (-0.6571653E+00)
 number of electron     672.0000170 magnetization      48.0000055
 augmentation part      251.1880333 magnetization      33.9039992

 Broyden mixing:
  rms(total) = 0.14224E+01    rms(broyden)= 0.14219E+01
  rms(prec ) = 0.15156E+01
  weight for this iteration     100.00

 eigenvalues of (default mixing * dielectric matrix)
  average eigenvalue GAMMA=   0.9772
  2.0853  0.9038  0.3896  0.5302

 Free energy of the ion-electron system (eV)
  ---------------------------------------------------
  alpha Z        PSCENC =      2652.81237852
  Ewald energy   TEWEN  =    -41879.47894193
  -Hartree energ DENC   =    -25545.98938746
  -exchange      EXHF   =         0.00000000
  -V(xc)+E(xc)   XCENC  =      3707.70054031
  PAW double counting   =     70287.31198029   -73840.09023957
  entropy T*S    EENTRO =        -0.00000000
  eigenvalues    EBANDS =    -10147.33082519
  atomic energy  EATOM  =     73862.19814772
  Solvation  Ediel_sol  =         0.00000000
  ---------------------------------------------------
  free energy    TOTEN  =      -902.86634731 eV

  energy without entropy =     -902.86634731  energy(sigma->0) =     -902.86634731


--------------------------------------------------------------------------------------------------------




--------------------------------------- Iteration      1(  17)  ---------------------------------------


    POTLOK:  cpu time    0.1786: real time    0.1799
    SETDIJ:  cpu time    5.0084: real time    5.0112
    EDDIAG:  cpu time    4.4253: real time    4.8200
  RMM-DIIS:  cpu time   18.5061: real time   18.5412
    ORTHCH:  cpu time    1.1670: real time    1.2477
       DOS:  cpu time    0.0016: real time    0.0016
    CHARGE:  cpu time    1.7843: real time    1.7886
    MIXING:  cpu time    0.0019: real time    0.0019
    --------------------------------------------
      LOOP:  cpu time   31.0732: real time   31.5921

 eigenvalue-minimisations  : 20497
 total energy-change (2. order) : 0.1885452E+00  (-0.6685223E-01)
 number of electron     672.0000171 magnetization      48.0000058
 augmentation part      251.0939674 magnetization      33.8973438

 Broyden mixing:
  rms(total) = 0.76510E+00    rms(broyden)= 0.76498E+00
  rms(prec ) = 0.86320E+00
  weight for this iteration     100.00

 eigenvalues of (default mixing * dielectric matrix)
  average eigenvalue GAMMA=   1.0016
  2.2374  1.1288  0.3803  0.7000  0.5613

 Free energy of the ion-electron system (eV)
  ---------------------------------------------------
  alpha Z        PSCENC =      2652.81237852
  Ewald energy   TEWEN  =    -41879.47894193
  -Hartree energ DENC   =    -25538.47384913
  -exchange      EXHF   =         0.00000000
  -V(xc)+E(xc)   XCENC  =      3704.77089514
  PAW double counting   =     71148.15991783   -74709.28787037
  entropy T*S    EENTRO =        -0.00000000
  eigenvalues    EBANDS =    -10143.37847992
  atomic energy  EATOM  =     73862.19814772
  Solvation  Ediel_sol  =         0.00000000
  ---------------------------------------------------
  free energy    TOTEN  =      -902.67780215 eV

  energy without entropy =     -902.67780215  energy(sigma->0) =     -902.67780215


--------------------------------------------------------------------------------------------------------




--------------------------------------- Iteration      1(  18)  ---------------------------------------


    POTLOK:  cpu time    0.1701: real time    0.1716
    SETDIJ:  cpu time    4.9895: real time    5.0055
    EDDIAG:  cpu time    4.4338: real time    4.8279
  RMM-DIIS:  cpu time   17.7737: real time   17.7976
    ORTHCH:  cpu time    1.1846: real time    1.2601
       DOS:  cpu time    0.0030: real time    0.0030
    CHARGE:  cpu time    1.7886: real time    1.7890
    MIXING:  cpu time    0.0011: real time    0.0011
    --------------------------------------------
      LOOP:  cpu time   30.3444: real time   30.8558

 eigenvalue-minimisations  : 19136
 total energy-change (2. order) : 0.4092379E+00  (-0.7071390E-01)
 number of electron     672.0000169 magnetization      48.0000059
 augmentation part      250.5879420 magnetization      33.8574358

 Broyden mixing:
  rms(total) = 0.28359E+00    rms(broyden)= 0.28331E+00
  rms(prec ) = 0.30027E+00
  weight for this iteration     100.00

 eigenvalues of (default mixing * dielectric matrix)
  average eigenvalue GAMMA=   1.0168
  2.4581  1.3570  0.8499  0.5940  0.3817  0.4602

[...]
   4      -0.748    -1.055     1.803     0.131     0.020     0.015
   5      -0.601    -0.756     1.357    -0.131    -0.024    -0.047
   6      -0.927    -0.592     1.518    -0.026    -0.027    -0.086
   7      -0.984    -0.513     1.497     0.034    -0.010    -0.038
   8      -0.705    -1.015     1.720     0.250    -0.057    -0.008
   9      -0.611    -0.945     1.556     0.157    -0.090     0.092
  10      -0.846    -0.509     1.356     0.027    -0.046    -0.026
  11      -0.775    -0.939     1.714    -0.273    -0.058    -0.063
  12      -0.652    -0.735     1.387    -0.105     0.045     0.050
  13      -0.612    -1.196     1.808     0.028     0.052    -0.101
  14      -0.958    -0.897     1.854     0.237    -0.007     0.050
  15      -0.850    -1.019     1.870    -0.021     0.081     0.006
  16      -1.001    -0.875     1.877     0.025     0.054     0.040
  17       1.668     1.310    -2.978    -0.049     0.133     0.038
  18       1.426     1.413    -2.839    -0.114     0.006     0.071
  19       1.362     1.540    -2.902     0.087    -0.080    -0.127
  20       1.602     1.301    -2.904     0.094     0.098     0.123
  21       1.401     1.589    -2.990    -0.018    -0.090    -0.052
  22       1.426     1.479    -2.905     0.078     0.112     0.023
  23       1.565     1.347    -2.912    -0.020     0.150     0.103
  24       1.432     1.467    -2.899    -0.081    -0.144     0.048
  25      -0.738    -0.592     1.330    -0.160     0.455    -0.352
  26       0.326     0.259    -0.585    -0.097    -0.233     0.222
  27       0.957    -1.220     0.262     0.091    -0.475     0.939
  28      -0.615     0.513     0.102     0.969     0.757     1.112
  29      -0.647    -0.086     0.733     0.675    -0.223     0.283
  30      -0.638     0.019     0.619     0.754    -0.572    -0.870
  31       0.786    -0.160    -0.627     0.161    -1.163     0.950
  32       0.456    -1.503     1.046    -0.554    -1.032     0.961
  33       0.286    -1.169     0.883     0.355     0.958    -0.713
  34      -0.388     0.271     0.118    -0.093    -0.395     0.856
  35       0.101    -1.144     1.043    -0.331     0.485     0.204
  36      -1.423     0.780     0.644     0.376     1.755     0.997
  37      -1.274    -0.504     1.778     0.945     0.280    -0.943
  38       0.677    -1.929     1.252    -0.499     1.347     0.666
  39       1.743    -2.819     1.076     0.176    -0.631    -0.610
  40       0.270     0.788    -1.058    -0.102    -0.155     0.519
  41      -2.738     1.208     1.529    -5.261     1.555    -3.598
  42      -1.929     3.837    -1.908     5.081     0.912     3.528
  43       4.893    -5.631     0.738     1.921    -6.018    -0.139
  44      -2.049     1.129     0.921    -5.340    -2.066     3.647
  45       4.838    -5.892     1.054     1.295     4.824     1.600
  46      -5.112     5.670    -0.558     5.119    -2.520    -2.161
  47      -1.833     2.115    -0.281    -5.290     1.610    -3.269
  48       4.675    -7.421     2.745    -0.622    -4.991    -2.527
  49      -4.305     4.880    -0.575     4.466     1.902     3.051
  50      -2.010     0.272     1.738    -5.517    -3.391     3.397
  51      -1.792     3.925    -2.133     5.195    -0.907    -4.373
  52       6.985    -7.071     0.085     1.309     5.549     0.888
  53      -3.520     3.485     0.035    -4.747     2.067    -5.836
  54      -5.252     2.758     2.494     4.954     3.493     3.865
  55       5.368    -5.287    -0.081    -0.380    -4.162    -1.914
  56      -5.022     2.501     2.521    -4.638    -3.713     4.303
  57       4.464    -7.252     2.789     0.102     6.199    -1.342
  58      -2.226     2.750    -0.524     3.366    -3.099    -2.671
  59      -4.413     2.524     1.888    -4.249     2.929    -2.875
  60       4.390    -5.515     1.126     0.705    -4.784     0.343
  61      -2.772     2.501     0.272     4.178     2.633     4.694
  62      -3.241     1.344     1.897    -5.103    -1.385     6.526
  63      -3.767     4.674    -0.907     3.965    -3.421    -1.485
  64       5.424    -5.417    -0.007    -1.490     4.882     0.937
  65      -3.531     4.749    -1.217    -3.958     3.154    -2.551
  66      -5.636     4.823     0.813     5.014     3.821     4.236
  67       3.789    -5.623     1.835     0.559    -4.893    -0.781
  68      -1.856     2.648    -0.792    -5.046    -0.831     4.771
  69       4.346    -5.607     1.261     2.433     6.228     2.523
  70      -5.099     2.153     2.946     5.456    -1.002    -5.094
  71      -3.805     1.543     2.262    -3.923     1.212    -3.930
  72       6.773    -5.804    -0.969     0.565    -3.299     0.614
  73      -3.250     1.763     1.487     5.396     1.182     6.571
  74      -2.117     1.179     0.937    -5.470    -3.046     3.207
  75      -1.386     3.089    -1.703     3.706    -1.850    -3.563
  76       3.462    -6.695     3.233     2.043     5.498    -0.288
  77      -2.720     2.518     0.202    -4.309     3.473    -4.006
  78      -2.214     3.339    -1.125     4.027     2.198     2.366
  79       4.219    -5.661     1.442    -0.415    -4.820     0.491
  80      -4.455     2.855     1.601    -5.820    -2.799     2.504
  81       4.760    -5.315     0.555     0.603     4.503    -1.137
  82      -5.542     3.554     1.989     3.435    -1.370    -4.380
  83      -2.018    -0.061     2.078    -5.090     2.322    -4.802
  84       5.249    -6.798     1.549    -0.660    -5.206     1.470
  85      -3.376     0.965     2.411     3.247     2.017     4.427
  86      -0.213     1.700    -1.487    -4.601    -2.272     4.531
  87      -4.901     4.295     0.606     4.150    -3.563    -3.762
  88       7.734    -5.712    -2.021    -0.029     0.849     0.073
 ---------------------------------------------------------------------


 Total hyperfine coupling parameters after diagonalization (MHz)
 (convention: |A_zz| > |A_xx| > |A_yy|)
 ----------------------------------------------------------------------
  ion      A_xx      A_yy      A_zz     asymmetry (A_yy - A_xx)/ A_zz 
 ----------------------------------------------------------------------
   1      -0.477     0.001     2.616       0.183
   2       1.353     1.063     3.253      -0.089
   3       2.363     1.953     3.954      -0.104
   4       0.534     0.131     3.037      -0.133
   5       2.444     2.139     4.329      -0.071
   6       1.885     1.549     4.000      -0.084
   7       2.766     2.291     4.775      -0.099
   8       2.145     1.557     4.432      -0.133
   9       2.470     2.008     4.582      -0.101
  10       2.137     1.795     4.001      -0.085
  11       2.365     1.793     4.654      -0.123
  12       2.102     1.875     4.072      -0.056
  13       1.664     1.075     4.089      -0.144
  14       0.835     0.357     3.379      -0.141
  15       0.094    -0.078     2.816      -0.061
  16      -0.411    -0.275     2.474       0.055
  17      14.685    10.399    15.058      -0.285
  18      13.008     8.862    13.236      -0.313
  19      14.198     9.964    14.452      -0.293
  20      14.203    10.018    14.560      -0.287
  21      15.440    11.046    15.630      -0.281
  22      13.219     8.939    13.384      -0.320
  23      14.166     9.898    14.389      -0.297
  24      13.827     9.555    13.995      -0.305
  25      95.983    95.743    98.103      -0.002
  26      94.165    93.292    94.464      -0.009
  27      94.893    92.742    95.710      -0.022
  28      96.241    95.869    99.075      -0.004
  29     100.075    98.576   100.558      -0.015
  30      97.381    96.726    99.467      -0.007
  31      97.313    95.241    98.552      -0.021
  32      96.513    94.980    98.981      -0.015
  33      92.944    91.332    94.597      -0.017
  34      95.187    94.696    96.635      -0.005
  35      96.553    95.259    97.780      -0.013
  36      96.053    93.533    98.323      -0.026
  37      99.174    97.159   101.343      -0.020
  38      96.607    94.389    99.027      -0.022
  39      98.548    94.888    99.969      -0.037
  40      94.031    92.574    94.730      -0.015
  41       4.872    -0.680    13.183      -0.421
  42       5.873     3.317    16.659      -0.153
  43      -1.615     1.396    13.937       0.216
  44       4.251    -0.235    13.526      -0.332
  45       5.183     1.084    15.734      -0.261
  46       7.615     1.231    17.423      -0.366
  47       6.481     2.796    15.839      -0.233
  48       6.193    -1.513    15.652      -0.492
  49       7.029     2.767    17.106      -0.249
  50       4.503    -0.311    14.496      -0.332
  51       2.977     0.074    14.535      -0.200
  52       5.385     1.160    18.592      -0.227
  53       3.334     0.862    16.755      -0.148
  54       7.980     1.244    18.145      -0.371
  55       6.607     1.835    15.687      -0.304
  56       8.680     2.884    19.674      -0.295
  57       4.399    -0.734    16.712      -0.307
  58       5.121     2.034    13.387      -0.231
  59       5.924    -0.144    13.898      -0.437
  60       4.364     0.855    14.344      -0.245
  61       2.486     0.710    14.164      -0.125
  62       6.428     1.289    18.545      -0.277
  63       7.260     1.099    14.936      -0.413
  64       5.828     1.774    16.316      -0.248
  65       6.134     1.669    15.570      -0.287
  66       6.458     0.093    18.316      -0.347
  67       4.887     1.343    14.913      -0.238
  68       5.991     1.964    16.273      -0.247
  69       4.040     1.115    17.566      -0.167
  70       8.332     0.931    18.345      -0.403
  71       5.168     0.286    13.311      -0.367
  72       7.362     3.421    17.385      -0.227
  73       4.038    -1.470    16.189      -0.340
  74       6.474     1.995    16.214      -0.276
  75       2.649     2.385    13.056      -0.020
  76       5.934     0.261    16.522      -0.343
  77       5.889     3.183    16.995      -0.159
  78       5.742     3.222    14.539      -0.173
  79       2.581    -0.935    12.636      -0.278
  80       8.526     0.872    16.776      -0.456
  81       4.728     0.777    14.194      -0.278
  82       7.031     1.774    16.601      -0.317
  83       8.400     3.862    18.789      -0.242
  84       5.123     0.059    16.159      -0.313
  85       5.974     3.126    15.675      -0.182
  86       3.715     1.769    14.803      -0.131
  87       3.753    -1.757    14.177      -0.389
  88       6.112     2.492    16.012      -0.226
 ---------------------------------------------------------------------



--------------------------------------------------------------------------------------------------------


 stress matrix after NEB project (eV)
    -45.20726     -0.64121     -3.07987
     -0.63814    -45.90590     -3.24325
     -3.08011     -3.26085    -60.18771
  FORCES: max atom, RMS     2.701268    1.108902
  FORCE total and by dimension   10.402427    2.493111
  Stress total and by dimension   88.399947   60.187705
     LOOP+:  cpu time  722.5503: real time  736.2756
    4ORBIT:  cpu time    0.0000: real time    0.0000
 


 total charge     
 
# of ion       s       p       d       tot
------------------------------------------
    1        0.055   6.001   0.000   6.056
    2        0.054   5.999   0.000   6.053
    3        0.047   5.989   0.000   6.035
    4        0.052   5.995   0.000   6.047
    5        0.053   5.995   0.000   6.048
    6        0.049   5.991   0.000   6.040
    7        0.047   5.988   0.000   6.035
    8        0.053   5.995   0.000   6.048
    9        0.052   5.995   0.000   6.047
   10        0.054   5.998   0.000   6.052
   11        0.055   5.998   0.000   6.053
   12        0.051   5.993   0.000   6.044
   13        0.052   5.996   0.000   6.047
   14        0.047   5.990   0.000   6.037
   15        0.054   5.999   0.000   6.053
   16        0.051   5.994   0.000   6.045
   17        0.148   6.127   0.084   6.359
   18        0.144   6.120   0.077   6.342
   19        0.150   6.130   0.086   6.366
   20        0.147   6.124   0.081   6.352
   21        0.149   6.129   0.085   6.364
   22        0.146   6.123   0.079   6.348
   23        0.147   6.125   0.081   6.353
   24        0.147   6.124   0.081   6.351
   25        0.380   6.462   4.842  11.684
   26        0.386   6.475   4.849  11.710
   27        0.368   6.437   4.813  11.618
   28        0.363   6.428   4.799  11.590
   29        0.371   6.445   4.821  11.636
   30        0.372   6.448   4.819  11.639
   31        0.381   6.464   4.853  11.698
   32        0.387   6.479   4.862  11.728
   33        0.384   6.470   4.849  11.703
   34        0.379   6.463   4.833  11.674
   35        0.373   6.444   4.828  11.644
   36        0.368   6.440   4.808  11.615
   37        0.374   6.453   4.835  11.661
   38        0.375   6.453   4.827  11.655
   39        0.376   6.454   4.836  11.665
   40        0.381   6.466   4.848  11.695
   41        1.597   3.515   0.000   5.112
   42        1.600   3.526   0.000   5.126
   43        1.603   3.503   0.000   5.105
   44        1.596   3.497   0.000   5.093
   45        1.599   3.513   0.000   5.112
   46        1.599   3.486   0.000   5.086
   47        1.598   3.532   0.000   5.131
   48        1.598   3.495   0.000   5.093
   49        1.598   3.503   0.000   5.101
   50        1.599   3.534   0.000   5.133
   51        1.599   3.506   0.000   5.105
   52        1.604   3.498   0.000   5.102
   53        1.599   3.480   0.000   5.080
   54        1.600   3.494   0.000   5.094
   55        1.599   3.505   0.000   5.103
   56        1.602   3.558   0.000   5.160
   57        1.602   3.502   0.000   5.105
   58        1.598   3.485   0.000   5.083
   59        1.596   3.510   0.000   5.106
   60        1.600   3.513   0.000   5.113
   61        1.599   3.483   0.000   5.082
   62        1.601   3.519   0.000   5.120
   63        1.598   3.463   0.000   5.062
   64        1.598   3.512   0.000   5.110
   65        1.598   3.492   0.000   5.090
   66        1.601   3.510   0.000   5.111
   67        1.598   3.517   0.000   5.115
   68        1.598   3.475   0.000   5.073
   69        1.599   3.475   0.000   5.074
   70        1.604   3.532   0.000   5.136
   71        1.597   3.515   0.000   5.111
   72        1.599   3.505   0.000   5.104
   73        1.602   3.513   0.000   5.115
   74        1.598   3.497   0.000   5.095
   75        1.599   3.494   0.000   5.093
   76        1.599   3.503   0.000   5.102
   77        1.598   3.503   0.000   5.101
   78        1.598   3.511   0.000   5.109
   79        1.599   3.513   0.000   5.111
   80        1.598   3.507   0.000   5.106
   81        1.598   3.501   0.000   5.099
   82        1.599   3.515   0.000   5.114
   83        1.600   3.517   0.000   5.116
   84        1.598   3.498   0.000   5.097
   85        1.596   3.516   0.000   5.112
   86        1.598   3.478   0.000   5.077
   87        1.600   3.476   0.000   5.076
   88        1.601   3.521   0.000   5.121
--------------------------------------------------
tot         84.779 416.410  77.977 579.166
 


 magnetization (x)
 
# of ion       s       p       d       tot
------------------------------------------
    1        0.000   0.000   0.000   0.001
    2        0.001  -0.000   0.000   0.001
    3        0.002   0.001   0.000   0.003
    4        0.001   0.000   0.000   0.001
    5        0.002   0.000   0.000   0.003
    6        0.002   0.000   0.000   0.002
    7        0.003   0.000   0.000   0.003
    8        0.002   0.000   0.000   0.002
    9        0.002   0.000   0.000   0.003
   10        0.002   0.000   0.000   0.002
   11        0.002   0.000   0.000   0.002
   12        0.002   0.000   0.000   0.002
   13        0.002   0.001   0.000   0.002
   14        0.001   0.001   0.000   0.002
   15        0.001   0.000   0.000   0.001
   16        0.000   0.000   0.000   0.001
   17        0.008   0.003   0.001   0.012
   18        0.006   0.002   0.001   0.009
   19        0.007   0.002   0.001   0.010
   20        0.007   0.002   0.001   0.010
   21        0.008   0.002   0.001   0.011
   22        0.007   0.002   0.002   0.011
   23        0.007   0.002   0.001   0.010
   24        0.007   0.002   0.001   0.010
   25        0.016   0.030   2.742   2.787
   26        0.015   0.031   2.729   2.774
   27        0.015   0.028   2.768   2.811
   28        0.015   0.030   2.783   2.828
   29        0.016   0.031   2.764   2.811
   30        0.016   0.030   2.769   2.814
   31        0.016   0.031   2.729   2.776
   32        0.015   0.030   2.738   2.783
   33        0.014   0.030   2.741   2.785
   34        0.015   0.031   2.743   2.789
   35        0.015   0.029   2.761   2.805
   36        0.015   0.030   2.765   2.810
   37        0.016   0.030   2.758   2.804
   38        0.015   0.029   2.760   2.805
   39        0.015   0.030   2.754   2.799
   40        0.015   0.030   2.727   2.772
   41        0.002   0.025   0.000   0.027
   42        0.002   0.045   0.000   0.047
   43        0.002   0.009   0.000   0.011
   44        0.002   0.019   0.000   0.021
   45        0.002   0.028   0.000   0.030
   46        0.002   0.036   0.000   0.038
   47        0.002   0.043   0.000   0.045
   48        0.002   0.040   0.000   0.041
   49        0.002   0.045   0.000   0.047
   50        0.002   0.029   0.000   0.030
   51        0.002   0.021   0.000   0.023
   52        0.002   0.039   0.000   0.041
   53        0.002   0.021   0.000   0.023
   54        0.002   0.052   0.000   0.054
   55        0.002   0.036   0.000   0.038
   56        0.002   0.074   0.000   0.076
   57        0.002   0.030   0.000   0.031
   58        0.002   0.024   0.000   0.026
   59        0.002   0.034   0.000   0.036
   60        0.002   0.024   0.000   0.026
   61        0.002   0.010   0.000   0.011
   62        0.002   0.047   0.000   0.049
   63        0.002   0.022   0.000   0.025
   64        0.002   0.038   0.000   0.040
   65        0.002   0.028   0.000   0.030
   66        0.002   0.049   0.000   0.052
   67        0.002   0.032   0.000   0.034
   68        0.002   0.030   0.000   0.032
   69        0.002   0.033   0.000   0.035
   70        0.002   0.060   0.000   0.062
   71        0.002   0.030   0.000   0.032
   72        0.002   0.047   0.000   0.049
   73        0.002   0.025   0.000   0.027
   74        0.002   0.037   0.000   0.039
   75        0.002   0.007   0.000   0.009
   76        0.002   0.038   0.000   0.040
   77        0.002   0.034   0.000   0.036
   78        0.002   0.031   0.000   0.033
   79        0.001   0.016   0.000   0.017
   80        0.002   0.051   0.000   0.053
   81        0.002   0.024   0.000   0.026
   82        0.002   0.046   0.000   0.048
   83        0.003   0.060   0.000   0.063
   84        0.002   0.030   0.000   0.032
   85        0.002   0.044   0.000   0.046
   86        0.002   0.015   0.000   0.017
   87        0.002   0.015   0.000   0.016
   88        0.002   0.035   0.000   0.037
--------------------------------------------------
tot          0.421   2.108  44.040  46.569
 

 total amount of memory used by VASP MPI-rank0    94425. kBytes
=======================================================================

   base      :      30000. kBytes
   nonlr-proj:      13666. kBytes
   fftplans  :       1275. kBytes
   grid      :      22786. kBytes
   one-center:       2737. kBytes
   wavefun   :      23961. kBytes
 
  
  
 General timing and accounting informations for this job:
 ========================================================
  
                  Total CPU time used (sec):      743.529
                            User time (sec):      735.656
                          System time (sec):        7.873
                         Elapsed time (sec):      759.714
  
                   Maximum memory used (kb):      193440.
                   Average memory used (kb):           0.
  
                          Minor page faults:       262443
                          Major page faults:            0
                 Voluntary context switches:       237309
