 vasp.5.4.4.18Apr17-6-g9f103f2a35 (build Dec 02 2020 12:53:39) complex          
  
 executed on             LinuxIFC date 2021.08.04  09:43:35
 running on   96 total cores
 distrk:  each k-point on   96 cores,    1 groups
 distr:  one band on NCORES_PER_BAND=   1 cores,   96 groups


--------------------------------------------------------------------------------------------------------


 INCAR:
 POTCAR:    PAW_PBE Na_pv 19Sep2006               
 POTCAR:    PAW_PBE Mg_pv 13Apr2007               
 POTCAR:    PAW_PBE Mn_pv 02Aug2007               
 POTCAR:    PAW_PBE O 08Apr2002                   

 ----------------------------------------------------------------------------- 
|                                                                             |
|           W    W    AA    RRRRR   N    N  II  N    N   GGGG   !!!           |
|           W    W   A  A   R    R  NN   N  II  NN   N  G    G  !!!           |
|           W    W  A    A  R    R  N N  N  II  N N  N  G       !!!           |
|           W WW W  AAAAAA  RRRRR   N  N N  II  N  N N  G  GGG   !            |
|           WW  WW  A    A  R   R   N   NN  II  N   NN  G    G                |
|           W    W  A    A  R    R  N    N  II  N    N   GGGG   !!!           |
|                                                                             |
|      For optimal performance we recommend to set                            |
|        NCORE= 4 - approx SQRT( number of cores)                             |
|      NCORE specifies how many cores store one orbital (NPAR=cpu/NCORE).     |
|      This setting can  greatly improve the performance of VASP for DFT.     |
|      The default,   NCORE=1            might be grossly inefficient         |
|      on modern multi-core architectures or massively parallel machines.     |
|      Do your own testing !!!!                                               |
|      Unfortunately you need to use the default for GW and RPA calculations. |
|      (for HF NCORE is supported but not extensively tested yet)             |
|                                                                             |
 ----------------------------------------------------------------------------- 

 POTCAR:    PAW_PBE Na_pv 19Sep2006               
   VRHFIN =Na: p6s1                                                             
   LEXCH  = PE                                                                  
   EATOM  =   766.0439 eV,   56.3026 Ry                                         
                                                                                
   TITEL  = PAW_PBE Na_pv 19Sep2006                                             
   LULTRA =        F    use ultrasoft PP ?                                      
   IUNSCR =        1    unscreen: 0-lin 1-nonlin 2-no                           
   RPACOR =    1.800    partial core radius                                     
   POMASS =   22.990; ZVAL   =    7.000    mass and valenz                      
   RCORE  =    2.200    outmost cutoff radius                                   
   RWIGS  =    2.200; RWIGS  =    1.164    wigner-seitz radius (au A)           
   ENMAX  =  259.561; ENMIN  =  194.671 eV                                      
   ICORE  =        2    local potential                                         
   LCOR   =        T    correct aug charges                                     
   LPAW   =        T    paw PP                                                  
   EAUG   =  368.056                                                            
   DEXC   =    0.000                                                            
   RMAX   =    2.245    core radius for proj-oper                               
   RAUG   =    1.300    factor for augmentation sphere                          
   RDEP   =    2.259    radius for radial grids                                 
   RDEPT  =    1.738    core radius for aug-charge                              
                                                                                
   Atomic configuration                                                         
    5 entries                                                                   
     n  l   j            E        occ.                                          
     1  0  0.50     -1033.6933   2.0000                                         
     2  0  0.50       -56.7526   2.0000                                         
     2  1  1.50       -28.6721   6.0000                                         
     3  0  0.50        -2.7440   1.0000                                         
     3  2  1.50        -1.3606   0.0000                                         
   Description                                                                  
     l       E           TYP  RCUT    TYP  RCUT                                 
     1    -28.6720912     23  2.000                                             
     1      6.8029130     23  2.000                                             
     0     -2.7439560     23  2.200                                             
     0     34.0145650     23  2.200                                             
     2     -1.3605826     23  2.200                                             
  local pseudopotential read in
  partial core-charges read in
  partial kinetic energy density read in
  atomic valenz-charges read in
  non local Contribution for L=           1  read in
    real space projection operators read in
  non local Contribution for L=           1  read in
    real space projection operators read in
  non local Contribution for L=           0  read in
    real space projection operators read in
  non local Contribution for L=           0  read in
    real space projection operators read in
    PAW grid and wavefunctions read in
 
   number of l-projection  operators is LMAX  =           4
   number of lm-projection operators is LMMAX =           8
 
 POTCAR:    PAW_PBE Mg_pv 13Apr2007               
   VRHFIN =Mg: p6s2                                                             
   LEXCH  = PE                                                                  
   EATOM  =  1056.7344 eV,   77.6678 Ry                                         
                                                                                
   TITEL  = PAW_PBE Mg_pv 13Apr2007                                             
   LULTRA =        F    use ultrasoft PP ?                                      
   IUNSCR =        1    unscreen: 0-lin 1-nonlin 2-no                           
   RPACOR =    1.500    partial core radius                                     
   POMASS =   24.305; ZVAL   =    8.000    mass and valenz                      
   RCORE  =    2.000    outmost cutoff radius                                   
   RWIGS  =    2.000; RWIGS  =    1.058    wigner-seitz radius (au A)           
   ENMAX  =  403.929; ENMIN  =  302.947 eV                                      
   RCLOC  =    1.506    cutoff for local pot                                    
   LCOR   =        T    correct aug charges                                     
   LPAW   =        T    paw PP                                                  
   EAUG   =  758.780                                                            
   DEXC   =    0.000                                                            
   RMAX   =    2.045    core radius for proj-oper                               
   RAUG   =    1.300    factor for augmentation sphere                          
   RDEP   =    2.025    radius for radial grids                                 
   RDEPT  =    1.557    core radius for aug-charge                              
                                                                                
   Atomic configuration                                                         
    5 entries                                                                   
     n  l   j            E        occ.                                          
     1  0  0.50     -1259.6230   2.0000                                         
     2  0  0.50       -79.8442   2.0000                                         
     2  1  1.50       -46.6121   6.0000                                         
     3  0  0.50        -4.7055   2.0000                                         
     3  2  1.50        -1.3606   0.0000                                         
   Description                                                                  
     l       E           TYP  RCUT    TYP  RCUT                                 
     1    -46.6121073     23  1.600                                             
     1      2.7211652     23  1.600                                             
     0     -4.7054661     23  2.000                                             
     0     61.2262170     23  2.000                                             
     2     -1.3605826     23  2.000                                             
  local pseudopotential read in
  partial core-charges read in
  partial kinetic energy density read in
  atomic valenz-charges read in
  non local Contribution for L=           1  read in
    real space projection operators read in
  non local Contribution for L=           1  read in
    real space projection operators read in
  non local Contribution for L=           0  read in
    real space projection operators read in
  non local Contribution for L=           0  read in
    real space projection operators read in
  non local Contribution for L=           2  read in
    real space projection operators read in
    PAW grid and wavefunctions read in
 
   number of l-projection  operators is LMAX  =           5
   number of lm-projection operators is LMMAX =          13
 
 POTCAR:    PAW_PBE Mn_pv 02Aug2007               
   VRHFIN =Mn: 3p4s3d                                                           
   LEXCH  = PE                                                                  
   EATOM  =  2025.2664 eV,  148.8529 Ry                                         
                                                                                
   TITEL  = PAW_PBE Mn_pv 02Aug2007                                             
   LULTRA =        F    use ultrasoft PP ?                                      
   IUNSCR =        1    unscreen: 0-lin 1-nonlin 2-no                           
   RPACOR =    2.080    partial core radius                                     
   POMASS =   54.938; ZVAL   =   13.000    mass and valenz                      
   RCORE  =    2.300    outmost cutoff radius                                   
   RWIGS  =    2.500; RWIGS  =    1.323    wigner-seitz radius (au A)           
   ENMAX  =  269.864; ENMIN  =  202.398 eV                                      
   ICORE  =        3    local potential                                         
   LCOR   =        T    correct aug charges                                     
   LPAW   =        T    paw PP                                                  
   EAUG   =  569.085                                                            
   DEXC   =    0.000                                                            
   RMAX   =    2.343    core radius for proj-oper                               
   RAUG   =    1.300    factor for augmentation sphere                          
   RDEP   =    2.338    radius for radial grids                                 
   RDEPT  =    1.798    core radius for aug-charge                              
                                                                                
   Atomic configuration                                                         
    8 entries                                                                   
     n  l   j            E        occ.                                          
     1  0  0.50     -6424.8287   2.0000                                         
     2  0  0.50      -739.1154   2.0000                                         
     2  1  1.50      -625.3949   6.0000                                         
     3  0  0.50       -81.6100   2.0000                                         
     3  1  1.50       -50.4667   6.0000                                         
     3  2  2.50        -3.3745   6.0000                                         
     4  0  0.50        -4.1331   1.0000                                         
     4  3  2.50        -1.3606   0.0000                                         
   Description                                                                  
     l       E           TYP  RCUT    TYP  RCUT                                 
     1    -50.4666628     23  2.000                                             
     1     -1.3605826     23  2.000                                             
     2     -3.3744729     23  2.300                                             
     2     -4.7350555     23  2.300                                             
     0     -4.1331431     23  2.300                                             
     0      7.6656591     23  2.300                                             
     3      9.5240782     23  2.300                                             
  local pseudopotential read in
  partial core-charges read in
  partial kinetic energy density read in
  atomic valenz-charges read in
  non local Contribution for L=           1  read in
    real space projection operators read in
  non local Contribution for L=           1  read in
    real space projection operators read in
  non local Contribution for L=           2  read in
    real space projection operators read in
  non local Contribution for L=           2  read in
    real space projection operators read in
  non local Contribution for L=           0  read in
    real space projection operators read in
  non local Contribution for L=           0  read in
    real space projection operators read in
    PAW grid and wavefunctions read in
 
   number of l-projection  operators is LMAX  =           6
   number of lm-projection operators is LMMAX =          18
 
 POTCAR:    PAW_PBE O 08Apr2002                   
   VRHFIN =O: s2p4                                                              
   LEXCH  = PE                                                                  
   EATOM  =   432.3788 eV,   31.7789 Ry                                         
                                                                                
   TITEL  = PAW_PBE O 08Apr2002                                                 
   LULTRA =        F    use ultrasoft PP ?                                      
   IUNSCR =        1    unscreen: 0-lin 1-nonlin 2-no                           
   RPACOR =    1.200    partial core radius                                     
   POMASS =   16.000; ZVAL   =    6.000    mass and valenz                      
   RCORE  =    1.520    outmost cutoff radius                                   
   RWIGS  =    1.550; RWIGS  =    0.820    wigner-seitz radius (au A)           
   ENMAX  =  400.000; ENMIN  =  300.000 eV                                      
   ICORE  =        2    local potential                                         
   LCOR   =        T    correct aug charges                                     
   LPAW   =        T    paw PP                                                  
   EAUG   =  605.392                                                            
   DEXC   =    0.000                                                            
   RMAX   =    1.553    core radius for proj-oper                               
   RAUG   =    1.300    factor for augmentation sphere                          
   RDEP   =    1.550    radius for radial grids                                 
   RDEPT  =    1.329    core radius for aug-charge                              
                                                                                
   Atomic configuration                                                         
    4 entries                                                                   
     n  l   j            E        occ.                                          
     1  0  0.50      -514.6923   2.0000                                         
     2  0  0.50       -23.9615   2.0000                                         
     2  1  0.50        -9.0305   4.0000                                         
     3  2  1.50        -9.5241   0.0000                                         
   Description                                                                  
     l       E           TYP  RCUT    TYP  RCUT                                 
     0    -23.9615318     23  1.200                                             
     0     -9.5240782     23  1.200                                             
     1     -9.0304911     23  1.520                                             
     1      8.1634956     23  1.520                                             
     2     -9.5240782      7  1.500                                             
  local pseudopotential read in
  partial core-charges read in
  partial kinetic energy density read in
  kinetic energy density of atom read in
  atomic valenz-charges read in
  non local Contribution for L=           0  read in
    real space projection operators read in
  non local Contribution for L=           0  read in
    real space projection operators read in
  non local Contribution for L=           1  read in
    real space projection operators read in
  non local Contribution for L=           1  read in
    real space projection operators read in
    PAW grid and wavefunctions read in
 
   number of l-projection  operators is LMAX  =           4
   number of lm-projection operators is LMMAX =           8
 
 Optimization of the real space projectors (new method)

 maximal supplied QI-value         = 17.01
 optimisation between [QCUT,QGAM] = [ 10.20, 20.41] = [ 29.16,116.64] Ry 
 Optimized for a Real-space Cutoff    1.30 Angstroem

   l    n(q)    QCUT    max X(q) W(low)/X(q) W(high)/X(q)  e(spline) 
   1      7    10.205     4.940    0.23E-03    0.84E-03    0.11E-06
   1      7    10.205     6.253    0.40E-03    0.13E-02    0.18E-06
   0      8    10.205    37.438    0.23E-03    0.37E-03    0.42E-07
   0      8    10.205     9.606    0.16E-03    0.26E-03    0.31E-07
 Optimization of the real space projectors (new method)

 maximal supplied QI-value         = 18.90
 optimisation between [QCUT,QGAM] = [ 10.20, 20.41] = [ 29.16,116.64] Ry 
 Optimized for a Real-space Cutoff    1.26 Angstroem

   l    n(q)    QCUT    max X(q) W(low)/X(q) W(high)/X(q)  e(spline) 
   1      7    10.205     2.974    0.63E-04    0.14E-03    0.13E-06
   1      7    10.205     4.279    0.11E-03    0.45E-03    0.24E-06
   0      8    10.205    16.381    0.44E-03    0.15E-03    0.55E-07
   0      8    10.205     5.611    0.31E-03    0.11E-03    0.40E-07
   2      7    10.205     4.652    0.50E-03    0.47E-03    0.57E-07
 Optimization of the real space projectors (new method)

 maximal supplied QI-value         = 16.25
 optimisation between [QCUT,QGAM] = [ 10.24, 20.48] = [ 29.35,117.42] Ry 
 Optimized for a Real-space Cutoff    1.34 Angstroem

   l    n(q)    QCUT    max X(q) W(low)/X(q) W(high)/X(q)  e(spline) 
   1      8    10.239     3.658    0.23E-03    0.30E-03    0.98E-07
   1      8    10.239     5.612    0.32E-03    0.65E-03    0.21E-06
   2      7    10.239    55.373    0.42E-03    0.45E-03    0.65E-07
   2      7    10.239    50.863    0.43E-03    0.48E-03    0.67E-07
   0      8    10.239    79.536    0.11E-03    0.21E-03    0.56E-07
   0      8    10.239    38.668    0.96E-04    0.19E-03    0.52E-07
 Optimization of the real space projectors (new method)

 maximal supplied QI-value         = 24.76
 optimisation between [QCUT,QGAM] = [ 10.15, 20.30] = [ 28.85,115.39] Ry 
 Optimized for a Real-space Cutoff    1.38 Angstroem

   l    n(q)    QCUT    max X(q) W(low)/X(q) W(high)/X(q)  e(spline) 
   0      8    10.150    20.381    0.22E-03    0.32E-03    0.29E-06
   0      8    10.150    15.268    0.23E-03    0.35E-03    0.30E-06
   1      8    10.150     5.964    0.46E-03    0.53E-03    0.21E-06
   1      8    10.150     5.382    0.38E-03    0.45E-03    0.19E-06
  PAW_PBE Na_pv 19Sep2006               :
 energy of atom  1       EATOM= -766.0439
 kinetic energy error for atom=    0.0103 (will be added to EATOM!!)
  PAW_PBE Mg_pv 13Apr2007               :
 energy of atom  2       EATOM=-1056.7344
 kinetic energy error for atom=    0.0820 (will be added to EATOM!!)
  PAW_PBE Mn_pv 02Aug2007               :
 energy of atom  3       EATOM=-2025.2664
 kinetic energy error for atom=    0.0284 (will be added to EATOM!!)
  PAW_PBE O 08Apr2002                   :
 energy of atom  4       EATOM= -432.3788
 kinetic energy error for atom=    0.1156 (will be added to EATOM!!)
 
 
 POSCAR: Na Mg Mn  O                             
  positions in cartesian coordinates
  No initial velocities read in

 METAGGA = SCAN     LMAXTAU =  6    LMIXTAU =  F

 exchange correlation table for  LEXCH =        8
   RHO(1)=    0.500       N(1)  =     2000
   RHO(2)=  100.500       N(2)  =     4000

 VTST: version 3.2, (02/03/18)

 CHAIN: initializing optimizer
 
 OPT: Using VASP Dynamics algorithm
 CHAIN: Read ICHAIN            0
 
 POSCAR: Na Mg Mn  O                             
  positions in cartesian coordinates
  No initial velocities read in
 


--------------------------------------------------------------------------------------------------------


 ion  position               nearest neighbor table
   1  0.094  0.189  0.258-  50 2.30  63 2.32  54 2.37
   2  0.606  0.016  0.744-  56 2.23  81 2.31  31 2.69  29 2.85
   3  0.996  0.240  0.751-  60 2.16  58 2.20  61 2.35  32 2.91  30 2.94
   4  0.894  0.480  0.757-  71 2.30  60 2.32
   5  0.407  0.683  0.243-  77 2.22  79 2.33  38 2.80
   6  0.238  0.972  0.256-  76 2.22  67 2.32  51 2.36
   7  0.463  0.226  0.746-  46 2.16  45 2.24  48 2.25  49 2.30  28 2.82
   8  0.247  0.717  0.740-  81 2.29  73 2.33
   9  0.049  0.480  0.242-  66 2.22  55 2.29  75 2.37  64 2.38  37 2.79  39 2.87
  10  0.921  0.711  0.247-  76 2.20  67 2.26  65 2.32  36 2.84  34 2.86
  11  0.611  0.210  0.244-  43 2.28  53 2.38
  12  0.403  0.506  0.737-  82 2.29  45 2.32  80 2.34
  13  0.765  0.701  0.743-  68 2.28  69 2.29
  14  0.093  0.972  0.757-  72 2.19  47 2.29  44 2.37  25 2.89  27 2.92
  15  0.563  0.487  0.247-  43 2.27  78 2.29  52 2.30  33 2.88  35 2.88
  16  0.754  0.999  0.248-  54 2.32
  17  0.761  0.357  0.991-  43 1.98  71 2.02  66 2.08  60 2.08  53 2.13  49 2.15  34 2.80
  18  0.747  0.351  0.506-  57 2.03  62 2.03  46 2.04  75 2.07  52 2.07  68 2.10  31 2.80  28 2.83

  19  0.250  0.344  0.008-  55 1.98  61 2.03  41 2.04  78 2.14  83 2.14  48 2.15  37 2.82  25 2.83

  20  0.250  0.352  0.493-  64 2.00  58 2.04  50 2.05  87 2.09  80 2.09  45 2.15  35 2.85
  21  0.252  0.841  0.992-  73 2.00  84 2.00  77 2.09  67 2.10  47 2.12  42 2.20  34 2.85
  22  0.253  0.860  0.498-  44 2.04  70 2.05  86 2.06  76 2.08  81 2.09  51 2.12  27 2.84  40 2.85

  23  0.766  0.849  0.020-  54 1.96  65 2.02  59 2.07  79 2.09  72 2.17  30 2.81  25 2.83  34 2.85

  24  0.742  0.848  0.501-  69 2.01  88 2.02  82 2.04  56 2.06  74 2.07  63 2.16  40 2.85
  25  0.091  0.019  0.011-  61 1.83  67 1.93  54 1.93  47 1.94  72 1.96  41 2.02  23 2.83  19 2.83
                            26 2.87  14 2.89  30 2.91  34 2.94
  26  0.422  0.183  0.011-  42 1.86  47 1.88  48 1.90  41 1.90  49 1.96  43 2.04  33 2.85  25 2.87
                            29 2.92
  27  0.085  0.021  0.501-  63 1.84  44 1.88  58 1.90  50 1.95  69 1.97  76 2.06  22 2.84  36 2.89
                            28 2.91  32 2.91  14 2.92
  28  0.421  0.194  0.497-  52 1.83  51 1.87  45 1.90  44 1.90  50 1.95  46 2.00  35 2.81   7 2.82
                            18 2.83  31 2.87  27 2.91
  29  0.584  0.009  0.997-  59 1.84  84 1.89  79 1.93  49 1.96  53 1.97  42 2.00  30 2.83   2 2.85
                            38 2.88  26 2.92
  30  0.910  0.172  0.004-  59 1.85  53 1.85  60 1.92  55 1.92  61 1.94  54 1.97  23 2.81  29 2.83
                            25 2.91   3 2.94  37 2.95
  31  0.586  0.029  0.505-  46 1.89  62 1.92  88 1.93  56 1.93  81 1.94  51 2.01   2 2.69  18 2.80
                            28 2.87  32 2.88  40 2.92
  32  0.918  0.189  0.499-  64 1.85  57 1.87  56 1.89  58 1.91  62 1.91  63 1.98  31 2.88  39 2.90
                             3 2.91  27 2.91
  33  0.585  0.511  0.991-  48 1.87  78 1.89  85 1.90  65 1.92  71 1.94  43 1.98  38 2.85  26 2.85
                            15 2.88  34 2.93
  34  0.923  0.680  0.994-  72 1.88  65 1.92  71 1.93  66 1.93  73 1.94  67 1.97  17 2.80  23 2.85
                            21 2.85  10 2.86  33 2.93  37 2.94  25 2.94
  35  0.578  0.518  0.503-  45 1.87  87 1.89  52 1.91  74 1.92  82 1.93  68 1.95  28 2.81  20 2.85
                            15 2.88  36 2.92  40 2.95
  36  0.914  0.687  0.500-  70 1.83  69 1.90  76 1.92  74 1.95  68 1.97  75 2.02  10 2.84  27 2.89
                            39 2.91  35 2.92
  37  0.093  0.512  0.996-  66 1.85  83 1.89  77 1.92  55 1.96  73 1.97  60 2.05   9 2.79  19 2.82
                            38 2.86  34 2.94  30 2.95
  38  0.423  0.677  0.994-  85 1.89  78 1.90  77 1.94  83 1.95  79 1.95  84 1.97   5 2.80  33 2.85
                            37 2.86  29 2.88
  39  0.085  0.523  0.496-  86 1.87  70 1.92  80 1.93  64 1.93  75 1.94  57 1.94  40 2.85   9 2.87
                            32 2.90  36 2.91
  40  0.413  0.692  0.510-  87 1.89  80 1.91  86 1.92  81 1.93  88 1.97  82 1.98  22 2.85  39 2.85
                            24 2.85  31 2.92  35 2.95
  41  0.267  0.184  0.108-  26 1.90  25 2.02  19 2.04
  42  0.432  0.031  0.098-  26 1.86  29 2.00  21 2.20
  43  0.605  0.361  0.095-  17 1.98  33 1.98  26 2.04  15 2.27  11 2.28
  44  0.254  0.039  0.587-  27 1.88  28 1.90  22 2.04  14 2.37
  45  0.432  0.354  0.595-  35 1.87  28 1.90  20 2.15   7 2.24  12 2.32
  46  0.574  0.177  0.601-  31 1.89  28 2.00  18 2.04   7 2.16
  47  0.261  0.038  0.914-  26 1.88  25 1.94  21 2.12  14 2.29
  48  0.433  0.340  0.909-  33 1.87  26 1.90  19 2.15   7 2.25
  49  0.568  0.166  0.905-  29 1.96  26 1.96  17 2.15   7 2.30
  50  0.250  0.175  0.402-  28 1.95  27 1.95  20 2.05   1 2.30
  51  0.431  0.047  0.402-  28 1.87  31 2.01  22 2.12   6 2.36
  52  0.571  0.354  0.411-  28 1.83  35 1.91  18 2.07  15 2.30
  53  0.754  0.173  0.091-  30 1.85  29 1.97  17 2.13  11 2.38
  54  0.933  0.024  0.105-  25 1.93  23 1.96  30 1.97  16 2.32   1 2.37
  55  0.073  0.339  0.091-  30 1.92  37 1.96  19 1.98   9 2.29
  56  0.756  0.035  0.591-  32 1.89  31 1.93  24 2.06   2 2.23
  57  0.928  0.352  0.587-  32 1.87  39 1.94  18 2.03
  58  0.075  0.178  0.588-  27 1.90  32 1.91  20 2.04   3 2.20
  59  0.749  0.015  0.921-  29 1.84  30 1.85  23 2.07
  60  0.928  0.331  0.898-  30 1.92  37 2.05  17 2.08   3 2.16   4 2.32
  61  0.075  0.162  0.921-  25 1.83  30 1.94  19 2.03   3 2.35
  62  0.751  0.181  0.410-  32 1.91  31 1.92  18 2.03
  63  0.938  0.030  0.409-  27 1.84  32 1.98  24 2.16   1 2.32
  64  0.071  0.349  0.411-  32 1.85  39 1.93  20 2.00   9 2.38
  65  0.752  0.656  0.088-  33 1.92  34 1.92  23 2.02  10 2.32
  66  0.947  0.530  0.084-  37 1.85  34 1.93  17 2.08   9 2.22
  67  0.079  0.845  0.095-  25 1.93  34 1.97  21 2.10  10 2.26   6 2.32
  68  0.746  0.532  0.599-  35 1.95  36 1.97  18 2.10  13 2.28
  69  0.917  0.850  0.590-  36 1.90  27 1.97  24 2.01  13 2.29
  70  0.068  0.680  0.581-  36 1.83  39 1.92  22 2.05
  71  0.757  0.528  0.898-  34 1.93  33 1.94  17 2.02   4 2.30
  72  0.944  0.851  0.909-  34 1.88  25 1.96  23 2.17  14 2.19
  73  0.081  0.671  0.900-  34 1.94  37 1.97  21 2.00   8 2.33
  74  0.742  0.671  0.407-  35 1.92  36 1.95  24 2.07
  75  0.920  0.521  0.402-  39 1.94  36 2.02  18 2.07   9 2.37
  76  0.069  0.841  0.399-  36 1.92  27 2.06  22 2.08  10 2.20   6 2.22
  77  0.258  0.667  0.091-  37 1.92  38 1.94  21 2.09   5 2.22
  78  0.445  0.534  0.090-  33 1.89  38 1.90  19 2.14  15 2.29
  79  0.572  0.844  0.094-  29 1.93  38 1.95  23 2.09   5 2.33
  80  0.246  0.527  0.593-  40 1.91  39 1.93  20 2.09  12 2.34
  81  0.429  0.863  0.601-  40 1.93  31 1.94  22 2.09   8 2.29   2 2.31
  82  0.573  0.674  0.600-  35 1.93  40 1.98  24 2.04  12 2.29
  83  0.253  0.522  0.900-  37 1.89  38 1.95  19 2.14
  84  0.430  0.850  0.904-  29 1.89  38 1.97  21 2.00
  85  0.578  0.669  0.903-  38 1.89  33 1.90
  86  0.250  0.678  0.411-  39 1.87  40 1.92  22 2.06
  87  0.433  0.547  0.415-  35 1.89  40 1.89  20 2.09
  88  0.573  0.860  0.412-  31 1.93  40 1.97  24 2.02
 
  LATTYP: Found a hexagonal cell.
 ALAT       =    10.0190000534
 C/A-ratio  =     1.1196726572
  
  Lattice vectors:
  
 A1 = (  10.0190000534,   0.0000000000,   0.0000000000)
 A2 = (  -5.0095000267,   8.6767085668,   0.0000000000)
 A3 = (   0.0000000000,   0.0000000000,  11.2180004120)


Analysis of symmetry for initial positions (statically):
=====================================================================
 Subroutine PRICEL returns:
 Original cell was already a primitive cell.
 

 Routine SETGRP: Setting up the symmetry group for a 
 hexagonal supercell.


 Subroutine GETGRP returns: Found  1 space group operations
 (whereof  1 operations were pure point group operations)
 out of a pool of 24 trial point group operations.


The static configuration has the point symmetry C_1 .


Analysis of symmetry for dynamics (positions and initial velocities):
=====================================================================
 Subroutine PRICEL returns:
 Original cell was already a primitive cell.
 

 Routine SETGRP: Setting up the symmetry group for a 
 hexagonal supercell.


 Subroutine GETGRP returns: Found  1 space group operations
 (whereof  1 operations were pure point group operations)
 out of a pool of 24 trial point group operations.


The dynamic configuration has the point symmetry C_1 .


Analysis of structural, dynamic, and magnetic symmetry:
=====================================================================
 Subroutine PRICEL returns:
 Original cell was already a primitive cell.
 

 Routine SETGRP: Setting up the symmetry group for a 
 hexagonal supercell.


 Subroutine GETGRP returns: Found  1 space group operations
 (whereof  1 operations were pure point group operations)
 out of a pool of 24 trial point group operations.


The magnetic configuration has the point symmetry C_1 .


 Subroutine INISYM returns: Found  1 space group operations
 (whereof  1 operations are pure point group operations),
 and found     1 'primitive' translations

 
 

Automatic generation of k-mesh.
 generate k-points for:    2    2    2
Space group operators:
 irot       det(A)        alpha          n_x          n_y          n_z        tau_x        tau_y        tau_z
    1     1.000000     0.000000     1.000000     0.000000     0.000000     0.000000     0.000000     0.000000
 
 Subroutine IBZKPT returns following result:
 ===========================================
 
 Found      8 irreducible k-points:
 
 Following reciprocal coordinates:
            Coordinates               Weight
  0.000000  0.000000  0.000000      1.000000
  0.500000 -0.000000 -0.000000      1.000000
  0.000000  0.500000  0.000000      1.000000
  0.500000  0.500000 -0.000000      1.000000
  0.000000  0.000000  0.500000      1.000000
  0.500000 -0.000000  0.500000      1.000000
  0.000000  0.500000  0.500000      1.000000
  0.500000  0.500000  0.500000      1.000000
 
 Following cartesian coordinates:
            Coordinates               Weight
  0.000000  0.000000  0.000000      1.000000
  0.049905  0.028813 -0.000000      1.000000
  0.000000  0.057626  0.000000      1.000000
  0.049905  0.086438 -0.000000      1.000000
  0.000000  0.000000  0.044571      1.000000
  0.049905  0.028813  0.044571      1.000000
  0.000000  0.057626  0.044571      1.000000
  0.049905  0.086438  0.044571      1.000000
 


--------------------------------------------------------------------------------------------------------




 Dimension of arrays:
   k-points           NKPTS =      8   k-points in BZ     NKDIM =      8   number of bands    NBANDS=    480
   number of dos      NEDOS =    301   number of ions     NIONS =     88
   non local maximal  LDIM  =      6   non local SUM 2l+1 LMDIM =     18
   total plane-waves  NPLWV = 140000
   max r-space proj   IRMAX =   1632   max aug-charges    IRDMAX=   4555
   dimension x,y,z NGX =    50 NGY =   50 NGZ =   56
   dimension x,y,z NGXF=   100 NGYF=  100 NGZF=  112
   support grid    NGXF=   100 NGYF=  100 NGZF=  112
   ions per type =              16   8  16  48
   NGX,Y,Z   is equivalent  to a cutoff of   8.30,  8.30,  8.30 a.u.
   NGXF,Y,Z  is equivalent  to a cutoff of  16.59, 16.59, 16.60 a.u.

 SYSTEM =  unknown system                          
 POSCAR =  Na Mg Mn  O                             

 Startparameter for this run:
   NWRITE =      2    write-flag & timer
   PREC   = normal    normal or accurate (medium, high low for compatibility)
   ISTART =      0    job   : 0-new  1-cont  2-samecut
   ICHARG =      1    charge: 1-file 2-atom 10-const
   ISPIN  =      2    spin polarized calculation?
   LNONCOLLINEAR =      F non collinear calculations
   LSORBIT =      F    spin-orbit coupling
   INIWAV =      1    electr: 0-lowe 1-rand  2-diag
   LASPH  =      T    aspherical Exc in radial PAW
   METAGGA=      F    non-selfconsistent MetaGGA calc.

 Electronic Relaxation 1
   ENCUT  =  400.0 eV  29.40 Ry    5.42 a.u.  16.34 16.34 18.29*2*pi/ulx,y,z
   ENINI  =  400.0     initial cutoff
   ENAUG  =  758.8 eV  augmentation charge cutoff
   NELM   =    200;   NELMIN=  6; NELMDL=-12     # of ELM steps 
   EDIFF  = 0.1E-04   stopping-criterion for ELM
   LREAL  =      T    real-space projection
   NLSPLINE    = F    spline interpolate recip. space projectors
   LCOMPAT=      F    compatible to vasp.4.4
   GGA_COMPAT  = T    GGA compatible to vasp.4.4-vasp.4.6
   LMAXPAW     = -100 max onsite density
   LMAXMIX     =    4 max onsite mixed and CHGCAR
   VOSKOWN=      0    Vosko Wilk Nusair interpolation
   ROPT   =   -0.00050  -0.00050  -0.00050  -0.00050
 Ionic relaxation
   EDIFFG = 0.1E-03   stopping-criterion for IOM
   NSW    =      1    number of steps for IOM
   NBLOCK =      1;   KBLOCK =      1    inner block; outer block 
   IBRION =     -1    ionic relax: 0-MD 1-quasi-New 2-CG
   NFREE  =      0    steps in history (QN), initial steepest desc. (CG)
   ISIF   =      2    stress and relaxation
   IWAVPR =     10    prediction:  0-non 1-charg 2-wave 3-comb
   ISYM   =      2    0-nonsym 1-usesym 2-fastsym
   LCORR  =      T    Harris-Foulkes like correction to forces

   POTIM  = 0.5000    time-step for ionic-motion
   TEIN   =    0.0    initial temperature
   TEBEG  =    0.0;   TEEND  =   0.0 temperature during run
   SMASS  =  -3.00    Nose mass-parameter (am)
   estimated Nose-frequenzy (Omega)   =  0.10E-29 period in steps =****** mass=  -0.229E-26a.u.
   SCALEE = 1.0000    scale energy and forces
   NPACO  =    256;   APACO  = 16.0  distance and # of slots for P.C.
   PSTRESS=    0.0 pullay stress

  Mass of Ions in am
   POMASS =  22.99 24.30 54.94 16.00
  Ionic Valenz
   ZVAL   =   7.00  8.00 13.00  6.00
  Atomic Wigner-Seitz radii
   RWIGS  =  -1.00 -1.00 -1.00 -1.00
  virtual crystal weights 
   VCA    =   1.00  1.00  1.00  1.00
   NELECT =     672.0000    total number of electrons
   NUPDOWN=      48.0000    fix difference up-down

 DOS related values:
   EMIN   =  10.00;   EMAX   =-10.00  energy-range for DOS
   EFERMI =   0.00
   ISMEAR =     0;   SIGMA  =   0.05  broadening in eV -4-tet -1-fermi 0-gaus

 Electronic relaxation 2 (details)
   IALGO  =     48    algorithm
   LDIAG  =      T    sub-space diagonalisation (order eigenvalues)
   LSUBROT=      F    optimize rotation matrix (better conditioning)
   TURBO    =      0    0=normal 1=particle mesh
   IRESTART =      0    0=no restart 2=restart with 2 vectors
   NREBOOT  =      0    no. of reboots
   NMIN     =      0    reboot dimension
   EREF     =   0.00    reference energy to select bands
   IMIX   =      4    mixing-type and parameters
     AMIX     =   0.40;   BMIX     =  1.00
     AMIX_MAG =   1.60;   BMIX_MAG =  1.00
     AMIN     =   0.10
     WC   =   100.;   INIMIX=   1;  MIXPRE=   1;  MAXMIX= -45

 Intra band minimization:
   WEIMIN = 0.0000     energy-eigenvalue tresh-hold
   EBREAK =  0.52E-08  absolut break condition
   DEPER  =   0.30     relativ break condition  

   TIME   =   0.40     timestep for ELM

  volume/ion in A,a.u.               =      11.08        74.78
  Fermi-wavevector in a.u.,A,eV,Ry     =   1.445993  2.732531 28.448379  2.090897
  Thomas-Fermi vector in A             =   2.564112
 
 Write flags
   LWAVE        =      F    write WAVECAR
   LDOWNSAMPLE  =      F    k-point downsampling of WAVECAR
   LCHARG       =      F    write CHGCAR
   LVTOT        =      F    write LOCPOT, total local potential
   LVHAR        =      F    write LOCPOT, Hartree potential only
   LELF         =      F    write electronic localiz. function (ELF)
   LORBIT       =     11    0 simple, 1 ext, 2 COOP (PROOUT), +10 PAW based schemes


 Dipole corrections
   LMONO  =      F    monopole corrections only (constant potential shift)
   LDIPOL =      F    correct potential (dipole corrections)
   IDIPOL =      0    1-x, 2-y, 3-z, 4-all directions 
   EPSILON=  1.0000000 bulk dielectric constant

 Exchange correlation treatment:
   GGA     =    --    GGA type
   LEXCH   =     8    internal setting for exchange type
   VOSKOWN=      0    Vosko Wilk Nusair interpolation
   LHFCALC =     F    Hartree Fock is set to
   LHFONE  =     F    Hartree Fock one center treatment
   AEXX    =    0.0000 exact exchange contribution

 Linear response parameters
   LEPSILON=     F    determine dielectric tensor
   LRPA    =     F    only Hartree local field effects (RPA)
   LNABLA  =     F    use nabla operator in PAW spheres
   LVEL    =     F    velocity operator in full k-point grid
   LINTERFAST=   F  fast interpolation
   KINTER  =     0    interpolate to denser k-point grid
   CSHIFT  =0.1000    complex shift for real part using Kramers Kronig
   OMEGAMAX=  -1.0    maximum frequency
   DEG_THRESHOLD= 0.2000000E-02 threshold for treating states as degnerate
   RTIME   =   -0.100 relaxation time in fs
  (WPLASMAI=    0.000 imaginary part of plasma frequency in eV, 0.658/RTIME)
   DFIELD  = 0.0000000 0.0000000 0.0000000 field for delta impulse in time
 
 Orbital magnetization related:
   ORBITALMAG=     F  switch on orbital magnetization
   LCHIMAG   =     F  perturbation theory with respect to B field
   DQ        =  0.001000  dq finite difference perturbation B field
   LLRAUG    =     F  two centre corrections for induced B field



--------------------------------------------------------------------------------------------------------


 Static calculation
 charge density and potential will be updated during run
 spin polarized calculation
 RMM-DIIS sequential band-by-band
 perform sub-space diagonalisation
    before iterative eigenvector-optimisation
 modified Broyden-mixing scheme, WC =      100.0
 initial mixing is a Kerker type mixing with AMIX =  0.4000 and BMIX =      1.0000
 Hartree-type preconditioning will be used
 using additional bands          144
 real space projection scheme for non local part
 use partial core corrections
 calculate Harris-corrections to forces 
   (improved forces if not selfconsistent)
 use gradient corrections 
 use of overlap-Matrix (Vanderbilt PP)
 Gauss-broadening in eV      SIGMA  =   0.05


--------------------------------------------------------------------------------------------------------


  energy-cutoff  :      400.00
  volume of cell :      975.20
      direct lattice vectors                 reciprocal lattice vectors
    10.019000053  0.000000000  0.000000000     0.099810360  0.057625538 -0.000000000
    -5.009500027  8.676708567  0.000000000     0.000000000  0.115251076  0.000000000
     0.000000000  0.000000000 11.218000412     0.000000000  0.000000000  0.089142446

  length of vectors
    10.019000053 10.019000053 11.218000412     0.115251076  0.115251076  0.089142446


 
 k-points in units of 2pi/SCALE and weight: read from INCAR                         
   0.00000000  0.00000000  0.00000000       0.125
   0.04990518  0.02881277 -0.00000000       0.125
   0.00000000  0.05762554  0.00000000       0.125
   0.04990518  0.08643831 -0.00000000       0.125
   0.00000000  0.00000000  0.04457122       0.125
   0.04990518  0.02881277  0.04457122       0.125
   0.00000000  0.05762554  0.04457122       0.125
   0.04990518  0.08643831  0.04457122       0.125
 
 k-points in reciprocal lattice and weights: read from INCAR                         
   0.00000000  0.00000000  0.00000000       0.125
   0.50000000 -0.00000000 -0.00000000       0.125
   0.00000000  0.50000000  0.00000000       0.125
   0.50000000  0.50000000 -0.00000000       0.125
   0.00000000  0.00000000  0.50000000       0.125
   0.50000000 -0.00000000  0.50000000       0.125
   0.00000000  0.50000000  0.50000000       0.125
   0.50000000  0.50000000  0.50000000       0.125
 
 position of ions in fractional coordinates (direct lattice) 
   0.09423952  0.18861876  0.25761810
   0.60569284  0.01550983  0.74402475
   0.99631748  0.24016464  0.75099124
   0.89374140  0.47996508  0.75665000
   0.40696103  0.68285308  0.24279104
   0.23755172  0.97227882  0.25630593
   0.46295222  0.22625383  0.74613921
   0.24654258  0.71705959  0.73951950
   0.04926679  0.47990894  0.24217150
   0.92056187  0.71113075  0.24704759
   0.61119070  0.20984521  0.24405954
   0.40275420  0.50559824  0.73693436
   0.76487873  0.70065278  0.74301834
   0.09327751  0.97174309  0.75697804
   0.56318061  0.48676045  0.24684702
   0.75386005  0.99908651  0.24758512
   0.76137889  0.35740396  0.99057229
   0.74719607  0.35085885  0.50569084
   0.25034773  0.34447048  0.00762760
   0.24974879  0.35246315  0.49347654
   0.25202614  0.84119571  0.99213760
   0.25304437  0.86041152  0.49804865
   0.76577444  0.84928518  0.01974505
   0.74181063  0.84816263  0.50148599
   0.09116930  0.01863165  0.01123097
   0.42207538  0.18340019  0.01052665
   0.08549072  0.02053330  0.50085931
   0.42090450  0.19433521  0.49747636
   0.58438207  0.00930093  0.99728112
   0.91000687  0.17236029  0.00362806
   0.58599349  0.02853633  0.50522284
   0.91802324  0.18871442  0.49933765
   0.58519745  0.51098178  0.99125245
   0.92341251  0.68038127  0.99365511
   0.57784566  0.51775739  0.50262879
   0.91435375  0.68719837  0.49975930
   0.09337250  0.51184732  0.99601675
   0.42274292  0.67697560  0.99387688
   0.08512442  0.52310043  0.49553484
   0.41331405  0.69247918  0.50954446
   0.26661347  0.18376093  0.10802103
   0.43169210  0.03094584  0.09752362
   0.60476495  0.36141931  0.09527812
   0.25447316  0.03919286  0.58711979
   0.43236541  0.35442241  0.59476732
   0.57373964  0.17675366  0.60126134
   0.26066373  0.03841099  0.91423602
   0.43265767  0.33989963  0.90912815
   0.56809201  0.16614710  0.90487606
   0.24995219  0.17520930  0.40214208
   0.43096370  0.04669236  0.40244516
   0.57134121  0.35422649  0.41109644
   0.75365709  0.17289160  0.09101533
   0.93270728  0.02441248  0.10488322
   0.07340892  0.33914243  0.09128632
   0.75647811  0.03497640  0.59114992
   0.92810719  0.35160914  0.58723656
   0.07524943  0.17832799  0.58777231
   0.74899586  0.01456624  0.92103758
   0.92755025  0.33147938  0.89849346
   0.07548826  0.16239683  0.92131393
   0.75134413  0.18074596  0.41047155
   0.93809427  0.02983862  0.40899713
   0.07102063  0.34862874  0.41123015
   0.75247619  0.65614512  0.08817267
   0.94686846  0.52964669  0.08431360
   0.07936703  0.84522373  0.09493492
   0.74629205  0.53171776  0.59892759
   0.91699316  0.84959866  0.58950167
   0.06843046  0.67991911  0.58133890
   0.75657839  0.52808043  0.89805666
   0.94435802  0.85137699  0.90860221
   0.08086632  0.67064371  0.90024957
   0.74215736  0.67085231  0.40682384
   0.92024036  0.52061447  0.40249865
   0.06854062  0.84144695  0.39864413
   0.25774408  0.66691764  0.09098859
   0.44547892  0.53414379  0.09013460
   0.57163216  0.84422451  0.09426279
   0.24586194  0.52742465  0.59285610
   0.42872570  0.86307382  0.60077730
   0.57326168  0.67435249  0.60031822
   0.25272948  0.52194101  0.89970580
   0.43009311  0.84994903  0.90404703
   0.57768905  0.66949926  0.90336064
   0.24996342  0.67838397  0.41084595
   0.43305228  0.54663355  0.41496254
   0.57335888  0.86040576  0.41203422
 
 position of ions in cartesian coordinates  (Angst):
  -0.00069995  1.63659000  2.88996000
   5.99074008  0.13457430  8.34647000
   8.77900013  2.08383857  8.42462000
   6.55001000  4.16451713  8.48810000
   0.65659005  5.92491713  2.72363000
  -2.49060011  8.43618000  2.87524000
   3.50489976  1.96313857  8.37019000
  -1.12199995  6.22171713  8.29593000
  -1.91049989  4.16403000  2.71668000
   5.66069992  6.17027430  2.77138000
   5.07230011  1.82076573  2.73786000
   1.50239992  4.38692857  8.26693000
   4.15339995  6.07936000  8.33518000
  -3.93339965  8.43153157  8.49178000
   3.20408003  4.22347857  2.76913000
   2.54799992  8.66878252  2.77741000
   5.83784000  3.10109000 11.11224041
   5.72853000  3.04430000  5.67284000
   0.78260900  2.98887000  0.08556640
   0.73656900  3.05822000  5.53582000
  -1.68892000  7.29881000 11.12980000
  -1.77498000  7.46554000  5.58711000
   3.41780000  7.36900000  0.22150000
   3.18333000  7.35926000  5.62567000
   0.82008997  0.16166143  0.12598900
   3.31003000  1.59131000  0.11808800
   0.75366997  0.17816143  5.61864000
   3.24352000  1.68619000  5.58069000
   5.80833103  0.08070143 11.18750000
   8.25392000  1.49552000  0.04069959
   5.72811603  0.24760143  5.66759000
   8.25231000  1.63742000  5.60157000
   3.30333000  4.43364000 11.11987041
   5.84330000  5.90347000 11.14682341
   3.19573000  4.49243000  5.63849000
   5.71839000  5.96262000  5.60630000
  -1.62860005  4.44115000 11.17331631
   0.84415200  5.87392000 11.14931121
  -1.76761005  4.53879000  5.55891000
   0.67201900  6.00844000  5.71607000
   1.75065000  1.59444000  1.21178000
   4.17010000  0.26850800  1.09402000
   4.24861000  3.13593000  1.06883000
   2.35323000  0.34006500  6.58631000
   2.55639000  3.07522000  6.67210000
   4.86285000  1.53364000  6.74495000
   2.41917000  0.33328100 10.25590000
   2.63207000  2.94921000 10.19860000
   4.85940000  1.44161000 10.15090000
   1.62656000  1.52024000  4.51123000
   4.08392000  0.40513600  4.51463000
   3.94977000  3.07352000  4.61168000
   6.68479000  1.50013000  1.02101000
   9.22250000  0.21182000  1.17658000
  -0.96345005  2.94264000  1.02405000
   7.40394000  0.30348000  6.63152000
   7.53732000  3.05081000  6.58762000
  -0.13941005  1.54730000  6.59363000
   7.43122000  0.12638700 10.33220000
   7.63258000  2.87615000 10.07930000
  -0.05721005  1.40907000 10.33530000
   6.62227000  1.56828000  4.60467000
   9.24929000  0.25890100  4.58813000
  -1.03490005  3.02495000  4.61318000
   4.25210000  5.69318000  0.98912100
   6.83341000  4.59559000  0.94583000
  -3.43897005  7.33376000  1.06498000
   4.81346000  4.61356000  6.71877000
   4.93129000  7.37172000  6.61303000
  -2.72045005  5.89946000  6.52146000
   4.93474000  4.58200000 10.07440000
   5.19655000  7.38715000 10.19270000
  -2.54939005  5.81898000 10.09900000
   4.07504000  5.82079000  4.56375000
   6.61187000  4.51722000  4.51523000
  -3.52852005  7.30099000  4.47199000
  -0.75858600  5.78665000  1.02071000
   1.78746000  4.63461000  1.01113000
   1.49804000  7.32509000  1.05744000
  -0.17884300  4.57631000  6.65066000
  -0.02816550  7.48864000  6.73952000
   2.36534000  5.85116000  6.73437000
  -0.08256680  4.52873000 10.09290000
   0.05128320  7.37476000 10.14160000
   2.43401000  5.80905000 10.13390000
  -0.89398100  5.88614000  4.60887000
   1.60039000  4.74298000  4.65505000
   1.43428000  7.46549000  4.62220000
 


--------------------------------------------------------------------------------------------------------


 k-point  1 :   0.0000 0.0000 0.0000  plane waves:   17725
 k-point  2 :   0.5000-0.0000-0.0000  plane waves:   17736
 k-point  3 :   0.0000 0.5000 0.0000  plane waves:   17736
 k-point  4 :   0.5000 0.5000-0.0000  plane waves:   17736
 k-point  5 :   0.0000 0.0000 0.5000  plane waves:   17676
 k-point  6 :   0.5000-0.0000 0.5000  plane waves:   17700
 k-point  7 :   0.0000 0.5000 0.5000  plane waves:   17700
 k-point  8 :   0.5000 0.5000 0.5000  plane waves:   17700

 maximum and minimum number of plane-waves per node :     17736    17676

 maximum number of plane-waves:     17736
 maximum index in each direction: 
   IXMAX=   16   IYMAX=   16   IZMAX=   18
   IXMIN=  -16   IYMIN=  -16   IZMIN=  -18


 serial   3D FFT for wavefunctions
 parallel 3D FFT for charge:
    minimum data exchange during FFTs selected (reduces bandwidth)


 total amount of memory used by VASP MPI-rank0    94445. kBytes
=======================================================================

   base      :      30000. kBytes
   nonlr-proj:      13686. kBytes
   fftplans  :       1275. kBytes
   grid      :      22786. kBytes
   one-center:       2737. kBytes
   wavefun   :      23961. kBytes
 
     INWAV:  cpu time    0.0000: real time    0.0001
 Broyden mixing: mesh for mixing (old mesh)
   NGX = 33   NGY = 33   NGZ = 37
  (NGX  =100   NGY  =100   NGZ  =112)
  gives a total of  40293 points

 initial charge density was supplied:
 charge density of overlapping atoms calculated
 number of electron     672.0000000 magnetization      48.0000000
 keeping initial charge density in first step


--------------------------------------------------------------------------------------------------------


 Maximum index for non-local projection operator         1552
 Maximum index for augmentation-charges          502 (set IRDMAX)


--------------------------------------------------------------------------------------------------------


 First call to EWALD:  gamma=   0.179
 Maximum number of real-space cells 3x 3x 2
 Maximum number of reciprocal cells 3x 3x 3

    FEWALD:  cpu time    0.0027: real time    0.0027


--------------------------------------- Iteration      1(   1)  ---------------------------------------


    POTLOK:  cpu time    0.1932: real time    0.1943
    SETDIJ:  cpu time    4.6043: real time    4.6061
    EDDIAG:  cpu time    4.4398: real time    4.8349
  RMM-DIIS:  cpu time    9.1737: real time    9.1855
    ORTHCH:  cpu time    1.1629: real time    1.2482
       DOS:  cpu time    0.0022: real time    0.0023
    --------------------------------------------
      LOOP:  cpu time   19.5760: real time   20.0714

 eigenvalue-minimisations  :  7680
 total energy-change (2. order) : 0.1591140E+04  (-0.3496172E+05)
 number of electron     672.0000000 magnetization      48.0000000
 augmentation part      672.0000000 magnetization      48.0000000

 Free energy of the ion-electron system (eV)
  ---------------------------------------------------
  alpha Z        PSCENC =      2652.81237852
  Ewald energy   TEWEN  =    -41819.72679265
  -Hartree energ DENC   =    -25791.11516597
  -exchange      EXHF   =         0.00000000
  -V(xc)+E(xc)   XCENC  =      3606.12104998
  PAW double counting   =     55594.23204139   -59034.67079123
  entropy T*S    EENTRO =        -0.05541701
  eigenvalues    EBANDS =     -7478.65576167
  atomic energy  EATOM  =     73862.19814772
  Solvation  Ediel_sol  =         0.00000000
  ---------------------------------------------------
  free energy    TOTEN  =      1591.13968908 eV

  energy without entropy =     1591.19510609  energy(sigma->0) =     1591.16739759


--------------------------------------------------------------------------------------------------------




--------------------------------------- Iteration      1(   2)  ---------------------------------------


    EDDIAG:  cpu time    4.4982: real time    4.8727
  RMM-DIIS:  cpu time    9.1585: real time    9.1944
    ORTHCH:  cpu time    1.1694: real time    1.2513
       DOS:  cpu time    0.0019: real time    0.0019
    --------------------------------------------
      LOOP:  cpu time   14.8280: real time   15.3204

 eigenvalue-minimisations  :  7680
 total energy-change (2. order) :-0.2315815E+04  (-0.8024585E+04)
 number of electron     672.0000000 magnetization      48.0000000
 augmentation part      672.0000000 magnetization      48.0000000

 Free energy of the ion-electron system (eV)
  ---------------------------------------------------
  alpha Z        PSCENC =      2652.81237852
  Ewald energy   TEWEN  =    -41819.72679265
  -Hartree energ DENC   =    -25791.11516597
  -exchange      EXHF   =         0.00000000
  -V(xc)+E(xc)   XCENC  =      3606.12104998
  PAW double counting   =     55594.23204139   -59034.67079123
  entropy T*S    EENTRO =        -0.04671999
  eigenvalues    EBANDS =     -9794.47900458
  atomic energy  EATOM  =     73862.19814772
  Solvation  Ediel_sol  =         0.00000000
  ---------------------------------------------------
  free energy    TOTEN  =      -724.67485681 eV

  energy without entropy =     -724.62813682  energy(sigma->0) =     -724.65149681


--------------------------------------------------------------------------------------------------------




--------------------------------------- Iteration      1(   3)  ---------------------------------------


    EDDIAG:  cpu time    4.4555: real time    4.8507
  RMM-DIIS:  cpu time    9.1998: real time    9.2262
    ORTHCH:  cpu time    1.1861: real time    1.2690
       DOS:  cpu time    0.0022: real time    0.0022
    --------------------------------------------
      LOOP:  cpu time   14.8436: real time   15.3482

 eigenvalue-minimisations  :  7680
 total energy-change (2. order) : 0.8042601E+02  (-0.1422918E+04)
 number of electron     672.0000000 magnetization      48.0000000
 augmentation part      672.0000000 magnetization      48.0000000

 Free energy of the ion-electron system (eV)
  ---------------------------------------------------
  alpha Z        PSCENC =      2652.81237852
  Ewald energy   TEWEN  =    -41819.72679265
  -Hartree energ DENC   =    -25791.11516597
  -exchange      EXHF   =         0.00000000
  -V(xc)+E(xc)   XCENC  =      3606.12104998
  PAW double counting   =     55594.23204139   -59034.67079123
  entropy T*S    EENTRO =        -0.03380608
  eigenvalues    EBANDS =     -9714.06590406
  atomic energy  EATOM  =     73862.19814772
  Solvation  Ediel_sol  =         0.00000000
  ---------------------------------------------------
  free energy    TOTEN  =      -644.24884237 eV

  energy without entropy =     -644.21503630  energy(sigma->0) =     -644.23193933


--------------------------------------------------------------------------------------------------------




--------------------------------------- Iteration      1(   4)  ---------------------------------------


    EDDIAG:  cpu time    4.4797: real time    4.8621
  RMM-DIIS:  cpu time    9.2066: real time    9.2119
    ORTHCH:  cpu time    1.1657: real time    1.2532
       DOS:  cpu time    0.0017: real time    0.0017
    --------------------------------------------
      LOOP:  cpu time   14.8537: real time   15.3289

 eigenvalue-minimisations  :  7680
 total energy-change (2. order) :-0.4670109E+03  (-0.4285554E+03)
 number of electron     672.0000000 magnetization      48.0000000
 augmentation part      672.0000000 magnetization      48.0000000

 Free energy of the ion-electron system (eV)
  ---------------------------------------------------
  alpha Z        PSCENC =      2652.81237852
  Ewald energy   TEWEN  =    -41819.72679265
  -Hartree energ DENC   =    -25791.11516597
  -exchange      EXHF   =         0.00000000
  -V(xc)+E(xc)   XCENC  =      3606.12104998
  PAW double counting   =     55594.23204139   -59034.67079123
  entropy T*S    EENTRO =        -0.00000000
  eigenvalues    EBANDS =    -10181.11064198
  atomic energy  EATOM  =     73862.19814772
  Solvation  Ediel_sol  =         0.00000000
  ---------------------------------------------------
  free energy    TOTEN  =     -1111.25977422 eV

  energy without entropy =    -1111.25977422  energy(sigma->0) =    -1111.25977422


--------------------------------------------------------------------------------------------------------




--------------------------------------- Iteration      1(   5)  ---------------------------------------


    EDDIAG:  cpu time    4.5467: real time    4.8437
  RMM-DIIS:  cpu time    9.2006: real time    9.2179
    ORTHCH:  cpu time    1.1712: real time    1.2540
       DOS:  cpu time    0.0013: real time    0.0013
    --------------------------------------------
      LOOP:  cpu time   14.9197: real time   15.3169

 eigenvalue-minimisations  :  7680
 total energy-change (2. order) :-0.1038332E+03  (-0.1593952E+03)
 number of electron     672.0000000 magnetization      48.0000000
 augmentation part      672.0000000 magnetization      48.0000000

 Free energy of the ion-electron system (eV)
  ---------------------------------------------------
  alpha Z        PSCENC =      2652.81237852
  Ewald energy   TEWEN  =    -41819.72679265
  -Hartree energ DENC   =    -25791.11516597
  -exchange      EXHF   =         0.00000000
  -V(xc)+E(xc)   XCENC  =      3606.12104998
  PAW double counting   =     55594.23204139   -59034.67079123
  entropy T*S    EENTRO =        -0.00000000
  eigenvalues    EBANDS =    -10284.94384282
  atomic energy  EATOM  =     73862.19814772
  Solvation  Ediel_sol  =         0.00000000
  ---------------------------------------------------
  free energy    TOTEN  =     -1215.09297506 eV

  energy without entropy =    -1215.09297506  energy(sigma->0) =    -1215.09297506


--------------------------------------------------------------------------------------------------------




--------------------------------------- Iteration      1(   6)  ---------------------------------------


    EDDIAG:  cpu time    4.5075: real time    4.9169
  RMM-DIIS:  cpu time    9.1794: real time    9.1879
    ORTHCH:  cpu time    1.1690: real time    1.2525
       DOS:  cpu time    0.0011: real time    0.0011
    --------------------------------------------
      LOOP:  cpu time   14.8571: real time   15.3584

 eigenvalue-minimisations  :  7680
 total energy-change (2. order) :-0.9062340E+01  (-0.7906098E+02)
 number of electron     672.0000000 magnetization      48.0000000
 augmentation part      672.0000000 magnetization      48.0000000

 Free energy of the ion-electron system (eV)
  ---------------------------------------------------
  alpha Z        PSCENC =      2652.81237852
  Ewald energy   TEWEN  =    -41819.72679265
  -Hartree energ DENC   =    -25791.11516597
  -exchange      EXHF   =         0.00000000
  -V(xc)+E(xc)   XCENC  =      3606.12104998
  PAW double counting   =     55594.23204139   -59034.67079123
  entropy T*S    EENTRO =        -0.00000000
  eigenvalues    EBANDS =    -10294.00618303
  atomic energy  EATOM  =     73862.19814772
  Solvation  Ediel_sol  =         0.00000000
  ---------------------------------------------------
  free energy    TOTEN  =     -1224.15531526 eV

  energy without entropy =    -1224.15531526  energy(sigma->0) =    -1224.15531526


--------------------------------------------------------------------------------------------------------




--------------------------------------- Iteration      1(   7)  ---------------------------------------


    EDDIAG:  cpu time    4.4598: real time    4.8391
  RMM-DIIS:  cpu time    9.1805: real time    9.1953
    ORTHCH:  cpu time    1.1704: real time    1.2536
       DOS:  cpu time    0.0020: real time    0.0020
    --------------------------------------------
      LOOP:  cpu time   14.8127: real time   15.2900

 eigenvalue-minimisations  :  7680
 total energy-change (2. order) :-0.1769355E+01  (-0.4814309E+02)
 number of electron     672.0000000 magnetization      48.0000000
 augmentation part      672.0000000 magnetization      48.0000000

 Free energy of the ion-electron system (eV)
  ---------------------------------------------------
  alpha Z        PSCENC =      2652.81237852
  Ewald energy   TEWEN  =    -41819.72679265
  -Hartree energ DENC   =    -25791.11516597
  -exchange      EXHF   =         0.00000000
  -V(xc)+E(xc)   XCENC  =      3606.12104998
  PAW double counting   =     55594.23204139   -59034.67079123
  entropy T*S    EENTRO =        -0.00000000
  eigenvalues    EBANDS =    -10295.77553787
  atomic energy  EATOM  =     73862.19814772
  Solvation  Ediel_sol  =         0.00000000
  ---------------------------------------------------
  free energy    TOTEN  =     -1225.92467011 eV

  energy without entropy =    -1225.92467011  energy(sigma->0) =    -1225.92467011


--------------------------------------------------------------------------------------------------------




--------------------------------------- Iteration      1(   8)  ---------------------------------------


    EDDIAG:  cpu time    4.5236: real time    4.8690
  RMM-DIIS:  cpu time    9.1907: real time    9.1992
    ORTHCH:  cpu time    1.1719: real time    1.2549
       DOS:  cpu time    0.0013: real time    0.0013
    --------------------------------------------
      LOOP:  cpu time   14.8875: real time   15.3244

 eigenvalue-minimisations  :  7680
 total energy-change (2. order) : 0.4920843E+01  (-0.2991567E+02)
 number of electron     672.0000000 magnetization      48.0000000
 augmentation part      672.0000000 magnetization      48.0000000

 Free energy of the ion-electron system (eV)
  ---------------------------------------------------
  alpha Z        PSCENC =      2652.81237852
  Ewald energy   TEWEN  =    -41819.72679265
  -Hartree energ DENC   =    -25791.11516597
  -exchange      EXHF   =         0.00000000
  -V(xc)+E(xc)   XCENC  =      3606.12104998
  PAW double counting   =     55594.23204139   -59034.67079123
  entropy T*S    EENTRO =        -0.00000000
  eigenvalues    EBANDS =    -10290.85469448
  atomic energy  EATOM  =     73862.19814772
  Solvation  Ediel_sol  =         0.00000000
  ---------------------------------------------------
  free energy    TOTEN  =     -1221.00382672 eV

  energy without entropy =    -1221.00382672  energy(sigma->0) =    -1221.00382672


--------------------------------------------------------------------------------------------------------




--------------------------------------- Iteration      1(   9)  ---------------------------------------


    EDDIAG:  cpu time    4.5241: real time    4.8253
  RMM-DIIS:  cpu time   19.1679: real time   19.1993
    ORTHCH:  cpu time    1.1749: real time    1.2594
       DOS:  cpu time    0.0012: real time    0.0012
    --------------------------------------------
      LOOP:  cpu time   24.8681: real time   25.2851

 eigenvalue-minimisations  : 21802
 total energy-change (2. order) : 0.9251325E+01  (-0.1318796E+02)
 number of electron     672.0000000 magnetization      48.0000000
 augmentation part      672.0000000 magnetization      48.0000000

 Free energy of the ion-electron system (eV)
  ---------------------------------------------------
  alpha Z        PSCENC =      2652.81237852
  Ewald energy   TEWEN  =    -41819.72679265
  -Hartree energ DENC   =    -25791.11516597
  -exchange      EXHF   =         0.00000000
  -V(xc)+E(xc)   XCENC  =      3606.12104998
  PAW double counting   =     55594.23204139   -59034.67079123
  entropy T*S    EENTRO =        -0.00000000
  eigenvalues    EBANDS =    -10281.60336923
  atomic energy  EATOM  =     73862.19814772
  Solvation  Ediel_sol  =         0.00000000
  ---------------------------------------------------
  free energy    TOTEN  =     -1211.75250147 eV

  energy without entropy =    -1211.75250147  energy(sigma->0) =    -1211.75250147


--------------------------------------------------------------------------------------------------------




--------------------------------------- Iteration      1(  10)  ---------------------------------------


    EDDIAG:  cpu time    4.4998: real time    4.8346
  RMM-DIIS:  cpu time   17.8179: real time   17.8368
    ORTHCH:  cpu time    1.1846: real time    1.2654
       DOS:  cpu time    0.0012: real time    0.0012
    --------------------------------------------
      LOOP:  cpu time   23.5034: real time   23.9380

 eigenvalue-minimisations  : 19723
 total energy-change (2. order) :-0.1884341E+01  (-0.5282621E+00)
 number of electron     672.0000000 magnetization      48.0000000
 augmentation part      672.0000000 magnetization      48.0000000

 Free energy of the ion-electron system (eV)
  ---------------------------------------------------
  alpha Z        PSCENC =      2652.81237852
  Ewald energy   TEWEN  =    -41819.72679265
  -Hartree energ DENC   =    -25791.11516597
  -exchange      EXHF   =         0.00000000
  -V(xc)+E(xc)   XCENC  =      3606.12104998
  PAW double counting   =     55594.23204139   -59034.67079123
  entropy T*S    EENTRO =        -0.00000000
  eigenvalues    EBANDS =    -10283.48771026
  atomic energy  EATOM  =     73862.19814772
  Solvation  Ediel_sol  =         0.00000000
  ---------------------------------------------------
  free energy    TOTEN  =     -1213.63684250 eV

  energy without entropy =    -1213.63684250  energy(sigma->0) =    -1213.63684250


--------------------------------------------------------------------------------------------------------




--------------------------------------- Iteration      1(  11)  ---------------------------------------


    EDDIAG:  cpu time    4.6150: real time    4.9078
  RMM-DIIS:  cpu time   20.1605: real time   20.1716
    ORTHCH:  cpu time    1.1677: real time    1.2513
       DOS:  cpu time    0.0015: real time    0.0015
    --------------------------------------------
      LOOP:  cpu time   25.9448: real time   26.3321

 eigenvalue-minimisations  : 22560
 total energy-change (2. order) : 0.7028038E-01  (-0.4355558E-01)
 number of electron     672.0000000 magnetization      48.0000000
 augmentation part      672.0000000 magnetization      48.0000000

 Free energy of the ion-electron system (eV)
  ---------------------------------------------------
  alpha Z        PSCENC =      2652.81237852
  Ewald energy   TEWEN  =    -41819.72679265
  -Hartree energ DENC   =    -25791.11516597
  -exchange      EXHF   =         0.00000000
  -V(xc)+E(xc)   XCENC  =      3606.12104998
  PAW double counting   =     55594.23204139   -59034.67079123
  entropy T*S    EENTRO =        -0.00000000
  eigenvalues    EBANDS =    -10283.41742988
  atomic energy  EATOM  =     73862.19814772
  Solvation  Ediel_sol  =         0.00000000
  ---------------------------------------------------
  free energy    TOTEN  =     -1213.56656212 eV

  energy without entropy =    -1213.56656212  energy(sigma->0) =    -1213.56656212


--------------------------------------------------------------------------------------------------------




--------------------------------------- Iteration      1(  12)  ---------------------------------------


    EDDIAG:  cpu time    4.6087: real time    4.9041
  RMM-DIIS:  cpu time   21.5799: real time   21.6222
    ORTHCH:  cpu time    1.1680: real time    1.2508
       DOS:  cpu time    0.0017: real time    0.0017
    CHARGE:  cpu time    1.7911: real time    1.7917
    MIXING:  cpu time    0.0024: real time    0.0026
    --------------------------------------------
      LOOP:  cpu time   29.1518: real time   29.5731

 eigenvalue-minimisations  : 24408
 total energy-change (2. order) :-0.7712384E-03  (-0.4324512E-02)
 number of electron     672.0000600 magnetization      48.0000001
 augmentation part      239.1066098 magnetization      29.0452713

 Broyden mixing:
  rms(total) = 0.12604E+02    rms(broyden)= 0.12595E+02
  rms(prec ) = 0.14443E+02
  weight for this iteration     100.00

 Free energy of the ion-electron system (eV)
  ---------------------------------------------------
  alpha Z        PSCENC =      2652.81237852
  Ewald energy   TEWEN  =    -41819.72679265
  -Hartree energ DENC   =    -25791.11516597
  -exchange      EXHF   =         0.00000000
  -V(xc)+E(xc)   XCENC  =      3606.12104998
  PAW double counting   =     55594.23204139   -59034.67079123
  entropy T*S    EENTRO =        -0.00000000
  eigenvalues    EBANDS =    -10283.41820112
  atomic energy  EATOM  =     73862.19814772
  Solvation  Ediel_sol  =         0.00000000
  ---------------------------------------------------
  free energy    TOTEN  =     -1213.56733336 eV

  energy without entropy =    -1213.56733336  energy(sigma->0) =    -1213.56733336


--------------------------------------------------------------------------------------------------------




--------------------------------------- Iteration      1(  13)  ---------------------------------------


    POTLOK:  cpu time    0.1738: real time    0.1745
    SETDIJ:  cpu time    4.9341: real time    4.9414
    EDDIAG:  cpu time    4.6049: real time    4.8612
  RMM-DIIS:  cpu time   17.2979: real time   17.3069
    ORTHCH:  cpu time    1.1629: real time    1.2506
       DOS:  cpu time    0.0015: real time    0.0015
    CHARGE:  cpu time    1.7940: real time    1.7946
    MIXING:  cpu time    0.0009: real time    0.0010
    --------------------------------------------
      LOOP:  cpu time   29.9700: real time   30.3316

 eigenvalue-minimisations  : 18768
 total energy-change (2. order) : 0.2281822E+03  (-0.1212626E+03)
 number of electron     672.0000431 magnetization      48.0000008
 augmentation part      268.8974113 magnetization      26.4841867

 Broyden mixing:
  rms(total) = 0.13909E+02    rms(broyden)= 0.13906E+02
  rms(prec ) = 0.15639E+02
  weight for this iteration     100.00

 eigenvalues of (default mixing * dielectric matrix)
  average eigenvalue GAMMA=   0.3192
  0.3192

 Free energy of the ion-electron system (eV)
  ---------------------------------------------------
  alpha Z        PSCENC =      2652.81237852
  Ewald energy   TEWEN  =    -41819.72679265
  -Hartree energ DENC   =    -25122.66181941
  -exchange      EXHF   =         0.00000000
  -V(xc)+E(xc)   XCENC  =      3696.44898849
  PAW double counting   =     59933.16462366   -63358.37280973
  entropy T*S    EENTRO =        -0.08946895
  eigenvalues    EBANDS =    -10829.15837796
  atomic energy  EATOM  =     73862.19814772
  Solvation  Ediel_sol  =         0.00000000
  ---------------------------------------------------
  free energy    TOTEN  =      -985.38513029 eV

  energy without entropy =     -985.29566135  energy(sigma->0) =     -985.34039582


--------------------------------------------------------------------------------------------------------




--------------------------------------- Iteration      1(  14)  ---------------------------------------


    POTLOK:  cpu time    0.1747: real time    0.1748
    SETDIJ:  cpu time    4.9083: real time    4.9299
    EDDIAG:  cpu time    4.5242: real time    4.9182
  RMM-DIIS:  cpu time   17.7131: real time   17.7256
    ORTHCH:  cpu time    1.1637: real time    1.2484
       DOS:  cpu time    0.0012: real time    0.0012
    CHARGE:  cpu time    1.7965: real time    1.7988
    MIXING:  cpu time    0.0010: real time    0.0010
    --------------------------------------------
      LOOP:  cpu time   30.2828: real time   30.7981

 eigenvalue-minimisations  : 19362
 total energy-change (2. order) : 0.6952526E+02  (-0.1783064E+02)
 number of electron     672.0000543 magnetization      48.0000012
 augmentation part      246.5716759 magnetization      32.1584458

 Broyden mixing:
  rms(total) = 0.53080E+01    rms(broyden)= 0.53038E+01
  rms(prec ) = 0.57314E+01
  weight for this iteration     100.00

 eigenvalues of (default mixing * dielectric matrix)
  average eigenvalue GAMMA=   0.7327
  1.1078  0.3576

 Free energy of the ion-electron system (eV)
  ---------------------------------------------------
  alpha Z        PSCENC =      2652.81237852
  Ewald energy   TEWEN  =    -41819.72679265
  -Hartree energ DENC   =    -25736.24272131
  -exchange      EXHF   =         0.00000000
  -V(xc)+E(xc)   XCENC  =      3673.84988891
  PAW double counting   =     63335.58850049   -66818.14136695
  entropy T*S    EENTRO =        -0.00000000
  eigenvalues    EBANDS =    -10066.19790539
  atomic energy  EATOM  =     73862.19814772
  Solvation  Ediel_sol  =         0.00000000
  ---------------------------------------------------
  free energy    TOTEN  =      -915.85987065 eV

  energy without entropy =     -915.85987065  energy(sigma->0) =     -915.85987065


--------------------------------------------------------------------------------------------------------




--------------------------------------- Iteration      1(  15)  ---------------------------------------


    POTLOK:  cpu time    0.1726: real time    0.1732
    SETDIJ:  cpu time    4.9325: real time    4.9432
    EDDIAG:  cpu time    4.5499: real time    4.9251
  RMM-DIIS:  cpu time   18.2158: real time   18.2439
    ORTHCH:  cpu time    1.1675: real time    1.2524
       DOS:  cpu time    0.0018: real time    0.0018
    CHARGE:  cpu time    1.7885: real time    1.7908
    MIXING:  cpu time    0.0013: real time    0.0013
    --------------------------------------------
      LOOP:  cpu time   30.8300: real time   31.3317

 eigenvalue-minimisations  : 20264
 total energy-change (2. order) : 0.1430589E+02  (-0.1927232E+01)
 number of electron     672.0000524 magnetization      48.0000012
 augmentation part      249.6414864 magnetization      33.7957903

 Broyden mixing:
  rms(total) = 0.21518E+01    rms(broyden)= 0.21515E+01
  rms(prec ) = 0.22331E+01
  weight for this iteration     100.00

 eigenvalues of (default mixing * dielectric matrix)
  average eigenvalue GAMMA=   0.9580
  0.3836  0.7559  1.7344

 Free energy of the ion-electron system (eV)
  ---------------------------------------------------
  alpha Z        PSCENC =      2652.81237852
  Ewald energy   TEWEN  =    -41819.72679265
  -Hartree energ DENC   =    -25658.18169509
  -exchange      EXHF   =         0.00000000
  -V(xc)+E(xc)   XCENC  =      3706.98656244
  PAW double counting   =     67449.94188982   -70972.88051917
  entropy T*S    EENTRO =        -0.00000000
  eigenvalues    EBANDS =    -10122.70395230
  atomic energy  EATOM  =     73862.19814772
  Solvation  Ediel_sol  =         0.00000000
  ---------------------------------------------------
  free energy    TOTEN  =      -901.55398070 eV

  energy without entropy =     -901.55398070  energy(sigma->0) =     -901.55398070


--------------------------------------------------------------------------------------------------------




--------------------------------------- Iteration      1(  16)  ---------------------------------------


    POTLOK:  cpu time    0.1687: real time    0.1695
    SETDIJ:  cpu time    4.9377: real time    5.0019
    EDDIAG:  cpu time    4.4330: real time    4.8346
  RMM-DIIS:  cpu time   17.5630: real time   17.5835
    ORTHCH:  cpu time    1.1704: real time    1.2541
       DOS:  cpu time    0.0014: real time    0.0014
    CHARGE:  cpu time    1.7854: real time    1.8044
    MIXING:  cpu time    0.0009: real time    0.0009
    --------------------------------------------
      LOOP:  cpu time   30.0605: real time   30.6504

 eigenvalue-minimisations  : 19048
 total energy-change (2. order) :-0.1599268E+01  (-0.6582154E+00)
 number of electron     672.0000510 magnetization      48.0000010
 augmentation part      251.1995533 magnetization      33.8799156

 Broyden mixing:
  rms(total) = 0.14016E+01    rms(broyden)= 0.14010E+01
  rms(prec ) = 0.14918E+01
  weight for this iteration     100.00

 eigenvalues of (default mixing * dielectric matrix)
  average eigenvalue GAMMA=   0.9803
  2.0915  0.9063  0.3906  0.5329

 Free energy of the ion-electron system (eV)
  ---------------------------------------------------
  alpha Z        PSCENC =      2652.81237852
  Ewald energy   TEWEN  =    -41819.72679265
  -Hartree energ DENC   =    -25605.49266252
  -exchange      EXHF   =         0.00000000
  -V(xc)+E(xc)   XCENC  =      3708.17323819
  PAW double counting   =     70445.92118449   -73999.06186452
  entropy T*S    EENTRO =        -0.00000000
  eigenvalues    EBANDS =    -10147.97687770
  atomic energy  EATOM  =     73862.19814772
  Solvation  Ediel_sol  =         0.00000000
  ---------------------------------------------------
  free energy    TOTEN  =      -903.15324847 eV

  energy without entropy =     -903.15324847  energy(sigma->0) =     -903.15324847


--------------------------------------------------------------------------------------------------------




--------------------------------------- Iteration      1(  17)  ---------------------------------------


    POTLOK:  cpu time    0.1750: real time    0.1751
    SETDIJ:  cpu time    5.5929: real time    5.5948
    EDDIAG:  cpu time    4.4608: real time    4.8313
  RMM-DIIS:  cpu time   18.3574: real time   18.4092
    ORTHCH:  cpu time    1.1859: real time    1.2804
       DOS:  cpu time    0.0020: real time    0.0020
    CHARGE:  cpu time    1.7888: real time    1.7908
    MIXING:  cpu time    0.0020: real time    0.0020
    --------------------------------------------
      LOOP:  cpu time   31.5647: real time   32.0856

 eigenvalue-minimisations  : 20525
 total energy-change (2. order) : 0.1665921E+00  (-0.5657601E-01)
 number of electron     672.0000512 magnetization      48.0000007
 augmentation part      251.0976821 magnetization      33.8736920

 Broyden mixing:
  rms(total) = 0.75690E+00    rms(broyden)= 0.75681E+00
  rms(prec ) = 0.85288E+00
  weight for this iteration     100.00

 eigenvalues of (default mixing * dielectric matrix)
  average eigenvalue GAMMA=   1.0100
  2.2467  1.1483  0.3815  0.7014  0.5719

 Free energy of the ion-electron system (eV)
  ---------------------------------------------------
  alpha Z        PSCENC =      2652.81237852
  Ewald energy   TEWEN  =    -41819.72679265
  -Hartree energ DENC   =    -25597.37657009
  -exchange      EXHF   =         0.00000000
  -V(xc)+E(xc)   XCENC  =      3705.07426065
  PAW double counting   =     71278.18471975   -74839.43936096
  entropy T*S    EENTRO =        -0.00000000
  eigenvalues    EBANDS =    -10144.71343928
  atomic energy  EATOM  =     73862.19814772
  Solvation  Ediel_sol  =         0.00000000
  ---------------------------------------------------
  free energy    TOTEN  =      -902.98665632 eV

  energy without entropy =     -902.98665632  energy(sigma->0) =     -902.98665632


--------------------------------------------------------------------------------------------------------




--------------------------------------- Iteration      1(  18)  ---------------------------------------


    POTLOK:  cpu time    0.1702: real time    0.1703
    SETDIJ:  cpu time    4.9936: real time    4.9964
    EDDIAG:  cpu time    4.4280: real time    4.8304
  RMM-DIIS:  cpu time   17.6654: real time   17.6769
    ORTHCH:  cpu time    1.1992: real time    1.3104
       DOS:  cpu time    0.0015: real time    0.0015
    CHARGE:  cpu time    1.7874: real time    1.7910
    MIXING:  cpu time    0.0011: real time    0.0011
    --------------------------------------------
      LOOP:  cpu time   30.2464: real time   30.7779

 eigenvalue-minimisations  : 18978
 total energy-change (2. order) : 0.3948731E+00  (-0.6932958E-01)
 number of electron     672.0000517 magnetization      48.0000006
 augmentation part      250.5910059 magnetization      33.8363218

 Broyden mixing:
  rms(total) = 0.26952E+00    rms(broyden)= 0.26923E+00
  rms(prec ) = 0.28233E+00
  weight for this iteration     100.00

 eigenvalues of (default mixing * dielectric matrix)
  average eigenvalue GAMMA=   1.0203
  2.4609  1.3686  0.8450  0.3827  0.5923  0.4724

[...]
   4      -0.570    -0.686     1.256    -0.103    -0.001     0.093
   5      -0.932    -0.924     1.856     0.091    -0.070     0.002
   6      -0.622    -0.660     1.282     0.112     0.032     0.003
   7      -1.189    -0.656     1.845    -0.149     0.011     0.089
   8      -0.530    -0.754     1.284     0.113    -0.008     0.023
   9      -1.145    -0.760     1.905    -0.090    -0.035     0.001
  10      -1.121    -0.759     1.880     0.004    -0.051    -0.071
  11      -0.558    -0.881     1.439    -0.131     0.009     0.107
  12      -0.677    -0.871     1.548    -0.204    -0.057    -0.039
  13      -0.665    -0.847     1.512     0.209    -0.051    -0.006
  14      -1.114    -0.643     1.757     0.072    -0.010    -0.065
  15      -1.148    -0.753     1.900    -0.036     0.000    -0.044
  16      -0.622    -0.807     1.430     0.115     0.002    -0.025
  17       1.440     1.388    -2.827    -0.112     0.011    -0.084
  18       1.592     1.339    -2.930    -0.042     0.017    -0.032
  19       1.479     1.410    -2.888     0.039     0.009    -0.155
  20       1.494     1.473    -2.967     0.026     0.066     0.084
  21       1.445     1.436    -2.881    -0.031    -0.142     0.153
  22       1.292     1.608    -2.899     0.011     0.096     0.023
  23       1.400     1.461    -2.861    -0.140     0.123     0.094
  24       1.527     1.400    -2.927    -0.077    -0.081     0.008
  25       0.354    -0.144    -0.210     1.216     0.004     0.493
  26      -0.094     1.310    -1.215     0.359    -0.803     0.164
  27      -1.939     0.764     1.175    -0.708    -0.336    -0.330
  28       1.448    -0.027    -1.420    -0.684     0.626    -0.437
  29      -1.916     0.052     1.864     0.573    -0.198    -1.133
  30      -1.467     0.444     1.023    -1.269    -0.203     1.001
  31      -0.162     0.408    -0.247     0.286     1.386    -0.137
  32      -1.328    -0.793     2.121     0.221    -0.007     0.679
  33      -0.247     0.365    -0.117     0.556     0.187    -0.828
  34       0.124     0.006    -0.130    -0.181     0.124     0.860
  35       0.213     0.366    -0.578     1.207     0.616     1.289
  36      -2.153     1.534     0.619    -0.095     0.358     0.052
  37      -0.307     0.579    -0.272     0.482     1.267    -0.222
  38      -0.606     1.712    -1.107     0.696    -0.174    -0.502
  39      -0.692    -2.163     2.855    -0.113    -0.399     0.699
  40       0.267    -0.931     0.664    -0.058     0.017    -0.025
  41      -3.979     2.141     1.837    -4.088     1.887    -3.793
  42      -1.041     1.647    -0.605     6.935     2.078     3.626
  43       2.381    -3.954     1.572    -0.684    -5.003     1.202
  44      -3.993     2.853     1.140    -4.932    -2.084     3.269
  45       6.689    -6.325    -0.364    -0.228     4.174     0.390
  46      -1.744     2.638    -0.894     5.367    -0.872    -3.358
  47      -2.650     3.689    -1.040    -4.574     2.037    -3.730
  48       6.802    -7.503     0.701    -1.220    -3.409    -0.238
  49      -2.308     2.300     0.008     5.307     1.961     3.682
  50      -2.901     3.185    -0.284    -5.185    -1.884     4.655
  51      -1.862     1.749     0.112     5.672    -1.643    -3.707
  52       5.619    -7.046     1.427     0.209     6.077     0.657
  53      -3.240     2.685     0.556    -4.112     4.438    -4.661
  54      -3.584     2.801     0.783     4.128     1.768     3.320
  55       4.059    -5.130     1.071    -0.314    -4.002     1.558
  56      -4.798     2.878     1.920    -4.023    -2.825     4.421
  57       5.207    -5.505     0.298     0.489     4.351    -0.222
  58      -2.990     1.512     1.478     5.168    -2.289    -5.111
  59      -4.867     0.910     3.957    -5.138     2.093    -5.580
  60       5.255    -4.806    -0.449    -1.225    -2.568     1.405
  61      -4.394     3.622     0.772     4.394     0.074     5.970
  62      -2.935     2.412     0.522    -5.139    -1.649     4.952
  63      -3.045     3.048    -0.003     5.255    -3.149    -3.067
  64       4.382    -5.779     1.397    -0.350     4.565    -0.008
  65      -3.391     4.922    -1.531    -4.474     2.521    -2.074
  66      -5.318     5.316     0.002     5.681     2.467     3.661
  67       5.624    -5.989     0.365     0.331    -4.404    -1.048
  68      -1.585     1.339     0.246    -5.729    -2.177     3.464
  69       2.918    -5.516     2.598     0.723     4.378    -0.924
  70      -4.232     2.357     1.875     4.615    -1.417    -3.930
  71      -2.487     1.274     1.214    -5.522     1.198    -4.166
  72       7.844    -6.861    -0.983     0.262    -4.145    -0.115
  73      -3.002     2.897     0.105     5.034     1.784     4.308
  74      -2.743     3.276    -0.533    -5.412    -2.077     3.492
  75      -4.192     2.590     1.601     2.708    -3.487    -5.106
  76       4.174    -4.006    -0.167    -0.787     3.758     0.945
  77      -2.313     2.392    -0.079    -5.787     1.698    -5.490
  78      -1.961     4.106    -2.145     5.924     1.512     2.870
  79       5.698    -4.931    -0.767     0.758    -3.439    -0.058
  80      -2.047     0.004     2.043    -4.596    -2.841     4.853
  81       5.650    -6.714     1.064    -0.099     4.702    -0.662
  82      -2.794     2.213     0.581     4.864    -2.279    -4.621
  83      -3.109     3.050     0.059    -6.276     2.579    -3.434
  84       3.980    -6.218     2.238    -0.393    -5.390    -1.025
  85      -3.114     0.709     2.405     6.008     4.254     5.158
  86      -2.695     1.840     0.855    -6.150    -3.189     3.890
  87      -3.048     3.547    -0.499     5.832    -1.169    -3.031
  88       5.580    -6.018     0.438    -0.166     5.326     0.132
 ---------------------------------------------------------------------


 Total hyperfine coupling parameters after diagonalization (MHz)
 (convention: |A_zz| > |A_xx| > |A_yy|)
 ----------------------------------------------------------------------
  ion      A_xx      A_yy      A_zz     asymmetry (A_yy - A_xx)/ A_zz 
 ----------------------------------------------------------------------
   1       2.271     1.829     4.401      -0.100
   2      -0.757    -0.400     2.536       0.141
   3       0.892     0.410     3.203      -0.150
   4       1.685     1.447     3.456      -0.069
   5       0.359     0.176     3.054      -0.060
   6       1.631     1.404     3.442      -0.066
   7       1.147     0.539     3.616      -0.168
   8       1.724     1.406     3.491      -0.091
   9      -0.351     0.074     2.719       0.156
  10      -0.260     0.101     2.745       0.132
  11       1.912     1.492     3.867      -0.109
  12       2.357     1.904     4.455      -0.102
  13       2.507     2.052     4.549      -0.100
  14       0.692     0.201     3.085      -0.159
  15       0.562     0.161     3.213      -0.125
  16       1.803     1.507     3.800      -0.078
  17      12.667     8.538    12.897      -0.320
  18      13.863     9.600    14.129      -0.302
  19      13.882     9.591    13.981      -0.307
  20      15.313    10.888    15.371      -0.288
  21      13.864     9.564    13.938      -0.309
  22      14.525    10.330    14.840      -0.283
  23      14.541    10.381    14.821      -0.281
  24      14.402    10.109    14.603      -0.294
  25      97.153    96.010    98.695      -0.012
  26      92.548    90.610    93.674      -0.021
  27      98.443    95.476    98.998      -0.030
  28      94.452    93.115    96.609      -0.014
  29      99.671    97.974   102.499      -0.017
  30      95.480    93.277    97.446      -0.023
  31      98.293    96.223    99.056      -0.021
  32      97.912    97.331   101.030      -0.006
  33      95.533    94.509    96.639      -0.011
  34      95.371    94.242    96.013      -0.012
  35      94.853    94.015    97.710      -0.009
  36      95.723    92.860    96.599      -0.030
  37      96.223    93.950    96.679      -0.024
  38      98.401    97.997   101.193      -0.004
  39     100.152    98.627   103.883      -0.015
  40      99.458    98.255    99.855      -0.012
  41       6.648     2.007    15.441      -0.301
  42       7.281     2.679    18.657      -0.247
  43       3.206     1.852    13.258      -0.102
  44       8.227     2.753    17.051      -0.321
  45       8.214     4.092    19.094      -0.216
  46       6.408     2.562    15.783      -0.244
  47       2.447     0.420    13.535      -0.150
  48       9.734     2.839    18.874      -0.365
  49       2.742    -0.948    12.831      -0.288
  50       2.572    -0.550    14.314      -0.218
  51       5.708     1.313    15.391      -0.286
  52       6.138     1.899    18.972      -0.223
  53       5.967     2.612    18.202      -0.184
  54       5.426     1.274    13.961      -0.297
  55       4.391     0.235    12.733      -0.326
  56       5.263     0.610    15.874      -0.293
  57       4.538     1.154    14.480      -0.234
  58       3.354    -0.699    14.818      -0.274
  59       9.078     2.945    20.769      -0.295
  60       4.150     0.149    11.874      -0.337
  61       6.127     0.805    17.364      -0.306
  62       4.895     0.937    16.002      -0.247
  63       5.854     1.392    16.022      -0.279
  64       5.421     1.529    15.023      -0.259
  65       5.044     0.983    14.708      -0.276
  66       7.152     1.118    18.722      -0.322
  67       5.427     1.251    15.594      -0.268
  68       4.408     0.215    14.229      -0.295
  69       5.125     0.585    13.566      -0.335
  70       6.350     0.744    15.086      -0.372
  71       5.029    -0.678    13.894      -0.411
  72       4.772     0.530    16.886      -0.251
  73       3.384    -0.180    14.166      -0.252
  74       5.086     1.557    15.806      -0.223
  75       3.218     0.227    14.771      -0.203
  76       4.214     1.269    12.262      -0.240
  77       4.232     0.086    16.416      -0.253
  78       4.376     1.872    16.168      -0.155
  79       4.438     1.675    13.898      -0.199
  80       5.638     2.400    16.783      -0.193
  81       7.129     2.170    17.550      -0.283
  82       3.465     0.346    14.668      -0.213
  83       8.805     3.725    19.778      -0.257
  84       5.923     1.529    16.593      -0.265
  85       7.294     2.799    20.895      -0.215
  86       6.923     2.066    18.233      -0.266
  87       4.975     0.115    14.758      -0.329
  88       3.910     0.771    15.726      -0.200
 ---------------------------------------------------------------------



--------------------------------------------------------------------------------------------------------


 stress matrix after NEB project (eV)
    -43.93058     -0.48050     -5.60343
     -0.48594    -46.22028     -4.86795
     -5.59365     -4.87263    -56.94613
  FORCES: max atom, RMS     2.352913    1.073418
  FORCE total and by dimension   10.069554    1.847055
  Stress total and by dimension   86.137481   56.946129
     LOOP+:  cpu time  762.5318: real time  776.8511
    4ORBIT:  cpu time    0.0000: real time    0.0000
 


 total charge     
 
# of ion       s       p       d       tot
------------------------------------------
    1        0.052   5.995   0.000   6.047
    2        0.051   5.996   0.000   6.048
    3        0.055   5.999   0.000   6.054
    4        0.049   5.990   0.000   6.039
    5        0.050   5.994   0.000   6.044
    6        0.050   5.993   0.000   6.043
    7        0.057   6.004   0.000   6.061
    8        0.048   5.990   0.000   6.038
    9        0.053   5.996   0.000   6.049
   10        0.055   5.999   0.000   6.054
   11        0.047   5.989   0.000   6.036
   12        0.049   5.992   0.000   6.041
   13        0.050   5.993   0.000   6.043
   14        0.051   5.994   0.000   6.045
   15        0.051   5.995   0.000   6.046
   16        0.045   5.987   0.000   6.032
   17        0.147   6.125   0.081   6.353
   18        0.149   6.128   0.085   6.362
   19        0.145   6.122   0.079   6.346
   20        0.147   6.124   0.081   6.352
   21        0.144   6.121   0.078   6.343
   22        0.146   6.123   0.080   6.350
   23        0.145   6.120   0.077   6.342
   24        0.147   6.126   0.083   6.356
   25        0.373   6.451   4.831  11.655
   26        0.379   6.463   4.839  11.681
   27        0.374   6.453   4.832  11.659
   28        0.389   6.486   4.867  11.742
   29        0.375   6.451   4.830  11.655
   30        0.387   6.478   4.855  11.720
   31        0.371   6.445   4.823  11.639
   32        0.390   6.486   4.858  11.734
   33        0.380   6.465   4.843  11.688
   34        0.376   6.453   4.828  11.657
   35        0.385   6.475   4.851  11.711
   36        0.376   6.454   4.827  11.657
   37        0.371   6.445   4.828  11.644
   38        0.371   6.447   4.825  11.643
   39        0.376   6.457   4.830  11.663
   40        0.370   6.443   4.818  11.631
   41        1.598   3.480   0.000   5.078
   42        1.599   3.484   0.000   5.084
   43        1.598   3.498   0.000   5.096
   44        1.598   3.528   0.000   5.126
   45        1.600   3.532   0.000   5.132
   46        1.600   3.513   0.000   5.112
   47        1.602   3.492   0.000   5.094
   48        1.601   3.513   0.000   5.114
   49        1.597   3.481   0.000   5.078
   50        1.600   3.489   0.000   5.089
   51        1.600   3.487   0.000   5.087
   52        1.602   3.531   0.000   5.133
   53        1.600   3.500   0.000   5.101
   54        1.596   3.523   0.000   5.120
   55        1.597   3.521   0.000   5.118
   56        1.601   3.505   0.000   5.106
   57        1.599   3.526   0.000   5.124
   58        1.600   3.515   0.000   5.115
   59        1.605   3.524   0.000   5.129
   60        1.596   3.501   0.000   5.097
   61        1.601   3.527   0.000   5.128
   62        1.600   3.504   0.000   5.104
   63        1.599   3.507   0.000   5.106
   64        1.598   3.540   0.000   5.138
   65        1.600   3.514   0.000   5.114
   66        1.602   3.519   0.000   5.121
   67        1.597   3.508   0.000   5.104
   68        1.597   3.490   0.000   5.087
   69        1.598   3.513   0.000   5.111
   70        1.599   3.529   0.000   5.128
   71        1.597   3.513   0.000   5.110
   72        1.600   3.500   0.000   5.100
   73        1.597   3.506   0.000   5.102
   74        1.598   3.493   0.000   5.091
   75        1.599   3.470   0.000   5.068
   76        1.597   3.500   0.000   5.097
   77        1.601   3.491   0.000   5.092
   78        1.600   3.512   0.000   5.112
   79        1.597   3.497   0.000   5.095
   80        1.599   3.503   0.000   5.102
   81        1.597   3.508   0.000   5.105
   82        1.598   3.497   0.000   5.096
   83        1.599   3.488   0.000   5.088
   84        1.598   3.505   0.000   5.103
   85        1.602   3.478   0.000   5.080
   86        1.602   3.503   0.000   5.104
   87        1.599   3.512   0.000   5.111
   88        1.598   3.489   0.000   5.088
--------------------------------------------------
tot         84.785 416.510  78.028 579.323
 


 magnetization (x)
 
# of ion       s       p       d       tot
------------------------------------------
    1        0.002   0.000   0.000   0.002
    2        0.000   0.000   0.000   0.001
    3        0.001   0.000   0.000   0.001
    4        0.002   0.000   0.000   0.002
    5        0.001   0.000   0.000   0.001
    6        0.002   0.000   0.000   0.002
    7        0.001   0.001   0.000   0.002
    8        0.002   0.000   0.000   0.002
    9        0.001   0.000   0.000   0.001
   10        0.001   0.000   0.000   0.001
   11        0.002   0.000   0.000   0.002
   12        0.002   0.000   0.000   0.002
   13        0.002   0.000   0.000   0.002
   14        0.001   0.000   0.000   0.001
   15        0.001   0.000   0.000   0.001
   16        0.002  -0.000   0.000   0.002
   17        0.007   0.002   0.001   0.010
   18        0.007   0.002   0.001   0.010
   19        0.007   0.002   0.001   0.010
   20        0.008   0.002   0.001   0.011
   21        0.007   0.002   0.001   0.011
   22        0.007   0.002   0.001   0.011
   23        0.007   0.002   0.001   0.011
   24        0.007   0.003   0.001   0.011
   25        0.015   0.030   2.757   2.802
   26        0.014   0.030   2.741   2.785
   27        0.015   0.030   2.755   2.801
   28        0.015   0.030   2.721   2.766
   29        0.016   0.031   2.757   2.803
   30        0.015   0.031   2.729   2.775
   31        0.015   0.030   2.767   2.812
   32        0.016   0.032   2.731   2.779
   33        0.015   0.031   2.735   2.781
   34        0.015   0.031   2.751   2.796
   35        0.015   0.031   2.731   2.777
   36        0.015   0.029   2.759   2.803
   37        0.015   0.029   2.760   2.804
   38        0.016   0.030   2.760   2.806
   39        0.017   0.031   2.761   2.809
   40        0.016   0.031   2.773   2.820
   41        0.002   0.030   0.000   0.032
   42        0.002   0.048   0.000   0.051
   43        0.002   0.015   0.000   0.017
   44        0.002   0.059   0.000   0.061
   45        0.002   0.063   0.000   0.065
   46        0.002   0.036   0.000   0.039
   47        0.002   0.013   0.000   0.015
   48        0.002   0.063   0.000   0.066
   49        0.001   0.016   0.000   0.017
   50        0.002   0.007   0.000   0.009
   51        0.002   0.033   0.000   0.035
   52        0.002   0.059   0.000   0.061
   53        0.002   0.044   0.000   0.047
   54        0.002   0.027   0.000   0.029
   55        0.002   0.023   0.000   0.024
   56        0.002   0.034   0.000   0.036
   57        0.002   0.031   0.000   0.032
   58        0.002   0.022   0.000   0.024
   59        0.003   0.067   0.000   0.070
   60        0.002   0.012   0.000   0.014
   61        0.002   0.048   0.000   0.050
   62        0.002   0.030   0.000   0.032
   63        0.002   0.041   0.000   0.043
   64        0.002   0.039   0.000   0.041
   65        0.002   0.024   0.000   0.026
   66        0.002   0.053   0.000   0.055
   67        0.002   0.034   0.000   0.036
   68        0.002   0.022   0.000   0.024
   69        0.002   0.026   0.000   0.028
   70        0.002   0.044   0.000   0.046
   71        0.002   0.027   0.000   0.029
   72        0.002   0.031   0.000   0.033
   73        0.002   0.016   0.000   0.018
   74        0.002   0.034   0.000   0.036
   75        0.002   0.013   0.000   0.014
   76        0.002   0.016   0.000   0.017
   77        0.002   0.024   0.000   0.026
   78        0.002   0.037   0.000   0.039
   79        0.002   0.019   0.000   0.021
   80        0.002   0.037   0.000   0.039
   81        0.002   0.046   0.000   0.048
   82        0.002   0.018   0.000   0.020
   83        0.003   0.055   0.000   0.058
   84        0.002   0.038   0.000   0.040
   85        0.003   0.054   0.000   0.056
   86        0.002   0.044   0.000   0.046
   87        0.002   0.033   0.000   0.035
   88        0.002   0.023   0.000   0.025
--------------------------------------------------
tot          0.420   2.138  43.996  46.554
 

 total amount of memory used by VASP MPI-rank0    94445. kBytes
=======================================================================

   base      :      30000. kBytes
   nonlr-proj:      13686. kBytes
   fftplans  :       1275. kBytes
   grid      :      22786. kBytes
   one-center:       2737. kBytes
   wavefun   :      23961. kBytes
 
  
  
 General timing and accounting informations for this job:
 ========================================================
  
                  Total CPU time used (sec):      783.576
                            User time (sec):      775.531
                          System time (sec):        8.046
                         Elapsed time (sec):      800.481
  
                   Maximum memory used (kb):      195708.
                   Average memory used (kb):           0.
  
                          Minor page faults:       264350
                          Major page faults:            0
                 Voluntary context switches:       247066
