 vasp.5.4.4.18Apr17-6-g9f103f2a35 (build Dec 02 2020 12:53:39) complex          
  
 executed on             LinuxIFC date 2021.07.31  04:44:23
 running on   64 total cores
 distrk:  each k-point on   64 cores,    1 groups
 distr:  one band on NCORES_PER_BAND=   1 cores,   64 groups


--------------------------------------------------------------------------------------------------------


 INCAR:
 POTCAR:    PAW_PBE Na_pv 19Sep2006               
 POTCAR:    PAW_PBE Mg_pv 13Apr2007               
 POTCAR:    PAW_PBE Mn_pv 02Aug2007               
 POTCAR:    PAW_PBE O 08Apr2002                   

 ----------------------------------------------------------------------------- 
|                                                                             |
|           W    W    AA    RRRRR   N    N  II  N    N   GGGG   !!!           |
|           W    W   A  A   R    R  NN   N  II  NN   N  G    G  !!!           |
|           W    W  A    A  R    R  N N  N  II  N N  N  G       !!!           |
|           W WW W  AAAAAA  RRRRR   N  N N  II  N  N N  G  GGG   !            |
|           WW  WW  A    A  R   R   N   NN  II  N   NN  G    G                |
|           W    W  A    A  R    R  N    N  II  N    N   GGGG   !!!           |
|                                                                             |
|      For optimal performance we recommend to set                            |
|        NCORE= 4 - approx SQRT( number of cores)                             |
|      NCORE specifies how many cores store one orbital (NPAR=cpu/NCORE).     |
|      This setting can  greatly improve the performance of VASP for DFT.     |
|      The default,   NCORE=1            might be grossly inefficient         |
|      on modern multi-core architectures or massively parallel machines.     |
|      Do your own testing !!!!                                               |
|      Unfortunately you need to use the default for GW and RPA calculations. |
|      (for HF NCORE is supported but not extensively tested yet)             |
|                                                                             |
 ----------------------------------------------------------------------------- 

 POTCAR:    PAW_PBE Na_pv 19Sep2006               
   VRHFIN =Na: p6s1                                                             
   LEXCH  = PE                                                                  
   EATOM  =   766.0439 eV,   56.3026 Ry                                         
                                                                                
   TITEL  = PAW_PBE Na_pv 19Sep2006                                             
   LULTRA =        F    use ultrasoft PP ?                                      
   IUNSCR =        1    unscreen: 0-lin 1-nonlin 2-no                           
   RPACOR =    1.800    partial core radius                                     
   POMASS =   22.990; ZVAL   =    7.000    mass and valenz                      
   RCORE  =    2.200    outmost cutoff radius                                   
   RWIGS  =    2.200; RWIGS  =    1.164    wigner-seitz radius (au A)           
   ENMAX  =  259.561; ENMIN  =  194.671 eV                                      
   ICORE  =        2    local potential                                         
   LCOR   =        T    correct aug charges                                     
   LPAW   =        T    paw PP                                                  
   EAUG   =  368.056                                                            
   DEXC   =    0.000                                                            
   RMAX   =    2.245    core radius for proj-oper                               
   RAUG   =    1.300    factor for augmentation sphere                          
   RDEP   =    2.259    radius for radial grids                                 
   RDEPT  =    1.738    core radius for aug-charge                              
                                                                                
   Atomic configuration                                                         
    5 entries                                                                   
     n  l   j            E        occ.                                          
     1  0  0.50     -1033.6933   2.0000                                         
     2  0  0.50       -56.7526   2.0000                                         
     2  1  1.50       -28.6721   6.0000                                         
     3  0  0.50        -2.7440   1.0000                                         
     3  2  1.50        -1.3606   0.0000                                         
   Description                                                                  
     l       E           TYP  RCUT    TYP  RCUT                                 
     1    -28.6720912     23  2.000                                             
     1      6.8029130     23  2.000                                             
     0     -2.7439560     23  2.200                                             
     0     34.0145650     23  2.200                                             
     2     -1.3605826     23  2.200                                             
  local pseudopotential read in
  partial core-charges read in
  partial kinetic energy density read in
  atomic valenz-charges read in
  non local Contribution for L=           1  read in
    real space projection operators read in
  non local Contribution for L=           1  read in
    real space projection operators read in
  non local Contribution for L=           0  read in
    real space projection operators read in
  non local Contribution for L=           0  read in
    real space projection operators read in
    PAW grid and wavefunctions read in
 
   number of l-projection  operators is LMAX  =           4
   number of lm-projection operators is LMMAX =           8
 
 POTCAR:    PAW_PBE Mg_pv 13Apr2007               
   VRHFIN =Mg: p6s2                                                             
   LEXCH  = PE                                                                  
   EATOM  =  1056.7344 eV,   77.6678 Ry                                         
                                                                                
   TITEL  = PAW_PBE Mg_pv 13Apr2007                                             
   LULTRA =        F    use ultrasoft PP ?                                      
   IUNSCR =        1    unscreen: 0-lin 1-nonlin 2-no                           
   RPACOR =    1.500    partial core radius                                     
   POMASS =   24.305; ZVAL   =    8.000    mass and valenz                      
   RCORE  =    2.000    outmost cutoff radius                                   
   RWIGS  =    2.000; RWIGS  =    1.058    wigner-seitz radius (au A)           
   ENMAX  =  403.929; ENMIN  =  302.947 eV                                      
   RCLOC  =    1.506    cutoff for local pot                                    
   LCOR   =        T    correct aug charges                                     
   LPAW   =        T    paw PP                                                  
   EAUG   =  758.780                                                            
   DEXC   =    0.000                                                            
   RMAX   =    2.045    core radius for proj-oper                               
   RAUG   =    1.300    factor for augmentation sphere                          
   RDEP   =    2.025    radius for radial grids                                 
   RDEPT  =    1.557    core radius for aug-charge                              
                                                                                
   Atomic configuration                                                         
    5 entries                                                                   
     n  l   j            E        occ.                                          
     1  0  0.50     -1259.6230   2.0000                                         
     2  0  0.50       -79.8442   2.0000                                         
     2  1  1.50       -46.6121   6.0000                                         
     3  0  0.50        -4.7055   2.0000                                         
     3  2  1.50        -1.3606   0.0000                                         
   Description                                                                  
     l       E           TYP  RCUT    TYP  RCUT                                 
     1    -46.6121073     23  1.600                                             
     1      2.7211652     23  1.600                                             
     0     -4.7054661     23  2.000                                             
     0     61.2262170     23  2.000                                             
     2     -1.3605826     23  2.000                                             
  local pseudopotential read in
  partial core-charges read in
  partial kinetic energy density read in
  atomic valenz-charges read in
  non local Contribution for L=           1  read in
    real space projection operators read in
  non local Contribution for L=           1  read in
    real space projection operators read in
  non local Contribution for L=           0  read in
    real space projection operators read in
  non local Contribution for L=           0  read in
    real space projection operators read in
  non local Contribution for L=           2  read in
    real space projection operators read in
    PAW grid and wavefunctions read in
 
   number of l-projection  operators is LMAX  =           5
   number of lm-projection operators is LMMAX =          13
 
 POTCAR:    PAW_PBE Mn_pv 02Aug2007               
   VRHFIN =Mn: 3p4s3d                                                           
   LEXCH  = PE                                                                  
   EATOM  =  2025.2664 eV,  148.8529 Ry                                         
                                                                                
   TITEL  = PAW_PBE Mn_pv 02Aug2007                                             
   LULTRA =        F    use ultrasoft PP ?                                      
   IUNSCR =        1    unscreen: 0-lin 1-nonlin 2-no                           
   RPACOR =    2.080    partial core radius                                     
   POMASS =   54.938; ZVAL   =   13.000    mass and valenz                      
   RCORE  =    2.300    outmost cutoff radius                                   
   RWIGS  =    2.500; RWIGS  =    1.323    wigner-seitz radius (au A)           
   ENMAX  =  269.864; ENMIN  =  202.398 eV                                      
   ICORE  =        3    local potential                                         
   LCOR   =        T    correct aug charges                                     
   LPAW   =        T    paw PP                                                  
   EAUG   =  569.085                                                            
   DEXC   =    0.000                                                            
   RMAX   =    2.343    core radius for proj-oper                               
   RAUG   =    1.300    factor for augmentation sphere                          
   RDEP   =    2.338    radius for radial grids                                 
   RDEPT  =    1.798    core radius for aug-charge                              
                                                                                
   Atomic configuration                                                         
    8 entries                                                                   
     n  l   j            E        occ.                                          
     1  0  0.50     -6424.8287   2.0000                                         
     2  0  0.50      -739.1154   2.0000                                         
     2  1  1.50      -625.3949   6.0000                                         
     3  0  0.50       -81.6100   2.0000                                         
     3  1  1.50       -50.4667   6.0000                                         
     3  2  2.50        -3.3745   6.0000                                         
     4  0  0.50        -4.1331   1.0000                                         
     4  3  2.50        -1.3606   0.0000                                         
   Description                                                                  
     l       E           TYP  RCUT    TYP  RCUT                                 
     1    -50.4666628     23  2.000                                             
     1     -1.3605826     23  2.000                                             
     2     -3.3744729     23  2.300                                             
     2     -4.7350555     23  2.300                                             
     0     -4.1331431     23  2.300                                             
     0      7.6656591     23  2.300                                             
     3      9.5240782     23  2.300                                             
  local pseudopotential read in
  partial core-charges read in
  partial kinetic energy density read in
  atomic valenz-charges read in
  non local Contribution for L=           1  read in
    real space projection operators read in
  non local Contribution for L=           1  read in
    real space projection operators read in
  non local Contribution for L=           2  read in
    real space projection operators read in
  non local Contribution for L=           2  read in
    real space projection operators read in
  non local Contribution for L=           0  read in
    real space projection operators read in
  non local Contribution for L=           0  read in
    real space projection operators read in
    PAW grid and wavefunctions read in
 
   number of l-projection  operators is LMAX  =           6
   number of lm-projection operators is LMMAX =          18
 
 POTCAR:    PAW_PBE O 08Apr2002                   
   VRHFIN =O: s2p4                                                              
   LEXCH  = PE                                                                  
   EATOM  =   432.3788 eV,   31.7789 Ry                                         
                                                                                
   TITEL  = PAW_PBE O 08Apr2002                                                 
   LULTRA =        F    use ultrasoft PP ?                                      
   IUNSCR =        1    unscreen: 0-lin 1-nonlin 2-no                           
   RPACOR =    1.200    partial core radius                                     
   POMASS =   16.000; ZVAL   =    6.000    mass and valenz                      
   RCORE  =    1.520    outmost cutoff radius                                   
   RWIGS  =    1.550; RWIGS  =    0.820    wigner-seitz radius (au A)           
   ENMAX  =  400.000; ENMIN  =  300.000 eV                                      
   ICORE  =        2    local potential                                         
   LCOR   =        T    correct aug charges                                     
   LPAW   =        T    paw PP                                                  
   EAUG   =  605.392                                                            
   DEXC   =    0.000                                                            
   RMAX   =    1.553    core radius for proj-oper                               
   RAUG   =    1.300    factor for augmentation sphere                          
   RDEP   =    1.550    radius for radial grids                                 
   RDEPT  =    1.329    core radius for aug-charge                              
                                                                                
   Atomic configuration                                                         
    4 entries                                                                   
     n  l   j            E        occ.                                          
     1  0  0.50      -514.6923   2.0000                                         
     2  0  0.50       -23.9615   2.0000                                         
     2  1  0.50        -9.0305   4.0000                                         
     3  2  1.50        -9.5241   0.0000                                         
   Description                                                                  
     l       E           TYP  RCUT    TYP  RCUT                                 
     0    -23.9615318     23  1.200                                             
     0     -9.5240782     23  1.200                                             
     1     -9.0304911     23  1.520                                             
     1      8.1634956     23  1.520                                             
     2     -9.5240782      7  1.500                                             
  local pseudopotential read in
  partial core-charges read in
  partial kinetic energy density read in
  kinetic energy density of atom read in
  atomic valenz-charges read in
  non local Contribution for L=           0  read in
    real space projection operators read in
  non local Contribution for L=           0  read in
    real space projection operators read in
  non local Contribution for L=           1  read in
    real space projection operators read in
  non local Contribution for L=           1  read in
    real space projection operators read in
    PAW grid and wavefunctions read in
 
   number of l-projection  operators is LMAX  =           4
   number of lm-projection operators is LMMAX =           8
 
 Optimization of the real space projectors (new method)

 maximal supplied QI-value         = 17.01
 optimisation between [QCUT,QGAM] = [ 10.20, 20.41] = [ 29.16,116.64] Ry 
 Optimized for a Real-space Cutoff    1.30 Angstroem

   l    n(q)    QCUT    max X(q) W(low)/X(q) W(high)/X(q)  e(spline) 
   1      7    10.205     4.940    0.23E-03    0.84E-03    0.11E-06
   1      7    10.205     6.253    0.40E-03    0.13E-02    0.18E-06
   0      8    10.205    37.438    0.23E-03    0.37E-03    0.42E-07
   0      8    10.205     9.606    0.16E-03    0.26E-03    0.31E-07
 Optimization of the real space projectors (new method)

 maximal supplied QI-value         = 18.90
 optimisation between [QCUT,QGAM] = [ 10.20, 20.41] = [ 29.16,116.64] Ry 
 Optimized for a Real-space Cutoff    1.26 Angstroem

   l    n(q)    QCUT    max X(q) W(low)/X(q) W(high)/X(q)  e(spline) 
   1      7    10.205     2.974    0.63E-04    0.14E-03    0.13E-06
   1      7    10.205     4.279    0.11E-03    0.45E-03    0.24E-06
   0      8    10.205    16.381    0.44E-03    0.15E-03    0.55E-07
   0      8    10.205     5.611    0.31E-03    0.11E-03    0.40E-07
   2      7    10.205     4.652    0.50E-03    0.47E-03    0.57E-07
 Optimization of the real space projectors (new method)

 maximal supplied QI-value         = 16.25
 optimisation between [QCUT,QGAM] = [ 10.24, 20.48] = [ 29.35,117.42] Ry 
 Optimized for a Real-space Cutoff    1.34 Angstroem

   l    n(q)    QCUT    max X(q) W(low)/X(q) W(high)/X(q)  e(spline) 
   1      8    10.239     3.658    0.23E-03    0.30E-03    0.98E-07
   1      8    10.239     5.612    0.32E-03    0.65E-03    0.21E-06
   2      7    10.239    55.373    0.42E-03    0.45E-03    0.65E-07
   2      7    10.239    50.863    0.43E-03    0.48E-03    0.67E-07
   0      8    10.239    79.536    0.11E-03    0.21E-03    0.56E-07
   0      8    10.239    38.668    0.96E-04    0.19E-03    0.52E-07
 Optimization of the real space projectors (new method)

 maximal supplied QI-value         = 24.76
 optimisation between [QCUT,QGAM] = [ 10.15, 20.30] = [ 28.85,115.39] Ry 
 Optimized for a Real-space Cutoff    1.38 Angstroem

   l    n(q)    QCUT    max X(q) W(low)/X(q) W(high)/X(q)  e(spline) 
   0      8    10.150    20.381    0.22E-03    0.32E-03    0.29E-06
   0      8    10.150    15.268    0.23E-03    0.35E-03    0.30E-06
   1      8    10.150     5.964    0.46E-03    0.53E-03    0.21E-06
   1      8    10.150     5.382    0.38E-03    0.45E-03    0.19E-06
  PAW_PBE Na_pv 19Sep2006               :
 energy of atom  1       EATOM= -766.0439
 kinetic energy error for atom=    0.0103 (will be added to EATOM!!)
  PAW_PBE Mg_pv 13Apr2007               :
 energy of atom  2       EATOM=-1056.7344
 kinetic energy error for atom=    0.0820 (will be added to EATOM!!)
  PAW_PBE Mn_pv 02Aug2007               :
 energy of atom  3       EATOM=-2025.2664
 kinetic energy error for atom=    0.0284 (will be added to EATOM!!)
  PAW_PBE O 08Apr2002                   :
 energy of atom  4       EATOM= -432.3788
 kinetic energy error for atom=    0.1156 (will be added to EATOM!!)
 
 
 POSCAR: Na Mg Mn  O                             
  positions in cartesian coordinates
  No initial velocities read in

 METAGGA = SCAN     LMAXTAU =  6    LMIXTAU =  F

 exchange correlation table for  LEXCH =        8
   RHO(1)=    0.500       N(1)  =     2000
   RHO(2)=  100.500       N(2)  =     4000

 VTST: version 3.2, (02/03/18)

 CHAIN: initializing optimizer
 
 OPT: Using VASP Dynamics algorithm
 CHAIN: Read ICHAIN            0
 
 POSCAR: Na Mg Mn  O                             
  positions in cartesian coordinates
  No initial velocities read in
 


--------------------------------------------------------------------------------------------------------


 ion  position               nearest neighbor table
   1  0.239  0.333  0.242-  78 2.20  41 2.37  87 2.38
   2  0.083  0.657  0.749-  73 2.28
   3  0.752  0.597  0.752-  70 2.21  71 2.22  68 2.30  36 2.92  34 2.92
   4  0.607  0.185  0.744-  57 2.21  56 2.36  60 2.38
   5  0.092  0.977  0.253-  67 2.33  76 2.33  41 2.35
   6  0.722  0.806  0.256-  74 2.20  65 2.35
   7  0.382  0.485  0.749-  82 2.25  85 2.27  48 2.29  35 2.86  33 2.89
   8  0.905  0.959  0.756-  72 2.26  69 2.29  61 2.32  25 2.79
   9  0.595  0.430  0.260-  52 2.18  43 2.29  75 2.33
  10  0.444  0.013  0.255-  62 2.27  53 2.32  42 2.36  31 2.73  29 2.92
  11  0.815  0.175  0.252-  55 2.23  64 2.24  63 2.29  32 2.85  30 2.95
  12  0.264  0.140  0.746-  46 2.29  49 2.35  28 2.95  26 2.97
  13  0.967  0.312  0.762-  61 2.26  83 2.32
  14  0.434  0.822  0.743-  84 2.33  81 2.33  56 2.38
  15  0.947  0.632  0.247-  77 2.31  86 2.32  66 2.34
  16  0.284  0.653  0.258-  87 2.21  88 2.35  40 2.71  38 2.85
  17  0.608  0.314  0.010-  66 1.95  43 1.99  53 2.07  60 2.07  71 2.14  49 2.15  37 2.80  30 2.84

  18  0.600  0.323  0.511-  75 1.96  57 1.98  46 2.07  68 2.07  62 2.12  52 2.22  32 2.83  39 2.85

  19  0.101  0.324  0.003-  55 1.99  78 2.02  83 2.02  48 2.13  41 2.14  61 2.19  38 2.80  37 2.80

  20  0.102  0.328  0.493-  87 1.97  80 2.01  50 2.02  45 2.07  64 2.08  58 2.13  40 2.78  28 2.85

  21  0.110  0.816  0.998-  77 2.00  84 2.01  73 2.03  42 2.08  47 2.09  67 2.25  38 2.80  29 2.81

  22  0.096  0.815  0.509-  81 1.99  44 2.00  86 2.09  51 2.10  76 2.15  70 2.17  39 2.84  40 2.85

  23  0.596  0.816  0.992-  79 1.94  85 1.99  72 2.02  59 2.12  54 2.13  65 2.14
  24  0.592  0.823  0.507-  82 2.02  69 2.03  88 2.07  56 2.10  63 2.10  74 2.23  36 2.84
  25  0.931  0.976  0.004-  47 1.89  72 1.89  54 1.92  67 1.92  61 1.98  41 1.98   8 2.79  34 2.82
                            30 2.91  26 2.98
  26  0.274  0.156  0.011-  41 1.90  42 1.91  43 1.91  49 1.95  48 1.99  47 2.03  33 2.87  29 2.88
                            12 2.97  25 2.98
  27  0.926  0.989  0.485-  50 1.88  44 1.90  69 1.91  58 1.92  63 1.95  76 2.04  36 2.87  28 2.88
                            32 2.91
  28  0.259  0.157  0.484-  45 1.85  51 1.88  52 1.89  44 1.94  50 1.98  46 1.99  20 2.85  27 2.88
                            35 2.89  31 2.93  12 2.95
  29  0.434  0.985  0.996-  59 1.88  53 1.94  79 1.96  49 1.96  84 1.98  42 1.99  21 2.81  26 2.88
                            30 2.90  10 2.92  38 2.93
  30  0.768  0.148  0.992-  60 1.84  55 1.87  53 1.91  61 1.92  59 1.97  54 2.02  17 2.84  37 2.85
                            29 2.90  25 2.91  11 2.95
  31  0.431  0.992  0.498-  88 1.85  46 1.89  62 1.92  81 1.93  51 1.96  56 1.98  10 2.73  32 2.87
                            28 2.93  40 2.99
  32  0.763  0.160  0.503-  62 1.86  64 1.90  58 1.91  56 1.93  63 1.96  57 1.97  18 2.83  11 2.85
                            39 2.85  31 2.87  27 2.91
  33  0.441  0.487  0.002-  71 1.88  48 1.89  65 1.90  78 1.95  43 2.00  85 2.05  34 2.85  26 2.87
                             7 2.89  38 2.94
  34  0.769  0.651  0.009-  65 1.85  72 1.89  66 1.92  71 1.94  67 1.94  73 2.06  25 2.82  33 2.85
                             3 2.92  37 2.92
  35  0.431  0.489  0.498-  68 1.84  82 1.88  45 1.89  74 1.93  87 1.96  52 1.97  36 2.81   7 2.86
                            28 2.89  40 2.89
  36  0.755  0.659  0.498-  74 1.86  69 1.91  70 1.96  68 1.96  76 1.97  75 2.00  35 2.81  24 2.84
                            27 2.87   3 2.92  39 2.99
  37  0.930  0.476  0.003-  83 1.87  55 1.87  73 1.90  60 1.94  66 1.95  77 1.97  17 2.80  19 2.80
                            30 2.85  38 2.88  34 2.92
  38  0.262  0.646  0.004-  77 1.85  79 1.90  78 1.93  83 1.93  85 1.95  84 1.98  21 2.80  19 2.80
                            16 2.85  37 2.88  29 2.93  33 2.94
  39  0.928  0.488  0.505-  70 1.86  64 1.86  75 1.89  86 1.92  80 1.93  57 1.94  22 2.84  32 2.85
                            18 2.85  40 2.85  36 2.99
  40  0.257  0.648  0.499-  86 1.88  87 1.89  80 1.92  88 1.95  82 1.96  81 2.00  16 2.71  20 2.78
                            22 2.85  39 2.85  35 2.89  31 2.99
  41  0.103  0.139  0.097-  26 1.90  25 1.98  19 2.14   5 2.35   1 2.37
  42  0.278  0.995  0.099-  26 1.91  29 1.99  21 2.08  10 2.36
  43  0.438  0.318  0.099-  26 1.91  17 1.99  33 2.00   9 2.29
  44  0.091  0.997  0.576-  27 1.90  28 1.94  22 2.00
  45  0.277  0.316  0.580-  28 1.85  35 1.89  20 2.07
  46  0.409  0.139  0.589-  31 1.89  28 1.99  18 2.07  12 2.29
  47  0.097  0.995  0.912-  25 1.89  26 2.03  21 2.09
  48  0.287  0.325  0.910-  33 1.89  26 1.99  19 2.13   7 2.29
  49  0.422  0.145  0.904-  26 1.95  29 1.96  17 2.15  12 2.35
  50  0.084  0.150  0.397-  27 1.88  28 1.98  20 2.02
  51  0.267  0.995  0.406-  28 1.88  31 1.96  22 2.10
  52  0.418  0.322  0.397-  28 1.89  35 1.97   9 2.18  18 2.22
  53  0.606  0.129  0.093-  30 1.91  29 1.94  17 2.07  10 2.32
  54  0.777  0.989  0.097-  25 1.92  30 2.02  23 2.13
  55  0.916  0.307  0.085-  30 1.87  37 1.87  19 1.99  11 2.23
  56  0.599  0.008  0.601-  32 1.93  31 1.98  24 2.10   4 2.36  14 2.38
  57  0.771  0.325  0.602-  39 1.94  32 1.97  18 1.98   4 2.21
  58  0.918  0.140  0.585-  32 1.91  27 1.92  20 2.13
  59  0.591  0.997  0.896-  29 1.88  30 1.97  23 2.12
  60  0.776  0.309  0.907-  30 1.84  37 1.94  17 2.07   4 2.38
  61  0.922  0.131  0.901-  30 1.92  25 1.98  19 2.19  13 2.26   8 2.32
  62  0.603  0.147  0.409-  32 1.86  31 1.92  18 2.12  10 2.27
  63  0.762  0.999  0.401-  27 1.95  32 1.96  24 2.10  11 2.29
  64  0.914  0.327  0.413-  39 1.86  32 1.90  20 2.08  11 2.24
  65  0.606  0.641  0.093-  34 1.85  33 1.90  23 2.14   6 2.35
  66  0.773  0.489  0.096-  34 1.92  37 1.95  17 1.95  15 2.34
  67  0.922  0.818  0.107-  25 1.92  34 1.94  21 2.25   5 2.33
  68  0.585  0.500  0.594-  35 1.84  36 1.96  18 2.07   3 2.30
  69  0.777  0.831  0.587-  36 1.91  27 1.91  24 2.03   8 2.29
  70  0.898  0.626  0.596-  39 1.86  36 1.96  22 2.17   3 2.21
  71  0.604  0.495  0.913-  33 1.88  34 1.94  17 2.14   3 2.22
  72  0.776  0.811  0.914-  25 1.89  34 1.89  23 2.02   8 2.26
  73  0.935  0.637  0.909-  37 1.90  21 2.03  34 2.06   2 2.28
  74  0.597  0.639  0.399-  36 1.86  35 1.93   6 2.20  24 2.23
  75  0.767  0.487  0.418-  39 1.89  18 1.96  36 2.00   9 2.33
  76  0.920  0.809  0.395-  36 1.97  27 2.04  22 2.15   5 2.33
  77  0.103  0.643  0.091-  38 1.85  37 1.97  21 2.00  15 2.31
  78  0.280  0.492  0.094-  38 1.93  33 1.95  19 2.02   1 2.20
  79  0.430  0.813  0.083-  38 1.90  23 1.94  29 1.96
  80  0.095  0.492  0.593-  40 1.92  39 1.93  20 2.01
  81  0.276  0.827  0.592-  31 1.93  22 1.99  40 2.00  14 2.33
  82  0.418  0.638  0.591-  35 1.88  40 1.96  24 2.02   7 2.25
  83  0.093  0.493  0.910-  37 1.87  38 1.93  19 2.02  13 2.32
  84  0.276  0.812  0.899-  29 1.98  38 1.98  21 2.01  14 2.33
  85  0.421  0.648  0.903-  38 1.95  23 1.99  33 2.05   7 2.27
  86  0.094  0.638  0.409-  40 1.88  39 1.92  22 2.09  15 2.32
  87  0.271  0.499  0.405-  40 1.89  35 1.96  20 1.97  16 2.21   1 2.38
  88  0.416  0.827  0.413-  31 1.85  40 1.95  24 2.07  16 2.35
 
  LATTYP: Found a hexagonal cell.
 ALAT       =    10.0190000534
 C/A-ratio  =     1.1196726572
  
  Lattice vectors:
  
 A1 = (  10.0190000534,   0.0000000000,   0.0000000000)
 A2 = (  -5.0095000267,   8.6767085668,   0.0000000000)
 A3 = (   0.0000000000,   0.0000000000,  11.2180004120)


Analysis of symmetry for initial positions (statically):
=====================================================================
 Subroutine PRICEL returns:
 Original cell was already a primitive cell.
 

 Routine SETGRP: Setting up the symmetry group for a 
 hexagonal supercell.


 Subroutine GETGRP returns: Found  1 space group operations
 (whereof  1 operations were pure point group operations)
 out of a pool of 24 trial point group operations.


The static configuration has the point symmetry C_1 .


Analysis of symmetry for dynamics (positions and initial velocities):
=====================================================================
 Subroutine PRICEL returns:
 Original cell was already a primitive cell.
 

 Routine SETGRP: Setting up the symmetry group for a 
 hexagonal supercell.


 Subroutine GETGRP returns: Found  1 space group operations
 (whereof  1 operations were pure point group operations)
 out of a pool of 24 trial point group operations.


The dynamic configuration has the point symmetry C_1 .


Analysis of structural, dynamic, and magnetic symmetry:
=====================================================================
 Subroutine PRICEL returns:
 Original cell was already a primitive cell.
 

 Routine SETGRP: Setting up the symmetry group for a 
 hexagonal supercell.


 Subroutine GETGRP returns: Found  1 space group operations
 (whereof  1 operations were pure point group operations)
 out of a pool of 24 trial point group operations.


The magnetic configuration has the point symmetry C_1 .


 Subroutine INISYM returns: Found  1 space group operations
 (whereof  1 operations are pure point group operations),
 and found     1 'primitive' translations

 
 

Automatic generation of k-mesh.
 generate k-points for:    2    2    2
Space group operators:
 irot       det(A)        alpha          n_x          n_y          n_z        tau_x        tau_y        tau_z
    1     1.000000     0.000000     1.000000     0.000000     0.000000     0.000000     0.000000     0.000000
 
 Subroutine IBZKPT returns following result:
 ===========================================
 
 Found      8 irreducible k-points:
 
 Following reciprocal coordinates:
            Coordinates               Weight
  0.000000  0.000000  0.000000      1.000000
  0.500000 -0.000000 -0.000000      1.000000
  0.000000  0.500000  0.000000      1.000000
  0.500000  0.500000 -0.000000      1.000000
  0.000000  0.000000  0.500000      1.000000
  0.500000 -0.000000  0.500000      1.000000
  0.000000  0.500000  0.500000      1.000000
  0.500000  0.500000  0.500000      1.000000
 
 Following cartesian coordinates:
            Coordinates               Weight
  0.000000  0.000000  0.000000      1.000000
  0.049905  0.028813 -0.000000      1.000000
  0.000000  0.057626  0.000000      1.000000
  0.049905  0.086438 -0.000000      1.000000
  0.000000  0.000000  0.044571      1.000000
  0.049905  0.028813  0.044571      1.000000
  0.000000  0.057626  0.044571      1.000000
  0.049905  0.086438  0.044571      1.000000
 


--------------------------------------------------------------------------------------------------------




 Dimension of arrays:
   k-points           NKPTS =      8   k-points in BZ     NKDIM =      8   number of bands    NBANDS=    448
   number of dos      NEDOS =    301   number of ions     NIONS =     88
   non local maximal  LDIM  =      6   non local SUM 2l+1 LMDIM =     18
   total plane-waves  NPLWV = 140000
   max r-space proj   IRMAX =   1632   max aug-charges    IRDMAX=   4555
   dimension x,y,z NGX =    50 NGY =   50 NGZ =   56
   dimension x,y,z NGXF=   100 NGYF=  100 NGZF=  112
   support grid    NGXF=   100 NGYF=  100 NGZF=  112
   ions per type =              16   8  16  48
   NGX,Y,Z   is equivalent  to a cutoff of   8.30,  8.30,  8.30 a.u.
   NGXF,Y,Z  is equivalent  to a cutoff of  16.59, 16.59, 16.60 a.u.

 SYSTEM =  unknown system                          
 POSCAR =  Na Mg Mn  O                             

 Startparameter for this run:
   NWRITE =      2    write-flag & timer
   PREC   = normal    normal or accurate (medium, high low for compatibility)
   ISTART =      0    job   : 0-new  1-cont  2-samecut
   ICHARG =      1    charge: 1-file 2-atom 10-const
   ISPIN  =      2    spin polarized calculation?
   LNONCOLLINEAR =      F non collinear calculations
   LSORBIT =      F    spin-orbit coupling
   INIWAV =      1    electr: 0-lowe 1-rand  2-diag
   LASPH  =      T    aspherical Exc in radial PAW
   METAGGA=      F    non-selfconsistent MetaGGA calc.

 Electronic Relaxation 1
   ENCUT  =  400.0 eV  29.40 Ry    5.42 a.u.  16.34 16.34 18.29*2*pi/ulx,y,z
   ENINI  =  400.0     initial cutoff
   ENAUG  =  758.8 eV  augmentation charge cutoff
   NELM   =    200;   NELMIN=  6; NELMDL=-12     # of ELM steps 
   EDIFF  = 0.1E-04   stopping-criterion for ELM
   LREAL  =      T    real-space projection
   NLSPLINE    = F    spline interpolate recip. space projectors
   LCOMPAT=      F    compatible to vasp.4.4
   GGA_COMPAT  = T    GGA compatible to vasp.4.4-vasp.4.6
   LMAXPAW     = -100 max onsite density
   LMAXMIX     =    4 max onsite mixed and CHGCAR
   VOSKOWN=      0    Vosko Wilk Nusair interpolation
   ROPT   =   -0.00050  -0.00050  -0.00050  -0.00050
 Ionic relaxation
   EDIFFG = 0.1E-03   stopping-criterion for IOM
   NSW    =      1    number of steps for IOM
   NBLOCK =      1;   KBLOCK =      1    inner block; outer block 
   IBRION =     -1    ionic relax: 0-MD 1-quasi-New 2-CG
   NFREE  =      0    steps in history (QN), initial steepest desc. (CG)
   ISIF   =      2    stress and relaxation
   IWAVPR =     10    prediction:  0-non 1-charg 2-wave 3-comb
   ISYM   =      2    0-nonsym 1-usesym 2-fastsym
   LCORR  =      T    Harris-Foulkes like correction to forces

   POTIM  = 0.5000    time-step for ionic-motion
   TEIN   =    0.0    initial temperature
   TEBEG  =    0.0;   TEEND  =   0.0 temperature during run
   SMASS  =  -3.00    Nose mass-parameter (am)
   estimated Nose-frequenzy (Omega)   =  0.10E-29 period in steps =****** mass=  -0.229E-26a.u.
   SCALEE = 1.0000    scale energy and forces
   NPACO  =    256;   APACO  = 16.0  distance and # of slots for P.C.
   PSTRESS=    0.0 pullay stress

  Mass of Ions in am
   POMASS =  22.99 24.30 54.94 16.00
  Ionic Valenz
   ZVAL   =   7.00  8.00 13.00  6.00
  Atomic Wigner-Seitz radii
   RWIGS  =  -1.00 -1.00 -1.00 -1.00
  virtual crystal weights 
   VCA    =   1.00  1.00  1.00  1.00
   NELECT =     672.0000    total number of electrons
   NUPDOWN=      48.0000    fix difference up-down

 DOS related values:
   EMIN   =  10.00;   EMAX   =-10.00  energy-range for DOS
   EFERMI =   0.00
   ISMEAR =     0;   SIGMA  =   0.05  broadening in eV -4-tet -1-fermi 0-gaus

 Electronic relaxation 2 (details)
   IALGO  =     48    algorithm
   LDIAG  =      T    sub-space diagonalisation (order eigenvalues)
   LSUBROT=      F    optimize rotation matrix (better conditioning)
   TURBO    =      0    0=normal 1=particle mesh
   IRESTART =      0    0=no restart 2=restart with 2 vectors
   NREBOOT  =      0    no. of reboots
   NMIN     =      0    reboot dimension
   EREF     =   0.00    reference energy to select bands
   IMIX   =      4    mixing-type and parameters
     AMIX     =   0.40;   BMIX     =  1.00
     AMIX_MAG =   1.60;   BMIX_MAG =  1.00
     AMIN     =   0.10
     WC   =   100.;   INIMIX=   1;  MIXPRE=   1;  MAXMIX= -45

 Intra band minimization:
   WEIMIN = 0.0000     energy-eigenvalue tresh-hold
   EBREAK =  0.56E-08  absolut break condition
   DEPER  =   0.30     relativ break condition  

   TIME   =   0.40     timestep for ELM

  volume/ion in A,a.u.               =      11.08        74.78
  Fermi-wavevector in a.u.,A,eV,Ry     =   1.445993  2.732531 28.448379  2.090897
  Thomas-Fermi vector in A             =   2.564112
 
 Write flags
   LWAVE        =      F    write WAVECAR
   LDOWNSAMPLE  =      F    k-point downsampling of WAVECAR
   LCHARG       =      F    write CHGCAR
   LVTOT        =      F    write LOCPOT, total local potential
   LVHAR        =      F    write LOCPOT, Hartree potential only
   LELF         =      F    write electronic localiz. function (ELF)
   LORBIT       =     11    0 simple, 1 ext, 2 COOP (PROOUT), +10 PAW based schemes


 Dipole corrections
   LMONO  =      F    monopole corrections only (constant potential shift)
   LDIPOL =      F    correct potential (dipole corrections)
   IDIPOL =      0    1-x, 2-y, 3-z, 4-all directions 
   EPSILON=  1.0000000 bulk dielectric constant

 Exchange correlation treatment:
   GGA     =    --    GGA type
   LEXCH   =     8    internal setting for exchange type
   VOSKOWN=      0    Vosko Wilk Nusair interpolation
   LHFCALC =     F    Hartree Fock is set to
   LHFONE  =     F    Hartree Fock one center treatment
   AEXX    =    0.0000 exact exchange contribution

 Linear response parameters
   LEPSILON=     F    determine dielectric tensor
   LRPA    =     F    only Hartree local field effects (RPA)
   LNABLA  =     F    use nabla operator in PAW spheres
   LVEL    =     F    velocity operator in full k-point grid
   LINTERFAST=   F  fast interpolation
   KINTER  =     0    interpolate to denser k-point grid
   CSHIFT  =0.1000    complex shift for real part using Kramers Kronig
   OMEGAMAX=  -1.0    maximum frequency
   DEG_THRESHOLD= 0.2000000E-02 threshold for treating states as degnerate
   RTIME   =   -0.100 relaxation time in fs
  (WPLASMAI=    0.000 imaginary part of plasma frequency in eV, 0.658/RTIME)
   DFIELD  = 0.0000000 0.0000000 0.0000000 field for delta impulse in time
 
 Orbital magnetization related:
   ORBITALMAG=     F  switch on orbital magnetization
   LCHIMAG   =     F  perturbation theory with respect to B field
   DQ        =  0.001000  dq finite difference perturbation B field
   LLRAUG    =     F  two centre corrections for induced B field



--------------------------------------------------------------------------------------------------------


 Static calculation
 charge density and potential will be updated during run
 spin polarized calculation
 RMM-DIIS sequential band-by-band
 perform sub-space diagonalisation
    before iterative eigenvector-optimisation
 modified Broyden-mixing scheme, WC =      100.0
 initial mixing is a Kerker type mixing with AMIX =  0.4000 and BMIX =      1.0000
 Hartree-type preconditioning will be used
 using additional bands          112
 real space projection scheme for non local part
 use partial core corrections
 calculate Harris-corrections to forces 
   (improved forces if not selfconsistent)
 use gradient corrections 
 use of overlap-Matrix (Vanderbilt PP)
 Gauss-broadening in eV      SIGMA  =   0.05


--------------------------------------------------------------------------------------------------------


  energy-cutoff  :      400.00
  volume of cell :      975.20
      direct lattice vectors                 reciprocal lattice vectors
    10.019000053  0.000000000  0.000000000     0.099810360  0.057625538 -0.000000000
    -5.009500027  8.676708567  0.000000000     0.000000000  0.115251076  0.000000000
     0.000000000  0.000000000 11.218000412     0.000000000  0.000000000  0.089142446

  length of vectors
    10.019000053 10.019000053 11.218000412     0.115251076  0.115251076  0.089142446


 
 k-points in units of 2pi/SCALE and weight: read from INCAR                         
   0.00000000  0.00000000  0.00000000       0.125
   0.04990518  0.02881277 -0.00000000       0.125
   0.00000000  0.05762554  0.00000000       0.125
   0.04990518  0.08643831 -0.00000000       0.125
   0.00000000  0.00000000  0.04457122       0.125
   0.04990518  0.02881277  0.04457122       0.125
   0.00000000  0.05762554  0.04457122       0.125
   0.04990518  0.08643831  0.04457122       0.125
 
 k-points in reciprocal lattice and weights: read from INCAR                         
   0.00000000  0.00000000  0.00000000       0.125
   0.50000000 -0.00000000 -0.00000000       0.125
   0.00000000  0.50000000  0.00000000       0.125
   0.50000000  0.50000000 -0.00000000       0.125
   0.00000000  0.00000000  0.50000000       0.125
   0.50000000 -0.00000000  0.50000000       0.125
   0.00000000  0.50000000  0.50000000       0.125
   0.50000000  0.50000000  0.50000000       0.125
 
 position of ions in fractional coordinates (direct lattice) 
   0.23906574  0.33303297  0.24234979
   0.08319494  0.65668433  0.74903991
   0.75156094  0.59682984  0.75246922
   0.60654078  0.18457575  0.74381081
   0.09247015  0.97746051  0.25307273
   0.72218015  0.80604512  0.25598680
   0.38209390  0.48531767  0.74898821
   0.90530052  0.95890527  0.75618824
   0.59547972  0.43037057  0.26034230
   0.44444441  0.01277344  0.25533071
   0.81456004  0.17528437  0.25242645
   0.26433812  0.13979511  0.74645032
   0.96683471  0.31221418  0.76161702
   0.43391367  0.82231182  0.74345959
   0.94723319  0.63205896  0.24693527
   0.28426893  0.65300338  0.25783383
   0.60793785  0.31422284  0.01035006
   0.59995508  0.32321588  0.51113476
   0.10086129  0.32428311  0.00316548
   0.10172184  0.32821201  0.49316543
   0.10974736  0.81620697  0.99794969
   0.09572649  0.81471677  0.50868870
   0.59610322  0.81633259  0.99157410
   0.59163142  0.82269791  0.50717149
   0.93068314  0.97596455  0.00402082
   0.27376776  0.15562814  0.01127019
   0.92630281  0.98851540  0.48532981
   0.25860753  0.15709528  0.48426099
   0.43367714  0.98451388  0.99574787
   0.76796825  0.14799160  0.99158492
   0.43138488  0.99245237  0.49822426
   0.76267569  0.15952247  0.50268584
   0.44097219  0.48665343  0.00150403
   0.76917265  0.65134261  0.00882577
   0.43122592  0.48930882  0.49752539
   0.75469187  0.65865414  0.49818415
   0.93027344  0.47649059  0.00259610
   0.26188670  0.64647786  0.00415324
   0.92845799  0.48765957  0.50529415
   0.25715568  0.64820317  0.49878140
   0.10327103  0.13920140  0.09713942
   0.27838932  0.99470459  0.09937956
   0.43824819  0.31807338  0.09934747
   0.09061361  0.99729909  0.57567300
   0.27721047  0.31591011  0.57966124
   0.40947987  0.13913340  0.58861649
   0.09727266  0.99496153  0.91174003
   0.28661804  0.32467035  0.91009089
   0.42184238  0.14505616  0.90400246
   0.08362149  0.14981948  0.39716080
   0.26671618  0.99546050  0.40643340
   0.41775238  0.32187666  0.39713851
   0.60576362  0.12856488  0.09312266
   0.77704507  0.98937911  0.09674273
   0.91645647  0.30737347  0.08514396
   0.59926215  0.00774679  0.60114902
   0.77055435  0.32546443  0.60227757
   0.91827607  0.13995169  0.58533872
   0.59087896  0.99691513  0.89621141
   0.77635742  0.30921748  0.90655194
   0.92171893  0.13149456  0.90101619
   0.60335993  0.14653022  0.40906755
   0.76162827  0.99911642  0.40146014
   0.91438656  0.32689469  0.41258155
   0.60566060  0.64066344  0.09293278
   0.77289689  0.48855853  0.09573275
   0.92200519  0.81809363  0.10660278
   0.58517650  0.50022425  0.59360312
   0.77748916  0.83148696  0.58735601
   0.89796482  0.62579490  0.59599035
   0.60443152  0.49542058  0.91275625
   0.77552486  0.81115551  0.91427167
   0.93492387  0.63721974  0.90917272
   0.59676914  0.63909373  0.39893206
   0.76691843  0.48675831  0.41798091
   0.91997695  0.80901069  0.39473256
   0.10260958  0.64281172  0.09102692
   0.27953348  0.49238026  0.09442146
   0.43011774  0.81347552  0.08342984
   0.09541172  0.49154008  0.59326527
   0.27631635  0.82669597  0.59243178
   0.41806751  0.63843564  0.59073362
   0.09279535  0.49330803  0.91017112
   0.27556967  0.81233108  0.89937597
   0.42050347  0.64782399  0.90255836
   0.09393350  0.63778217  0.40885718
   0.27051940  0.49907174  0.40470492
   0.41575937  0.82659109  0.41326527
 
 position of ions in cartesian coordinates  (Angst):
   0.72687100  2.88963000  2.71868000
  -2.45613003  5.69785857  8.40273000
   4.54006997  5.17851857  8.44120000
   5.15229989  1.60151000  8.34407000
  -3.97013005  8.48114000  2.83897000
   3.19763997  6.99381857  2.87166000
   1.39699989  4.21096000  8.40215000
   4.26656997  8.32014157  8.48292000
   3.81017000  3.73420000  2.92052000
   4.38889997  0.11083143  2.86430000
   7.28299003  1.52089143  2.83172000
   1.94810003  1.21296143  8.37368000
   8.12268008  2.70899143  8.54382000
   0.22801005  7.13496000  8.34013000
   6.32403003  5.48419143  2.77012000
  -0.42313005  5.66592000  2.89238000
   4.51683000  2.72642000  0.11610700
   4.39180000  2.80445000  5.73391000
  -0.61396700  2.81371000  0.03551040
  -0.62502700  2.84780000  5.53233000
  -2.98923000  7.08199000 11.19500000
  -3.12224000  7.06906000  5.70647000
   1.88294000  7.08308000 11.12347871
   1.80625000  7.13831000  5.68945000
   4.43542000  8.46816000  0.04510560
   1.96326000  1.35034000  0.12642900
   4.32866000  8.57706000  5.44443000
   1.80402000  1.36307000  5.43244000
  -0.58691100  8.54234000 11.17030000
   6.95291000  1.28408000 11.12360000
  -0.64964500  8.61122000  5.58908000
   6.84212000  1.38413000  5.63913000
   1.98021000  4.22255000  0.01687220
   4.44344000  5.65151000  0.09900750
   1.86926000  4.24559000  5.58124000
   4.26173000  5.71495000  5.58863000
   6.93343000  4.13437000  0.02912300
  -0.61468800  5.60930000  0.04659110
   6.85929000  4.23128000  5.66839000
  -0.67073100  5.62427000  5.59533000
   0.33734300  1.20781000  1.08971000
  -2.19379003  8.63076187  1.11484000
   2.79742000  2.75983000  1.11448000
  -4.08811203  8.65327357  6.45790000
   1.19482000  2.74106000  6.50264000
   3.40559000  1.20722000  6.60310000
  -4.00968503  8.63299127 10.22790000
   1.24519000  2.81707000 10.20940000
   3.49978000  1.25861000 10.14110000
   0.08728300  1.29994000  4.45535000
  -2.31453003  8.63732067  4.55937000
   2.57302000  2.79283000  4.45510000
   5.42510000  1.11552000  1.04465000
   2.82891997  8.58455417  1.08526000
   7.64219000  2.66699000  0.95514500
   5.96520000  0.06721660  6.74369000
   6.08977000  2.82396000  6.75635000
   8.49912000  1.21432000  6.56633000
   0.92596997  8.64994207 10.05370000
   6.22930000  2.68299000 10.16970000
   8.57598000  1.14094000 10.10760000
   5.31102000  1.27140000  4.58892000
   2.62567997  8.66904204  4.50358000
   7.52366000  2.83637000  4.62834000
   2.85871000  5.55885000  1.04252000
   5.29622000  4.23908000  1.07393000
   5.13933000  7.09836000  1.19587000
   3.35701000  4.34030000  6.65904000
   3.62433000  7.21457000  6.58896000
   5.86179000  5.42984000  6.68582000
   3.57399000  4.29862000 10.23930000
   3.70650000  7.03816000 10.25630000
   6.17485000  5.52897000 10.19910000
   2.77749000  5.54523000  4.47522000
   5.24534000  4.22346000  4.68891000
   5.16451000  7.01955000  4.42811000
  -2.19212000  5.57749000  1.02114000
   0.33406700  4.27224000  1.05922000
   0.23424400  7.05829000  0.93591600
  -1.50644000  4.26495000  6.65525000
  -1.37292000  7.17300000  6.64590000
   0.99037500  5.53952000  6.62685000
  -1.54151000  4.28029000 10.21030000
  -1.30844000  7.04836000 10.08920000
   0.96775000  5.62098000 10.12490000
  -2.25385000  5.53385000  4.58656000
   0.21023400  4.33030000  4.53998000
   0.02468510  7.17209000  4.63601000
 


--------------------------------------------------------------------------------------------------------


 k-point  1 :   0.0000 0.0000 0.0000  plane waves:   17725
 k-point  2 :   0.5000-0.0000-0.0000  plane waves:   17736
 k-point  3 :   0.0000 0.5000 0.0000  plane waves:   17736
 k-point  4 :   0.5000 0.5000-0.0000  plane waves:   17736
 k-point  5 :   0.0000 0.0000 0.5000  plane waves:   17676
 k-point  6 :   0.5000-0.0000 0.5000  plane waves:   17700
 k-point  7 :   0.0000 0.5000 0.5000  plane waves:   17700
 k-point  8 :   0.5000 0.5000 0.5000  plane waves:   17700

 maximum and minimum number of plane-waves per node :     17736    17676

 maximum number of plane-waves:     17736
 maximum index in each direction: 
   IXMAX=   16   IYMAX=   16   IZMAX=   18
   IXMIN=  -16   IYMIN=  -16   IZMIN=  -18


 serial   3D FFT for wavefunctions
 parallel 3D FFT for charge:
    minimum data exchange during FFTs selected (reduces bandwidth)


 total amount of memory used by VASP MPI-rank0   104107. kBytes
=======================================================================

   base      :      30000. kBytes
   nonlr-proj:      13665. kBytes
   fftplans  :       1316. kBytes
   grid      :      22786. kBytes
   one-center:       2737. kBytes
   wavefun   :      33603. kBytes
 
     INWAV:  cpu time    0.0000: real time    0.0000
 Broyden mixing: mesh for mixing (old mesh)
   NGX = 33   NGY = 33   NGZ = 37
  (NGX  =100   NGY  =100   NGZ  =112)
  gives a total of  40293 points

 initial charge density was supplied:
 charge density of overlapping atoms calculated
 number of electron     672.0000000 magnetization      48.0000000
 keeping initial charge density in first step


--------------------------------------------------------------------------------------------------------


 Maximum index for non-local projection operator         1549
 Maximum index for augmentation-charges          241 (set IRDMAX)


--------------------------------------------------------------------------------------------------------


 First call to EWALD:  gamma=   0.179
 Maximum number of real-space cells 3x 3x 2
 Maximum number of reciprocal cells 3x 3x 3

    FEWALD:  cpu time    0.0022: real time    0.0032


--------------------------------------- Iteration      1(   1)  ---------------------------------------


    POTLOK:  cpu time    0.0667: real time    0.0700
    SETDIJ:  cpu time    2.5596: real time    2.5615
    EDDIAG:  cpu time    3.2403: real time    3.2511
  RMM-DIIS:  cpu time    8.6768: real time    8.6885
    ORTHCH:  cpu time    0.5849: real time    0.5891
       DOS:  cpu time    0.0013: real time    0.0015
    --------------------------------------------
      LOOP:  cpu time   15.1297: real time   15.1617

 eigenvalue-minimisations  :  7168
 total energy-change (2. order) : 0.1771198E+04  (-0.3595829E+05)
 number of electron     672.0000000 magnetization      48.0000000
 augmentation part      672.0000000 magnetization      48.0000000

 Free energy of the ion-electron system (eV)
  ---------------------------------------------------
  alpha Z        PSCENC =      2652.81237852
  Ewald energy   TEWEN  =    -41913.41276778
  -Hartree energ DENC   =    -25704.78620454
  -exchange      EXHF   =         0.00000000
  -V(xc)+E(xc)   XCENC  =      3605.69340610
  PAW double counting   =     55594.23204139   -59034.67079123
  entropy T*S    EENTRO =        -0.04427399
  eigenvalues    EBANDS =     -7290.82356995
  atomic energy  EATOM  =     73862.19814772
  Solvation  Ediel_sol  =         0.00000000
  ---------------------------------------------------
  free energy    TOTEN  =      1771.19836625 eV

  energy without entropy =     1771.24264024  energy(sigma->0) =     1771.22050324


--------------------------------------------------------------------------------------------------------




--------------------------------------- Iteration      1(   2)  ---------------------------------------


    EDDIAG:  cpu time    3.2060: real time    3.2293
  RMM-DIIS:  cpu time    8.6730: real time    8.6906
    ORTHCH:  cpu time    0.5808: real time    0.5846
       DOS:  cpu time    0.0010: real time    0.0010
    --------------------------------------------
      LOOP:  cpu time   12.4608: real time   12.5055

 eigenvalue-minimisations  :  7168
 total energy-change (2. order) :-0.2600066E+04  (-0.8645134E+04)
 number of electron     672.0000000 magnetization      48.0000000
 augmentation part      672.0000000 magnetization      48.0000000

 Free energy of the ion-electron system (eV)
  ---------------------------------------------------
  alpha Z        PSCENC =      2652.81237852
  Ewald energy   TEWEN  =    -41913.41276778
  -Hartree energ DENC   =    -25704.78620454
  -exchange      EXHF   =         0.00000000
  -V(xc)+E(xc)   XCENC  =      3605.69340610
  PAW double counting   =     55594.23204139   -59034.67079123
  entropy T*S    EENTRO =        -0.04463365
  eigenvalues    EBANDS =     -9890.88968271
  atomic energy  EATOM  =     73862.19814772
  Solvation  Ediel_sol  =         0.00000000
  ---------------------------------------------------
  free energy    TOTEN  =      -828.86810618 eV

  energy without entropy =     -828.82347252  energy(sigma->0) =     -828.84578935


--------------------------------------------------------------------------------------------------------




--------------------------------------- Iteration      1(   3)  ---------------------------------------


    EDDIAG:  cpu time    3.2299: real time    3.2361
  RMM-DIIS:  cpu time    8.6796: real time    8.6984
    ORTHCH:  cpu time    0.5831: real time    0.5872
       DOS:  cpu time    0.0010: real time    0.0010
    --------------------------------------------
      LOOP:  cpu time   12.4936: real time   12.5227

 eigenvalue-minimisations  :  7168
 total energy-change (2. order) : 0.2945182E+03  (-0.1556969E+04)
 number of electron     672.0000000 magnetization      48.0000000
 augmentation part      672.0000000 magnetization      48.0000000

 Free energy of the ion-electron system (eV)
  ---------------------------------------------------
  alpha Z        PSCENC =      2652.81237852
  Ewald energy   TEWEN  =    -41913.41276778
  -Hartree energ DENC   =    -25704.78620454
  -exchange      EXHF   =         0.00000000
  -V(xc)+E(xc)   XCENC  =      3605.69340610
  PAW double counting   =     55594.23204139   -59034.67079123
  entropy T*S    EENTRO =        -0.03642434
  eigenvalues    EBANDS =     -9596.37973656
  atomic energy  EATOM  =     73862.19814772
  Solvation  Ediel_sol  =         0.00000000
  ---------------------------------------------------
  free energy    TOTEN  =      -534.34995071 eV

  energy without entropy =     -534.31352637  energy(sigma->0) =     -534.33173854


--------------------------------------------------------------------------------------------------------




--------------------------------------- Iteration      1(   4)  ---------------------------------------


    EDDIAG:  cpu time    3.2276: real time    3.2352
  RMM-DIIS:  cpu time    8.6769: real time    8.7062
    ORTHCH:  cpu time    0.5801: real time    0.5839
       DOS:  cpu time    0.0008: real time    0.0008
    --------------------------------------------
      LOOP:  cpu time   12.4855: real time   12.5262

 eigenvalue-minimisations  :  7168
 total energy-change (2. order) :-0.5238465E+03  (-0.5058253E+03)
 number of electron     672.0000000 magnetization      48.0000000
 augmentation part      672.0000000 magnetization      48.0000000

 Free energy of the ion-electron system (eV)
  ---------------------------------------------------
  alpha Z        PSCENC =      2652.81237852
  Ewald energy   TEWEN  =    -41913.41276778
  -Hartree energ DENC   =    -25704.78620454
  -exchange      EXHF   =         0.00000000
  -V(xc)+E(xc)   XCENC  =      3605.69340610
  PAW double counting   =     55594.23204139   -59034.67079123
  entropy T*S    EENTRO =        -0.00849849
  eigenvalues    EBANDS =    -10120.25418118
  atomic energy  EATOM  =     73862.19814772
  Solvation  Ediel_sol  =         0.00000000
  ---------------------------------------------------
  free energy    TOTEN  =     -1058.19646949 eV

  energy without entropy =    -1058.18797100  energy(sigma->0) =    -1058.19222024


--------------------------------------------------------------------------------------------------------




--------------------------------------- Iteration      1(   5)  ---------------------------------------


    EDDIAG:  cpu time    3.2313: real time    3.2373
  RMM-DIIS:  cpu time    8.6733: real time    8.6875
    ORTHCH:  cpu time    0.5806: real time    0.5860
       DOS:  cpu time    0.0006: real time    0.0006
    --------------------------------------------
      LOOP:  cpu time   12.4859: real time   12.5115

 eigenvalue-minimisations  :  7168
 total energy-change (2. order) :-0.1474731E+03  (-0.2120311E+03)
 number of electron     672.0000000 magnetization      48.0000000
 augmentation part      672.0000000 magnetization      48.0000000

 Free energy of the ion-electron system (eV)
  ---------------------------------------------------
  alpha Z        PSCENC =      2652.81237852
  Ewald energy   TEWEN  =    -41913.41276778
  -Hartree energ DENC   =    -25704.78620454
  -exchange      EXHF   =         0.00000000
  -V(xc)+E(xc)   XCENC  =      3605.69340610
  PAW double counting   =     55594.23204139   -59034.67079123
  entropy T*S    EENTRO =        -0.00000000
  eigenvalues    EBANDS =    -10267.73581695
  atomic energy  EATOM  =     73862.19814772
  Solvation  Ediel_sol  =         0.00000000
  ---------------------------------------------------
  free energy    TOTEN  =     -1205.66960676 eV

  energy without entropy =    -1205.66960676  energy(sigma->0) =    -1205.66960676


--------------------------------------------------------------------------------------------------------




--------------------------------------- Iteration      1(   6)  ---------------------------------------


    EDDIAG:  cpu time    3.2326: real time    3.2408
  RMM-DIIS:  cpu time    8.6898: real time    8.7167
    ORTHCH:  cpu time    0.5810: real time    0.5850
       DOS:  cpu time    0.0007: real time    0.0007
    --------------------------------------------
      LOOP:  cpu time   12.5040: real time   12.5432

 eigenvalue-minimisations  :  7168
 total energy-change (2. order) :-0.2151625E+02  (-0.1145569E+03)
 number of electron     672.0000000 magnetization      48.0000000
 augmentation part      672.0000000 magnetization      48.0000000

 Free energy of the ion-electron system (eV)
  ---------------------------------------------------
  alpha Z        PSCENC =      2652.81237852
  Ewald energy   TEWEN  =    -41913.41276778
  -Hartree energ DENC   =    -25704.78620454
  -exchange      EXHF   =         0.00000000
  -V(xc)+E(xc)   XCENC  =      3605.69340610
  PAW double counting   =     55594.23204139   -59034.67079123
  entropy T*S    EENTRO =        -0.00000000
  eigenvalues    EBANDS =    -10289.25206578
  atomic energy  EATOM  =     73862.19814772
  Solvation  Ediel_sol  =         0.00000000
  ---------------------------------------------------
  free energy    TOTEN  =     -1227.18585560 eV

  energy without entropy =    -1227.18585560  energy(sigma->0) =    -1227.18585560


--------------------------------------------------------------------------------------------------------




--------------------------------------- Iteration      1(   7)  ---------------------------------------


    EDDIAG:  cpu time    3.2288: real time    3.2377
  RMM-DIIS:  cpu time    8.6739: real time    8.6855
    ORTHCH:  cpu time    0.5806: real time    0.5846
       DOS:  cpu time    0.0007: real time    0.0007
    --------------------------------------------
      LOOP:  cpu time   12.4840: real time   12.5084

 eigenvalue-minimisations  :  7168
 total energy-change (2. order) :-0.6648961E+01  (-0.7555459E+02)
 number of electron     672.0000000 magnetization      48.0000000
 augmentation part      672.0000000 magnetization      48.0000000

 Free energy of the ion-electron system (eV)
  ---------------------------------------------------
  alpha Z        PSCENC =      2652.81237852
  Ewald energy   TEWEN  =    -41913.41276778
  -Hartree energ DENC   =    -25704.78620454
  -exchange      EXHF   =         0.00000000
  -V(xc)+E(xc)   XCENC  =      3605.69340610
  PAW double counting   =     55594.23204139   -59034.67079123
  entropy T*S    EENTRO =        -0.00000000
  eigenvalues    EBANDS =    -10295.90102690
  atomic energy  EATOM  =     73862.19814772
  Solvation  Ediel_sol  =         0.00000000
  ---------------------------------------------------
  free energy    TOTEN  =     -1233.83481672 eV

  energy without entropy =    -1233.83481672  energy(sigma->0) =    -1233.83481672


--------------------------------------------------------------------------------------------------------




--------------------------------------- Iteration      1(   8)  ---------------------------------------


    EDDIAG:  cpu time    3.2225: real time    3.2285
  RMM-DIIS:  cpu time    8.6803: real time    8.6954
    ORTHCH:  cpu time    0.5814: real time    0.5851
       DOS:  cpu time    0.0008: real time    0.0008
    --------------------------------------------
      LOOP:  cpu time   12.4850: real time   12.5097

 eigenvalue-minimisations  :  7168
 total energy-change (2. order) : 0.4564629E+01  (-0.5222951E+02)
 number of electron     672.0000000 magnetization      48.0000000
 augmentation part      672.0000000 magnetization      48.0000000

 Free energy of the ion-electron system (eV)
  ---------------------------------------------------
  alpha Z        PSCENC =      2652.81237852
  Ewald energy   TEWEN  =    -41913.41276778
  -Hartree energ DENC   =    -25704.78620454
  -exchange      EXHF   =         0.00000000
  -V(xc)+E(xc)   XCENC  =      3605.69340610
  PAW double counting   =     55594.23204139   -59034.67079123
  entropy T*S    EENTRO =        -0.00000009
  eigenvalues    EBANDS =    -10291.33639760
  atomic energy  EATOM  =     73862.19814772
  Solvation  Ediel_sol  =         0.00000000
  ---------------------------------------------------
  free energy    TOTEN  =     -1229.27018750 eV

  energy without entropy =    -1229.27018742  energy(sigma->0) =    -1229.27018746


--------------------------------------------------------------------------------------------------------




--------------------------------------- Iteration      1(   9)  ---------------------------------------


    EDDIAG:  cpu time    3.2238: real time    3.2304
  RMM-DIIS:  cpu time   18.0085: real time   18.1054
    ORTHCH:  cpu time    0.5803: real time    0.5841
       DOS:  cpu time    0.0006: real time    0.0006
    --------------------------------------------
      LOOP:  cpu time   21.8133: real time   21.9206

 eigenvalue-minimisations  : 20249
 total energy-change (2. order) : 0.1788126E+02  (-0.2335001E+02)
 number of electron     672.0000000 magnetization      48.0000000
 augmentation part      672.0000000 magnetization      48.0000000

 Free energy of the ion-electron system (eV)
  ---------------------------------------------------
  alpha Z        PSCENC =      2652.81237852
  Ewald energy   TEWEN  =    -41913.41276778
  -Hartree energ DENC   =    -25704.78620454
  -exchange      EXHF   =         0.00000000
  -V(xc)+E(xc)   XCENC  =      3605.69340610
  PAW double counting   =     55594.23204139   -59034.67079123
  entropy T*S    EENTRO =        -0.00000000
  eigenvalues    EBANDS =    -10273.45513353
  atomic energy  EATOM  =     73862.19814772
  Solvation  Ediel_sol  =         0.00000000
  ---------------------------------------------------
  free energy    TOTEN  =     -1211.38892334 eV

  energy without entropy =    -1211.38892334  energy(sigma->0) =    -1211.38892334


--------------------------------------------------------------------------------------------------------




--------------------------------------- Iteration      1(  10)  ---------------------------------------


    EDDIAG:  cpu time    3.2206: real time    3.2274
  RMM-DIIS:  cpu time   18.3509: real time   18.4162
    ORTHCH:  cpu time    0.5813: real time    0.5851
       DOS:  cpu time    0.0007: real time    0.0007
    --------------------------------------------
      LOOP:  cpu time   22.1536: real time   22.2295

 eigenvalue-minimisations  : 20230
 total energy-change (2. order) :-0.2986507E+01  (-0.1011695E+01)
 number of electron     672.0000000 magnetization      48.0000000
 augmentation part      672.0000000 magnetization      48.0000000

 Free energy of the ion-electron system (eV)
  ---------------------------------------------------
  alpha Z        PSCENC =      2652.81237852
  Ewald energy   TEWEN  =    -41913.41276778
  -Hartree energ DENC   =    -25704.78620454
  -exchange      EXHF   =         0.00000000
  -V(xc)+E(xc)   XCENC  =      3605.69340610
  PAW double counting   =     55594.23204139   -59034.67079123
  entropy T*S    EENTRO =        -0.00000001
  eigenvalues    EBANDS =    -10276.44164076
  atomic energy  EATOM  =     73862.19814772
  Solvation  Ediel_sol  =         0.00000000
  ---------------------------------------------------
  free energy    TOTEN  =     -1214.37543058 eV

  energy without entropy =    -1214.37543058  energy(sigma->0) =    -1214.37543058


--------------------------------------------------------------------------------------------------------




--------------------------------------- Iteration      1(  11)  ---------------------------------------


    EDDIAG:  cpu time    3.2273: real time    3.2346
  RMM-DIIS:  cpu time   19.2427: real time   19.2915
    ORTHCH:  cpu time    0.5795: real time    0.5847
       DOS:  cpu time    0.0007: real time    0.0007
    --------------------------------------------
      LOOP:  cpu time   23.0502: real time   23.1116

 eigenvalue-minimisations  : 21643
 total energy-change (2. order) : 0.9914495E-01  (-0.9516535E-01)
 number of electron     672.0000000 magnetization      48.0000000
 augmentation part      672.0000000 magnetization      48.0000000

 Free energy of the ion-electron system (eV)
  ---------------------------------------------------
  alpha Z        PSCENC =      2652.81237852
  Ewald energy   TEWEN  =    -41913.41276778
  -Hartree energ DENC   =    -25704.78620454
  -exchange      EXHF   =         0.00000000
  -V(xc)+E(xc)   XCENC  =      3605.69340610
  PAW double counting   =     55594.23204139   -59034.67079123
  entropy T*S    EENTRO =        -0.00000001
  eigenvalues    EBANDS =    -10276.34249581
  atomic energy  EATOM  =     73862.19814772
  Solvation  Ediel_sol  =         0.00000000
  ---------------------------------------------------
  free energy    TOTEN  =     -1214.27628563 eV

  energy without entropy =    -1214.27628562  energy(sigma->0) =    -1214.27628563


--------------------------------------------------------------------------------------------------------




--------------------------------------- Iteration      1(  12)  ---------------------------------------


    EDDIAG:  cpu time    3.2167: real time    3.2230
  RMM-DIIS:  cpu time   20.0013: real time   20.0292
    ORTHCH:  cpu time    0.5803: real time    0.5841
       DOS:  cpu time    0.0007: real time    0.0007
    CHARGE:  cpu time    1.8036: real time    1.8063
    MIXING:  cpu time    0.0010: real time    0.0014
    --------------------------------------------
      LOOP:  cpu time   25.6036: real time   25.6446

 eigenvalue-minimisations  : 22816
 total energy-change (2. order) : 0.6847456E-02  (-0.6587863E-02)
 number of electron     672.0000508 magnetization      48.0000011
 augmentation part      239.0341734 magnetization      29.0268483

 Broyden mixing:
  rms(total) = 0.12511E+02    rms(broyden)= 0.12501E+02
  rms(prec ) = 0.14373E+02
  weight for this iteration     100.00

 Free energy of the ion-electron system (eV)
  ---------------------------------------------------
  alpha Z        PSCENC =      2652.81237852
  Ewald energy   TEWEN  =    -41913.41276778
  -Hartree energ DENC   =    -25704.78620454
  -exchange      EXHF   =         0.00000000
  -V(xc)+E(xc)   XCENC  =      3605.69340610
  PAW double counting   =     55594.23204139   -59034.67079123
  entropy T*S    EENTRO =        -0.00000001
  eigenvalues    EBANDS =    -10276.33564835
  atomic energy  EATOM  =     73862.19814772
  Solvation  Ediel_sol  =         0.00000000
  ---------------------------------------------------
  free energy    TOTEN  =     -1214.26943818 eV

  energy without entropy =    -1214.26943817  energy(sigma->0) =    -1214.26943817


--------------------------------------------------------------------------------------------------------




--------------------------------------- Iteration      1(  13)  ---------------------------------------


    POTLOK:  cpu time    0.0616: real time    0.0632
    SETDIJ:  cpu time    2.7017: real time    2.7105
    EDDIAG:  cpu time    3.2310: real time    3.2387
  RMM-DIIS:  cpu time   16.2187: real time   16.2401
    ORTHCH:  cpu time    0.5822: real time    0.5861
       DOS:  cpu time    0.0008: real time    0.0008
    CHARGE:  cpu time    1.8252: real time    1.8278
    MIXING:  cpu time    0.0009: real time    0.0010
    --------------------------------------------
      LOOP:  cpu time   24.6221: real time   24.6682

 eigenvalue-minimisations  : 17318
 total energy-change (2. order) : 0.2238057E+03  (-0.1383781E+03)
 number of electron     672.0000543 magnetization      48.0000011
 augmentation part      269.2715222 magnetization      26.3376958

 Broyden mixing:
  rms(total) = 0.14011E+02    rms(broyden)= 0.14008E+02
  rms(prec ) = 0.15770E+02
  weight for this iteration     100.00

 eigenvalues of (default mixing * dielectric matrix)
  average eigenvalue GAMMA=   0.3166
  0.3166

 Free energy of the ion-electron system (eV)
  ---------------------------------------------------
  alpha Z        PSCENC =      2652.81237852
  Ewald energy   TEWEN  =    -41913.41276778
  -Hartree energ DENC   =    -25030.97608760
  -exchange      EXHF   =         0.00000000
  -V(xc)+E(xc)   XCENC  =      3695.75585770
  PAW double counting   =     59855.65879902   -63280.61473992
  entropy T*S    EENTRO =        -0.08931924
  eigenvalues    EBANDS =    -10831.79604422
  atomic energy  EATOM  =     73862.19814772
  Solvation  Ediel_sol  =         0.00000000
  ---------------------------------------------------
  free energy    TOTEN  =      -990.46377579 eV

  energy without entropy =     -990.37445654  energy(sigma->0) =     -990.41911617


--------------------------------------------------------------------------------------------------------




--------------------------------------- Iteration      1(  14)  ---------------------------------------


    POTLOK:  cpu time    0.0608: real time    0.0610
    SETDIJ:  cpu time    2.7065: real time    2.7081
    EDDIAG:  cpu time    3.2946: real time    3.3122
  RMM-DIIS:  cpu time   16.9671: real time   16.9926
    ORTHCH:  cpu time    0.5840: real time    0.5877
       DOS:  cpu time    0.0006: real time    0.0006
    CHARGE:  cpu time    1.8071: real time    1.8113
    MIXING:  cpu time    0.0009: real time    0.0009
    --------------------------------------------
      LOOP:  cpu time   25.4217: real time   25.4745

 eigenvalue-minimisations  : 17762
 total energy-change (2. order) : 0.7528985E+02  (-0.1923133E+02)
 number of electron     672.0000522 magnetization      48.0000019
 augmentation part      246.5539277 magnetization      32.1756399

 Broyden mixing:
  rms(total) = 0.52239E+01    rms(broyden)= 0.52195E+01
  rms(prec ) = 0.56450E+01
  weight for this iteration     100.00

 eigenvalues of (default mixing * dielectric matrix)
  average eigenvalue GAMMA=   0.7284
  1.0991  0.3576

 Free energy of the ion-electron system (eV)
  ---------------------------------------------------
  alpha Z        PSCENC =      2652.81237852
  Ewald energy   TEWEN  =    -41913.41276778
  -Hartree energ DENC   =    -25646.54148221
  -exchange      EXHF   =         0.00000000
  -V(xc)+E(xc)   XCENC  =      3673.24638487
  PAW double counting   =     63268.38480205   -66750.39024986
  entropy T*S    EENTRO =        -0.00000000
  eigenvalues    EBANDS =    -10061.47113611
  atomic energy  EATOM  =     73862.19814772
  Solvation  Ediel_sol  =         0.00000000
  ---------------------------------------------------
  free energy    TOTEN  =      -915.17392280 eV

  energy without entropy =     -915.17392280  energy(sigma->0) =     -915.17392280


--------------------------------------------------------------------------------------------------------




--------------------------------------- Iteration      1(  15)  ---------------------------------------


    POTLOK:  cpu time    0.0621: real time    0.0627
    SETDIJ:  cpu time    2.7065: real time    2.7080
    EDDIAG:  cpu time    3.2781: real time    3.2850
  RMM-DIIS:  cpu time   16.8033: real time   16.8449
    ORTHCH:  cpu time    0.5828: real time    0.5867
       DOS:  cpu time    0.0006: real time    0.0006
    CHARGE:  cpu time    1.8110: real time    1.8132
    MIXING:  cpu time    0.0008: real time    0.0008
    --------------------------------------------
      LOOP:  cpu time   25.2451: real time   25.3019

 eigenvalue-minimisations  : 18441
 total energy-change (2. order) : 0.1382386E+02  (-0.2063910E+01)
 number of electron     672.0000522 magnetization      48.0000025
 augmentation part      249.7148605 magnetization      33.8216515

 Broyden mixing:
  rms(total) = 0.20928E+01    rms(broyden)= 0.20925E+01
  rms(prec ) = 0.21686E+01
  weight for this iteration     100.00

 eigenvalues of (default mixing * dielectric matrix)
  average eigenvalue GAMMA=   0.9621
  0.3813  0.7661  1.7388

 Free energy of the ion-electron system (eV)
  ---------------------------------------------------
  alpha Z        PSCENC =      2652.81237852
  Ewald energy   TEWEN  =    -41913.41276778
  -Hartree energ DENC   =    -25562.18538534
  -exchange      EXHF   =         0.00000000
  -V(xc)+E(xc)   XCENC  =      3706.21946209
  PAW double counting   =     67366.06484991   -70888.44684024
  entropy T*S    EENTRO =        -0.00000000
  eigenvalues    EBANDS =    -10124.59990385
  atomic energy  EATOM  =     73862.19814772
  Solvation  Ediel_sol  =         0.00000000
  ---------------------------------------------------
  free energy    TOTEN  =      -901.35005897 eV

  energy without entropy =     -901.35005897  energy(sigma->0) =     -901.35005897


--------------------------------------------------------------------------------------------------------




--------------------------------------- Iteration      1(  16)  ---------------------------------------


    POTLOK:  cpu time    0.0603: real time    0.0605
    SETDIJ:  cpu time    2.7359: real time    2.7374
    EDDIAG:  cpu time    3.2181: real time    3.2256
  RMM-DIIS:  cpu time   16.1164: real time   16.1692
    ORTHCH:  cpu time    0.5813: real time    0.5850
       DOS:  cpu time    0.0006: real time    0.0006
    CHARGE:  cpu time    1.8077: real time    1.8102
    MIXING:  cpu time    0.0008: real time    0.0008
    --------------------------------------------
      LOOP:  cpu time   24.5212: real time   24.5893

 eigenvalue-minimisations  : 17331
 total energy-change (2. order) :-0.1645112E+01  (-0.6860741E+00)
 number of electron     672.0000523 magnetization      48.0000027
 augmentation part      251.2322364 magnetization      33.9129045

 Broyden mixing:
  rms(total) = 0.13729E+01    rms(broyden)= 0.13723E+01
  rms(prec ) = 0.14685E+01
  weight for this iteration     100.00

 eigenvalues of (default mixing * dielectric matrix)
  average eigenvalue GAMMA=   0.9758
  2.0635  0.9114  0.3880  0.5403

 Free energy of the ion-electron system (eV)
  ---------------------------------------------------
  alpha Z        PSCENC =      2652.81237852
  Ewald energy   TEWEN  =    -41913.41276778
  -Hartree energ DENC   =    -25511.04447967
  -exchange      EXHF   =         0.00000000
  -V(xc)+E(xc)   XCENC  =      3707.33588159
  PAW double counting   =     70312.14209851   -73864.45813734
  entropy T*S    EENTRO =        -0.00000000
  eigenvalues    EBANDS =    -10148.56829225
  atomic energy  EATOM  =     73862.19814772
  Solvation  Ediel_sol  =         0.00000000
  ---------------------------------------------------
  free energy    TOTEN  =      -902.99517070 eV

  energy without entropy =     -902.99517070  energy(sigma->0) =     -902.99517070


--------------------------------------------------------------------------------------------------------




--------------------------------------- Iteration      1(  17)  ---------------------------------------


    POTLOK:  cpu time    0.0615: real time    0.0617
    SETDIJ:  cpu time    2.7411: real time    2.7430
    EDDIAG:  cpu time    3.2231: real time    3.2294
  RMM-DIIS:  cpu time   16.9942: real time   17.0405
    ORTHCH:  cpu time    0.5813: real time    0.5870
       DOS:  cpu time    0.0006: real time    0.0006
    CHARGE:  cpu time    1.8046: real time    1.8091
    MIXING:  cpu time    0.0011: real time    0.0011
    --------------------------------------------
      LOOP:  cpu time   25.4074: real time   25.4723

 eigenvalue-minimisations  : 18600
 total energy-change (2. order) : 0.1984902E+00  (-0.5980687E-01)
 number of electron     672.0000523 magnetization      48.0000028
 augmentation part      251.0759263 magnetization      33.9073455

 Broyden mixing:
  rms(total) = 0.74802E+00    rms(broyden)= 0.74794E+00
  rms(prec ) = 0.84226E+00
  weight for this iteration     100.00

 eigenvalues of (default mixing * dielectric matrix)
  average eigenvalue GAMMA=   1.0055
  2.2305  1.1421  0.3797  0.7024  0.5729

 Free energy of the ion-electron system (eV)
  ---------------------------------------------------
  alpha Z        PSCENC =      2652.81237852
  Ewald energy   TEWEN  =    -41913.41276778
  -Hartree energ DENC   =    -25504.86448588
  -exchange      EXHF   =         0.00000000
  -V(xc)+E(xc)   XCENC  =      3704.32348252
  PAW double counting   =     71101.41051707   -74661.50975727
  entropy T*S    EENTRO =        -0.00000000
  eigenvalues    EBANDS =    -10143.75419541
  atomic energy  EATOM  =     73862.19814772
  Solvation  Ediel_sol  =         0.00000000
  ---------------------------------------------------
  free energy    TOTEN  =      -902.79668051 eV

  energy without entropy =     -902.79668051  energy(sigma->0) =     -902.79668051


--------------------------------------------------------------------------------------------------------




--------------------------------------- Iteration      1(  18)  ---------------------------------------


    POTLOK:  cpu time    0.0602: real time    0.0618
    SETDIJ:  cpu time    2.7363: real time    2.7379
    EDDIAG:  cpu time    3.2241: real time    3.2327
  RMM-DIIS:  cpu time   16.4238: real time   16.4486
    ORTHCH:  cpu time    0.5841: real time    0.5886
       DOS:  cpu time    0.0006: real time    0.0006
    CHARGE:  cpu time    1.8121: real time    1.8147
    MIXING:  cpu time    0.0009: real time    0.0009
    --------------------------------------------
      LOOP:  cpu time   24.8421: real time   24.8859

 eigenvalue-minimisations  : 17474
 total energy-change (2. order) : 0.3787527E+00  (-0.6945706E-01)
 number of electron     672.0000522 magnetization      48.0000029
 augmentation part      250.5818901 magnetization      33.8697289

 Broyden mixing:
  rms(total) = 0.27014E+00    rms(broyden)= 0.26985E+00
  rms(prec ) = 0.28417E+00
  weight for this iteration     100.00

 eigenvalues of (default mixing * dielectric matrix)
  average eigenvalue GAMMA=   1.0225
  2.4703  1.3607  0.8559  0.3810  0.5866  0.4808

[...]
   4      -0.707    -0.789     1.496     0.121    -0.004     0.013
   5      -0.637    -0.878     1.515     0.219    -0.052     0.099
   6      -0.845    -0.537     1.382     0.073    -0.019    -0.011
   7      -0.806    -1.066     1.872    -0.188     0.032    -0.063
   8      -1.060    -0.803     1.862    -0.119     0.002     0.055
   9      -0.533    -0.568     1.100     0.104    -0.100     0.015
  10      -0.778    -1.113     1.891    -0.096     0.034    -0.015
  11      -0.958    -0.814     1.772    -0.216    -0.021    -0.134
  12      -0.842    -0.923     1.765    -0.069     0.067    -0.019
  13      -0.776    -0.539     1.314     0.031    -0.123    -0.029
  14      -1.038    -0.559     1.597     0.018     0.020     0.068
  15      -0.515    -0.930     1.445    -0.195     0.060     0.081
  16      -0.958    -0.989     1.947    -0.123    -0.012    -0.022
  17       1.552     1.422    -2.974     0.016    -0.088     0.108
  18       1.462     1.440    -2.902     0.014     0.064     0.068
  19       1.695     1.225    -2.920     0.024     0.063    -0.052
  20       1.469     1.582    -3.051     0.017    -0.109     0.139
  21       1.259     1.581    -2.841    -0.070     0.016     0.010
  22       1.375     1.473    -2.848    -0.167     0.062    -0.139
  23       1.817     1.193    -3.010    -0.014     0.077    -0.093
  24       1.470     1.401    -2.872     0.055    -0.037    -0.051
  25       0.410     0.770    -1.181    -1.385     0.242     0.987
  26      -0.938     0.189     0.748    -1.254     0.241     0.919
  27      -1.092     0.187     0.905     0.311     0.663     0.924
  28       0.588    -2.870     2.283     0.537    -0.017     0.011
  29      -0.171     1.033    -0.862    -0.125     0.135     0.165
  30       0.327     0.828    -1.155    -0.136    -0.073     0.470
  31       0.250    -0.909     0.659    -0.416     0.868    -0.635
  32      -0.247     0.282    -0.035    -0.366    -0.526     0.001
  33      -1.837     0.951     0.886    -1.181    -0.138    -0.969
  34      -0.566    -0.177     0.743     0.046    -0.082     0.100
  35       1.068     0.136    -1.203    -0.746    -0.764    -0.876
  36       0.448     0.542    -0.990    -0.115    -1.010     0.147
  37       0.672    -1.985     1.312    -0.140     0.961     0.657
  38      -1.656     0.280     1.376    -1.508     0.407     0.652
  39      -2.359     1.790     0.570     0.658     1.621     0.511
  40      -0.113    -1.122     1.234     0.074    -0.654    -0.276
  41      -5.151     2.967     2.184    -4.615     2.693    -3.822
  42      -2.045     0.268     1.778     5.874     2.125     4.194
  43       3.903    -6.049     2.146    -1.002    -5.183     0.849
  44      -2.772     1.879     0.892    -3.933    -3.037     3.909
  45       6.885    -6.328    -0.557    -2.061     3.791    -1.353
  46      -2.252     3.812    -1.560     4.991    -2.085    -3.396
  47      -1.780     2.806    -1.026    -5.432     2.516    -3.603
  48       4.852    -4.951     0.099    -1.298    -3.949    -0.412
  49      -0.696     2.350    -1.654     6.388     2.811     3.748
  50      -4.233     0.730     3.503    -4.111    -2.226     4.575
  51      -4.228     0.637     3.591     4.853    -2.772    -3.748
  52       6.254    -6.265     0.010    -1.659     5.550    -0.419
  53      -1.866     4.004    -2.138    -6.179     0.990    -2.921
  54      -3.369     3.873    -0.504     5.448     3.075     3.746
  55       5.189    -6.630     1.440     1.231    -4.700    -1.227
  56      -2.826     3.920    -1.093    -4.389    -2.636     3.134
  57       3.937    -4.814     0.876     0.648     4.896    -0.105
  58      -2.662     2.356     0.306     5.630    -0.200    -5.241
  59      -4.544     4.885    -0.342    -5.274     4.089    -2.984
  60       5.282    -6.523     1.240     1.010    -5.820    -0.478
  61      -3.677     2.550     1.126     5.483     2.289     3.656
  62      -1.947     2.483    -0.536    -6.712    -2.376     3.242
  63      -3.832     2.190     1.642     3.672    -2.766    -4.608
  64       6.435    -7.707     1.272    -1.338     3.820    -0.227
  65      -5.500     3.907     1.593    -5.262     3.889    -4.953
  66      -2.624     0.539     2.084     5.276     2.482     3.422
  67       5.441    -5.774     0.333    -0.173    -4.584     0.553
  68      -1.897     1.481     0.416    -5.270    -4.452     3.731
  69       6.106    -5.468    -0.638    -0.376     3.999    -1.308
  70      -2.660     3.495    -0.835     5.983    -0.678    -2.019
  71      -3.857     3.133     0.725    -5.179     3.193    -5.369
  72       4.993    -5.060     0.067    -0.769    -4.377     0.284
  73      -0.819     0.968    -0.149     4.770     1.762     4.620
  74      -2.967     4.800    -1.834    -6.580    -2.760     1.987
  75      -3.644     2.156     1.487     4.091    -3.106    -4.946
  76       2.878    -4.467     1.588    -0.695     4.935     1.515
  77      -4.405     1.437     2.968    -3.697     2.852    -4.256
  78      -3.350     1.508     1.842     4.150     1.920     3.087
  79       3.206    -6.179     2.972    -1.503    -5.019     0.204
  80      -3.307     2.800     0.507    -3.729    -0.824     4.971
  81       5.538    -5.564     0.026     0.508     4.535    -0.536
  82      -3.568     2.473     1.095     4.693    -2.240    -4.276
  83      -2.865     3.149    -0.285    -4.279     2.798    -2.706
  84       5.934    -5.610    -0.324    -0.310    -3.754     1.143
  85      -2.277     2.239     0.038     4.079     1.875     4.144
  86      -4.318     3.541     0.777    -4.869    -3.264     3.726
  87      -3.159     2.481     0.679     4.811    -0.387    -4.682
  88       5.717    -6.933     1.215    -1.266     4.746    -0.339
 ---------------------------------------------------------------------


 Total hyperfine coupling parameters after diagonalization (MHz)
 (convention: |A_zz| > |A_xx| > |A_yy|)
 ----------------------------------------------------------------------
  ion      A_xx      A_yy      A_zz     asymmetry (A_yy - A_xx)/ A_zz 
 ----------------------------------------------------------------------
   1       1.702     1.356     3.403      -0.102
   2       2.012     1.675     4.119      -0.082
   3       0.503    -0.056     2.973      -0.188
   4       2.143     1.888     4.260      -0.060
   5       1.774     1.269     3.802      -0.133
   6       2.028     1.688     3.931      -0.087
   7       0.426    -0.031     3.007      -0.152
   8       0.603     0.253     3.223      -0.109
   9       1.678     1.466     3.231      -0.066
  10      -0.620    -0.233     2.412       0.160
  11       1.098     0.644     3.540      -0.128
  12       0.583     0.425     3.154      -0.050
  13       1.965     1.714     3.822      -0.066
  14       2.198     1.719     4.357      -0.110
  15       1.922     1.349     3.810      -0.150
  16      -0.708    -0.459     2.338       0.106
  17      13.944     9.543    14.076      -0.313
  18      14.662    10.324    14.700      -0.295
  19      14.402    10.255    14.874      -0.279
  20      15.716    11.188    15.834      -0.286
  21      12.322     8.237    12.673      -0.322
  22      13.644     9.540    13.996      -0.293
  23      14.368    10.160    14.992      -0.281
  24      13.646     9.402    13.776      -0.308
  25      93.519    91.814    95.814      -0.018
  26      96.158    93.866    97.399      -0.024
  27      96.105    95.242    98.258      -0.009
  28      98.421    94.800   100.035      -0.036
  29      96.753    96.000    97.963      -0.008
  30      96.994    95.439    97.669      -0.016
  31      96.457    95.743    98.464      -0.007
  32      95.598    94.686    96.048      -0.009
  33      99.190    96.559   100.951      -0.026
  34      98.478    98.080    99.416      -0.004
  35      97.329    94.881    98.371      -0.025
  36      98.275    96.276    98.818      -0.020
  37      98.605    96.362   100.569      -0.022
  38      96.284    92.811    97.121      -0.036
  39      94.955    91.066    96.513      -0.040
  40      97.232    96.456    99.139      -0.008
  41       5.805    -0.422    15.363      -0.405
  42       6.856     1.149    16.513      -0.346
  43       4.516     0.580    15.149      -0.260
  44       3.376     0.742    13.581      -0.194
  45       7.044     2.392    18.013      -0.258
  46       2.818     0.916    14.226      -0.134
  47       2.322    -0.007    13.828      -0.168
  48       5.410     1.903    14.391      -0.244
  49       4.742     2.633    17.761      -0.119
  50       6.335     1.565    16.495      -0.289
  51       6.387     0.168    15.671      -0.397
  52       4.931     1.596    17.768      -0.188
  53       4.662     1.525    16.201      -0.194
  54       5.134     1.293    16.937      -0.227
  55       7.335     2.218    17.628      -0.290
  56       4.994     2.205    15.393      -0.181
  57       2.547     0.241    12.725      -0.181
  58       5.316    -1.013    15.062      -0.420
  59       6.398    -0.092    17.142      -0.379
  60       5.030     1.311    17.417      -0.214
  61       5.487     0.070    15.266      -0.355
  62       7.299     2.724    18.550      -0.247
  63       3.561     0.554    14.450      -0.208
  64       8.449     1.346    17.746      -0.400
  65       6.990     1.140    19.828      -0.295
  66       6.955     1.520    15.737      -0.345
  67       6.335     2.822    16.800      -0.209
  68       5.560     2.138    17.439      -0.196
  69       7.206     3.547    17.412      -0.210
  70       6.903     1.849    15.858      -0.319
  71       3.764     0.560    17.251      -0.186
  72       5.388     2.753    15.476      -0.170
  73       4.540     1.213    14.527      -0.229
  74       9.257     4.380    20.945      -0.233
  75      -1.974     0.794    12.714       0.218
  76       5.769     2.132    14.795      -0.246
  77       5.570     1.213    15.677      -0.278
  78       5.410     0.585    12.957      -0.372
  79       3.830    -0.878    13.796      -0.341
  80       6.392     3.067    16.483      -0.202
  81       2.436    -0.925    12.893      -0.261
  82       5.048     1.066    15.472      -0.257
  83       5.640     1.909    14.603      -0.256
  84       3.509    -0.493    13.112      -0.305
  85       1.746    -0.377    11.815      -0.180
  86       7.029     1.896    17.602      -0.292
  87       6.292     0.944    15.411      -0.347
  88       5.389     0.086    15.966      -0.332
 ---------------------------------------------------------------------



--------------------------------------------------------------------------------------------------------


 stress matrix after NEB project (eV)
    -47.07672      0.12078     -5.84260
      0.11674    -46.83913      2.34266
     -5.83006      2.34577    -62.23338
  FORCES: max atom, RMS     2.670676    1.131146
  FORCE total and by dimension   10.611095    1.998219
  Stress total and by dimension   91.445395   62.233382
     LOOP+:  cpu time  651.4892: real time  653.2215
    4ORBIT:  cpu time    0.0000: real time    0.0000
 


 total charge     
 
# of ion       s       p       d       tot
------------------------------------------
    1        0.051   5.994   0.000   6.045
    2        0.049   5.990   0.000   6.039
    3        0.054   5.998   0.000   6.052
    4        0.051   5.994   0.000   6.044
    5        0.053   5.996   0.000   6.048
    6        0.050   5.993   0.000   6.043
    7        0.053   5.997   0.000   6.050
    8        0.050   5.994   0.000   6.043
    9        0.052   5.995   0.000   6.047
   10        0.051   5.995   0.000   6.046
   11        0.052   5.996   0.000   6.048
   12        0.046   5.989   0.000   6.035
   13        0.047   5.989   0.000   6.035
   14        0.051   5.993   0.000   6.044
   15        0.048   5.990   0.000   6.039
   16        0.051   5.995   0.000   6.046
   17        0.150   6.130   0.086   6.366
   18        0.150   6.129   0.084   6.363
   19        0.146   6.123   0.079   6.348
   20        0.151   6.133   0.088   6.373
   21        0.147   6.125   0.082   6.354
   22        0.144   6.120   0.078   6.343
   23        0.149   6.129   0.085   6.364
   24        0.144   6.119   0.077   6.339
   25        0.372   6.449   4.820  11.642
   26        0.364   6.428   4.800  11.591
   27        0.372   6.448   4.820  11.640
   28        0.379   6.464   4.837  11.680
   29        0.362   6.425   4.804  11.592
   30        0.381   6.465   4.848  11.694
   31        0.380   6.464   4.839  11.682
   32        0.379   6.464   4.839  11.681
   33        0.366   6.436   4.810  11.612
   34        0.375   6.450   4.833  11.658
   35        0.385   6.475   4.857  11.718
   36        0.367   6.435   4.819  11.621
   37        0.381   6.468   4.842  11.691
   38        0.378   6.460   4.833  11.671
   39        0.390   6.489   4.860  11.738
   40        0.376   6.452   4.834  11.662
   41        1.597   3.495   0.000   5.092
   42        1.597   3.490   0.000   5.087
   43        1.599   3.494   0.000   5.093
   44        1.600   3.509   0.000   5.109
   45        1.601   3.530   0.000   5.131
   46        1.598   3.502   0.000   5.101
   47        1.598   3.483   0.000   5.081
   48        1.598   3.492   0.000   5.090
   49        1.599   3.472   0.000   5.071
   50        1.598   3.511   0.000   5.109
   51        1.598   3.508   0.000   5.105
   52        1.600   3.490   0.000   5.089
   53        1.600   3.495   0.000   5.095
   54        1.599   3.472   0.000   5.071
   55        1.603   3.535   0.000   5.139
   56        1.599   3.485   0.000   5.083
   57        1.599   3.506   0.000   5.105
   58        1.600   3.486   0.000   5.086
   59        1.600   3.485   0.000   5.085
   60        1.602   3.513   0.000   5.115
   61        1.597   3.492   0.000   5.089
   62        1.601   3.509   0.000   5.110
   63        1.598   3.490   0.000   5.088
   64        1.603   3.515   0.000   5.119
   65        1.603   3.503   0.000   5.106
   66        1.597   3.530   0.000   5.127
   67        1.597   3.484   0.000   5.081
   68        1.601   3.509   0.000   5.111
   69        1.601   3.504   0.000   5.105
   70        1.597   3.519   0.000   5.116
   71        1.602   3.495   0.000   5.096
   72        1.601   3.520   0.000   5.121
   73        1.597   3.500   0.000   5.097
   74        1.602   3.495   0.000   5.097
   75        1.600   3.516   0.000   5.116
   76        1.595   3.471   0.000   5.065
   77        1.598   3.526   0.000   5.125
   78        1.596   3.525   0.000   5.120
   79        1.601   3.505   0.000   5.106
   80        1.598   3.514   0.000   5.112
   81        1.597   3.503   0.000   5.100
   82        1.598   3.524   0.000   5.122
   83        1.600   3.528   0.000   5.128
   84        1.599   3.483   0.000   5.082
   85        1.598   3.489   0.000   5.087
   86        1.600   3.510   0.000   5.110
   87        1.598   3.538   0.000   5.136
   88        1.598   3.520   0.000   5.119
--------------------------------------------------
tot         84.755 416.347  77.954 579.056
 


 magnetization (x)
 
# of ion       s       p       d       tot
------------------------------------------
    1        0.002   0.000   0.000   0.002
    2        0.002   0.000   0.000   0.002
    3        0.001   0.000   0.000   0.001
    4        0.002   0.000   0.000   0.002
    5        0.002  -0.000   0.000   0.001
    6        0.002   0.000   0.000   0.002
    7        0.001   0.000   0.000   0.001
    8        0.001   0.000   0.000   0.002
    9        0.002   0.000   0.000   0.002
   10        0.000   0.000   0.000   0.001
   11        0.001   0.001   0.000   0.002
   12        0.001   0.001   0.000   0.002
   13        0.002   0.000   0.000   0.002
   14        0.002   0.000   0.000   0.002
   15        0.002   0.000   0.000   0.002
   16        0.000   0.000   0.000   0.001
   17        0.007   0.002   0.001   0.010
   18        0.008   0.002   0.001   0.011
   19        0.007   0.002   0.001   0.011
   20        0.008   0.003   0.001   0.012
   21        0.006   0.002   0.001   0.009
   22        0.007   0.002   0.001   0.010
   23        0.007   0.003   0.001   0.011
   24        0.007   0.002   0.001   0.010
   25        0.014   0.029   2.752   2.796
   26        0.015   0.029   2.779   2.823
   27        0.015   0.030   2.772   2.817
   28        0.016   0.031   2.746   2.793
   29        0.015   0.029   2.780   2.825
   30        0.015   0.031   2.738   2.784
   31        0.015   0.031   2.745   2.792
   32        0.015   0.031   2.739   2.785
   33        0.016   0.029   2.778   2.823
   34        0.016   0.029   2.760   2.805
   35        0.015   0.031   2.727   2.773
   36        0.016   0.030   2.767   2.813
   37        0.016   0.031   2.749   2.796
   38        0.015   0.030   2.750   2.795
   39        0.015   0.031   2.717   2.763
   40        0.016   0.030   2.760   2.806
   41        0.002   0.033   0.000   0.034
   42        0.002   0.039   0.000   0.041
   43        0.002   0.017   0.000   0.019
   44        0.002   0.023   0.000   0.025
   45        0.002   0.050   0.000   0.053
   46        0.002   0.017   0.000   0.019
   47        0.002   0.017   0.000   0.018
   48        0.002   0.032   0.000   0.034
   49        0.002   0.030   0.000   0.032
   50        0.002   0.038   0.000   0.040
   51        0.002   0.043   0.000   0.044
   52        0.002   0.037   0.000   0.040
   53        0.002   0.025   0.000   0.027
   54        0.002   0.033   0.000   0.035
   55        0.002   0.050   0.000   0.052
   56        0.002   0.023   0.000   0.025
   57        0.002   0.012   0.000   0.014
   58        0.002   0.025   0.000   0.027
   59        0.002   0.035   0.000   0.037
   60        0.002   0.038   0.000   0.040
   61        0.002   0.032   0.000   0.034
   62        0.002   0.051   0.000   0.053
   63        0.002   0.022   0.000   0.023
   64        0.002   0.055   0.000   0.057
   65        0.002   0.050   0.000   0.052
   66        0.002   0.043   0.000   0.045
   67        0.002   0.043   0.000   0.045
   68        0.002   0.042   0.000   0.044
   69        0.003   0.041   0.000   0.044
   70        0.002   0.044   0.000   0.046
   71        0.002   0.032   0.000   0.034
   72        0.002   0.037   0.000   0.039
   73        0.002   0.027   0.000   0.029
   74        0.003   0.060   0.000   0.063
   75        0.001   0.006   0.000   0.007
   76        0.002   0.026   0.000   0.028
   77        0.002   0.043   0.000   0.045
   78        0.002   0.033   0.000   0.034
   79        0.002   0.020   0.000   0.021
   80        0.002   0.041   0.000   0.043
   81        0.002   0.008   0.000   0.010
   82        0.002   0.036   0.000   0.038
   83        0.002   0.034   0.000   0.036
   84        0.002   0.007   0.000   0.009
   85        0.002  -0.003   0.000  -0.002
   86        0.002   0.048   0.000   0.050
   87        0.002   0.038   0.000   0.040
   88        0.002   0.040   0.000   0.042
--------------------------------------------------
tot          0.419   2.075  44.071  46.565
 

 total amount of memory used by VASP MPI-rank0   104107. kBytes
=======================================================================

   base      :      30000. kBytes
   nonlr-proj:      13665. kBytes
   fftplans  :       1316. kBytes
   grid      :      22786. kBytes
   one-center:       2737. kBytes
   wavefun   :      33603. kBytes
 
  
  
 General timing and accounting informations for this job:
 ========================================================
  
                  Total CPU time used (sec):      665.124
                            User time (sec):      660.713
                          System time (sec):        4.412
                         Elapsed time (sec):      668.212
  
                   Maximum memory used (kb):      196912.
                   Average memory used (kb):           0.
  
                          Minor page faults:       280459
                          Major page faults:            0
                 Voluntary context switches:         4032
