 vasp.5.4.4.18Apr17-6-g9f103f2a35 (build Dec 02 2020 12:53:39) complex          
  
 executed on             LinuxIFC date 2021.08.02  11:11:04
 running on   96 total cores
 distrk:  each k-point on   96 cores,    1 groups
 distr:  one band on NCORES_PER_BAND=   1 cores,   96 groups


--------------------------------------------------------------------------------------------------------


 INCAR:
 POTCAR:    PAW_PBE Na_pv 19Sep2006               
 POTCAR:    PAW_PBE Mg_pv 13Apr2007               
 POTCAR:    PAW_PBE Mn_pv 02Aug2007               
 POTCAR:    PAW_PBE O 08Apr2002                   

 ----------------------------------------------------------------------------- 
|                                                                             |
|           W    W    AA    RRRRR   N    N  II  N    N   GGGG   !!!           |
|           W    W   A  A   R    R  NN   N  II  NN   N  G    G  !!!           |
|           W    W  A    A  R    R  N N  N  II  N N  N  G       !!!           |
|           W WW W  AAAAAA  RRRRR   N  N N  II  N  N N  G  GGG   !            |
|           WW  WW  A    A  R   R   N   NN  II  N   NN  G    G                |
|           W    W  A    A  R    R  N    N  II  N    N   GGGG   !!!           |
|                                                                             |
|      For optimal performance we recommend to set                            |
|        NCORE= 4 - approx SQRT( number of cores)                             |
|      NCORE specifies how many cores store one orbital (NPAR=cpu/NCORE).     |
|      This setting can  greatly improve the performance of VASP for DFT.     |
|      The default,   NCORE=1            might be grossly inefficient         |
|      on modern multi-core architectures or massively parallel machines.     |
|      Do your own testing !!!!                                               |
|      Unfortunately you need to use the default for GW and RPA calculations. |
|      (for HF NCORE is supported but not extensively tested yet)             |
|                                                                             |
 ----------------------------------------------------------------------------- 

 POTCAR:    PAW_PBE Na_pv 19Sep2006               
   VRHFIN =Na: p6s1                                                             
   LEXCH  = PE                                                                  
   EATOM  =   766.0439 eV,   56.3026 Ry                                         
                                                                                
   TITEL  = PAW_PBE Na_pv 19Sep2006                                             
   LULTRA =        F    use ultrasoft PP ?                                      
   IUNSCR =        1    unscreen: 0-lin 1-nonlin 2-no                           
   RPACOR =    1.800    partial core radius                                     
   POMASS =   22.990; ZVAL   =    7.000    mass and valenz                      
   RCORE  =    2.200    outmost cutoff radius                                   
   RWIGS  =    2.200; RWIGS  =    1.164    wigner-seitz radius (au A)           
   ENMAX  =  259.561; ENMIN  =  194.671 eV                                      
   ICORE  =        2    local potential                                         
   LCOR   =        T    correct aug charges                                     
   LPAW   =        T    paw PP                                                  
   EAUG   =  368.056                                                            
   DEXC   =    0.000                                                            
   RMAX   =    2.245    core radius for proj-oper                               
   RAUG   =    1.300    factor for augmentation sphere                          
   RDEP   =    2.259    radius for radial grids                                 
   RDEPT  =    1.738    core radius for aug-charge                              
                                                                                
   Atomic configuration                                                         
    5 entries                                                                   
     n  l   j            E        occ.                                          
     1  0  0.50     -1033.6933   2.0000                                         
     2  0  0.50       -56.7526   2.0000                                         
     2  1  1.50       -28.6721   6.0000                                         
     3  0  0.50        -2.7440   1.0000                                         
     3  2  1.50        -1.3606   0.0000                                         
   Description                                                                  
     l       E           TYP  RCUT    TYP  RCUT                                 
     1    -28.6720912     23  2.000                                             
     1      6.8029130     23  2.000                                             
     0     -2.7439560     23  2.200                                             
     0     34.0145650     23  2.200                                             
     2     -1.3605826     23  2.200                                             
  local pseudopotential read in
  partial core-charges read in
  partial kinetic energy density read in
  atomic valenz-charges read in
  non local Contribution for L=           1  read in
    real space projection operators read in
  non local Contribution for L=           1  read in
    real space projection operators read in
  non local Contribution for L=           0  read in
    real space projection operators read in
  non local Contribution for L=           0  read in
    real space projection operators read in
    PAW grid and wavefunctions read in
 
   number of l-projection  operators is LMAX  =           4
   number of lm-projection operators is LMMAX =           8
 
 POTCAR:    PAW_PBE Mg_pv 13Apr2007               
   VRHFIN =Mg: p6s2                                                             
   LEXCH  = PE                                                                  
   EATOM  =  1056.7344 eV,   77.6678 Ry                                         
                                                                                
   TITEL  = PAW_PBE Mg_pv 13Apr2007                                             
   LULTRA =        F    use ultrasoft PP ?                                      
   IUNSCR =        1    unscreen: 0-lin 1-nonlin 2-no                           
   RPACOR =    1.500    partial core radius                                     
   POMASS =   24.305; ZVAL   =    8.000    mass and valenz                      
   RCORE  =    2.000    outmost cutoff radius                                   
   RWIGS  =    2.000; RWIGS  =    1.058    wigner-seitz radius (au A)           
   ENMAX  =  403.929; ENMIN  =  302.947 eV                                      
   RCLOC  =    1.506    cutoff for local pot                                    
   LCOR   =        T    correct aug charges                                     
   LPAW   =        T    paw PP                                                  
   EAUG   =  758.780                                                            
   DEXC   =    0.000                                                            
   RMAX   =    2.045    core radius for proj-oper                               
   RAUG   =    1.300    factor for augmentation sphere                          
   RDEP   =    2.025    radius for radial grids                                 
   RDEPT  =    1.557    core radius for aug-charge                              
                                                                                
   Atomic configuration                                                         
    5 entries                                                                   
     n  l   j            E        occ.                                          
     1  0  0.50     -1259.6230   2.0000                                         
     2  0  0.50       -79.8442   2.0000                                         
     2  1  1.50       -46.6121   6.0000                                         
     3  0  0.50        -4.7055   2.0000                                         
     3  2  1.50        -1.3606   0.0000                                         
   Description                                                                  
     l       E           TYP  RCUT    TYP  RCUT                                 
     1    -46.6121073     23  1.600                                             
     1      2.7211652     23  1.600                                             
     0     -4.7054661     23  2.000                                             
     0     61.2262170     23  2.000                                             
     2     -1.3605826     23  2.000                                             
  local pseudopotential read in
  partial core-charges read in
  partial kinetic energy density read in
  atomic valenz-charges read in
  non local Contribution for L=           1  read in
    real space projection operators read in
  non local Contribution for L=           1  read in
    real space projection operators read in
  non local Contribution for L=           0  read in
    real space projection operators read in
  non local Contribution for L=           0  read in
    real space projection operators read in
  non local Contribution for L=           2  read in
    real space projection operators read in
    PAW grid and wavefunctions read in
 
   number of l-projection  operators is LMAX  =           5
   number of lm-projection operators is LMMAX =          13
 
 POTCAR:    PAW_PBE Mn_pv 02Aug2007               
   VRHFIN =Mn: 3p4s3d                                                           
   LEXCH  = PE                                                                  
   EATOM  =  2025.2664 eV,  148.8529 Ry                                         
                                                                                
   TITEL  = PAW_PBE Mn_pv 02Aug2007                                             
   LULTRA =        F    use ultrasoft PP ?                                      
   IUNSCR =        1    unscreen: 0-lin 1-nonlin 2-no                           
   RPACOR =    2.080    partial core radius                                     
   POMASS =   54.938; ZVAL   =   13.000    mass and valenz                      
   RCORE  =    2.300    outmost cutoff radius                                   
   RWIGS  =    2.500; RWIGS  =    1.323    wigner-seitz radius (au A)           
   ENMAX  =  269.864; ENMIN  =  202.398 eV                                      
   ICORE  =        3    local potential                                         
   LCOR   =        T    correct aug charges                                     
   LPAW   =        T    paw PP                                                  
   EAUG   =  569.085                                                            
   DEXC   =    0.000                                                            
   RMAX   =    2.343    core radius for proj-oper                               
   RAUG   =    1.300    factor for augmentation sphere                          
   RDEP   =    2.338    radius for radial grids                                 
   RDEPT  =    1.798    core radius for aug-charge                              
                                                                                
   Atomic configuration                                                         
    8 entries                                                                   
     n  l   j            E        occ.                                          
     1  0  0.50     -6424.8287   2.0000                                         
     2  0  0.50      -739.1154   2.0000                                         
     2  1  1.50      -625.3949   6.0000                                         
     3  0  0.50       -81.6100   2.0000                                         
     3  1  1.50       -50.4667   6.0000                                         
     3  2  2.50        -3.3745   6.0000                                         
     4  0  0.50        -4.1331   1.0000                                         
     4  3  2.50        -1.3606   0.0000                                         
   Description                                                                  
     l       E           TYP  RCUT    TYP  RCUT                                 
     1    -50.4666628     23  2.000                                             
     1     -1.3605826     23  2.000                                             
     2     -3.3744729     23  2.300                                             
     2     -4.7350555     23  2.300                                             
     0     -4.1331431     23  2.300                                             
     0      7.6656591     23  2.300                                             
     3      9.5240782     23  2.300                                             
  local pseudopotential read in
  partial core-charges read in
  partial kinetic energy density read in
  atomic valenz-charges read in
  non local Contribution for L=           1  read in
    real space projection operators read in
  non local Contribution for L=           1  read in
    real space projection operators read in
  non local Contribution for L=           2  read in
    real space projection operators read in
  non local Contribution for L=           2  read in
    real space projection operators read in
  non local Contribution for L=           0  read in
    real space projection operators read in
  non local Contribution for L=           0  read in
    real space projection operators read in
    PAW grid and wavefunctions read in
 
   number of l-projection  operators is LMAX  =           6
   number of lm-projection operators is LMMAX =          18
 
 POTCAR:    PAW_PBE O 08Apr2002                   
   VRHFIN =O: s2p4                                                              
   LEXCH  = PE                                                                  
   EATOM  =   432.3788 eV,   31.7789 Ry                                         
                                                                                
   TITEL  = PAW_PBE O 08Apr2002                                                 
   LULTRA =        F    use ultrasoft PP ?                                      
   IUNSCR =        1    unscreen: 0-lin 1-nonlin 2-no                           
   RPACOR =    1.200    partial core radius                                     
   POMASS =   16.000; ZVAL   =    6.000    mass and valenz                      
   RCORE  =    1.520    outmost cutoff radius                                   
   RWIGS  =    1.550; RWIGS  =    0.820    wigner-seitz radius (au A)           
   ENMAX  =  400.000; ENMIN  =  300.000 eV                                      
   ICORE  =        2    local potential                                         
   LCOR   =        T    correct aug charges                                     
   LPAW   =        T    paw PP                                                  
   EAUG   =  605.392                                                            
   DEXC   =    0.000                                                            
   RMAX   =    1.553    core radius for proj-oper                               
   RAUG   =    1.300    factor for augmentation sphere                          
   RDEP   =    1.550    radius for radial grids                                 
   RDEPT  =    1.329    core radius for aug-charge                              
                                                                                
   Atomic configuration                                                         
    4 entries                                                                   
     n  l   j            E        occ.                                          
     1  0  0.50      -514.6923   2.0000                                         
     2  0  0.50       -23.9615   2.0000                                         
     2  1  0.50        -9.0305   4.0000                                         
     3  2  1.50        -9.5241   0.0000                                         
   Description                                                                  
     l       E           TYP  RCUT    TYP  RCUT                                 
     0    -23.9615318     23  1.200                                             
     0     -9.5240782     23  1.200                                             
     1     -9.0304911     23  1.520                                             
     1      8.1634956     23  1.520                                             
     2     -9.5240782      7  1.500                                             
  local pseudopotential read in
  partial core-charges read in
  partial kinetic energy density read in
  kinetic energy density of atom read in
  atomic valenz-charges read in
  non local Contribution for L=           0  read in
    real space projection operators read in
  non local Contribution for L=           0  read in
    real space projection operators read in
  non local Contribution for L=           1  read in
    real space projection operators read in
  non local Contribution for L=           1  read in
    real space projection operators read in
    PAW grid and wavefunctions read in
 
   number of l-projection  operators is LMAX  =           4
   number of lm-projection operators is LMMAX =           8
 
 Optimization of the real space projectors (new method)

 maximal supplied QI-value         = 17.01
 optimisation between [QCUT,QGAM] = [ 10.20, 20.41] = [ 29.16,116.64] Ry 
 Optimized for a Real-space Cutoff    1.30 Angstroem

   l    n(q)    QCUT    max X(q) W(low)/X(q) W(high)/X(q)  e(spline) 
   1      7    10.205     4.940    0.23E-03    0.84E-03    0.11E-06
   1      7    10.205     6.253    0.40E-03    0.13E-02    0.18E-06
   0      8    10.205    37.438    0.23E-03    0.37E-03    0.42E-07
   0      8    10.205     9.606    0.16E-03    0.26E-03    0.31E-07
 Optimization of the real space projectors (new method)

 maximal supplied QI-value         = 18.90
 optimisation between [QCUT,QGAM] = [ 10.20, 20.41] = [ 29.16,116.64] Ry 
 Optimized for a Real-space Cutoff    1.26 Angstroem

   l    n(q)    QCUT    max X(q) W(low)/X(q) W(high)/X(q)  e(spline) 
   1      7    10.205     2.974    0.63E-04    0.14E-03    0.13E-06
   1      7    10.205     4.279    0.11E-03    0.45E-03    0.24E-06
   0      8    10.205    16.381    0.44E-03    0.15E-03    0.55E-07
   0      8    10.205     5.611    0.31E-03    0.11E-03    0.40E-07
   2      7    10.205     4.652    0.50E-03    0.47E-03    0.57E-07
 Optimization of the real space projectors (new method)

 maximal supplied QI-value         = 16.25
 optimisation between [QCUT,QGAM] = [ 10.24, 20.48] = [ 29.35,117.42] Ry 
 Optimized for a Real-space Cutoff    1.34 Angstroem

   l    n(q)    QCUT    max X(q) W(low)/X(q) W(high)/X(q)  e(spline) 
   1      8    10.239     3.658    0.23E-03    0.30E-03    0.98E-07
   1      8    10.239     5.612    0.32E-03    0.65E-03    0.21E-06
   2      7    10.239    55.373    0.42E-03    0.45E-03    0.65E-07
   2      7    10.239    50.863    0.43E-03    0.48E-03    0.67E-07
   0      8    10.239    79.536    0.11E-03    0.21E-03    0.56E-07
   0      8    10.239    38.668    0.96E-04    0.19E-03    0.52E-07
 Optimization of the real space projectors (new method)

 maximal supplied QI-value         = 24.76
 optimisation between [QCUT,QGAM] = [ 10.15, 20.30] = [ 28.85,115.39] Ry 
 Optimized for a Real-space Cutoff    1.38 Angstroem

   l    n(q)    QCUT    max X(q) W(low)/X(q) W(high)/X(q)  e(spline) 
   0      8    10.150    20.381    0.22E-03    0.32E-03    0.29E-06
   0      8    10.150    15.268    0.23E-03    0.35E-03    0.30E-06
   1      8    10.150     5.964    0.46E-03    0.53E-03    0.21E-06
   1      8    10.150     5.382    0.38E-03    0.45E-03    0.19E-06
  PAW_PBE Na_pv 19Sep2006               :
 energy of atom  1       EATOM= -766.0439
 kinetic energy error for atom=    0.0103 (will be added to EATOM!!)
  PAW_PBE Mg_pv 13Apr2007               :
 energy of atom  2       EATOM=-1056.7344
 kinetic energy error for atom=    0.0820 (will be added to EATOM!!)
  PAW_PBE Mn_pv 02Aug2007               :
 energy of atom  3       EATOM=-2025.2664
 kinetic energy error for atom=    0.0284 (will be added to EATOM!!)
  PAW_PBE O 08Apr2002                   :
 energy of atom  4       EATOM= -432.3788
 kinetic energy error for atom=    0.1156 (will be added to EATOM!!)
 
 
 POSCAR: Na Mg Mn  O                             
  positions in cartesian coordinates
  No initial velocities read in

 METAGGA = SCAN     LMAXTAU =  6    LMIXTAU =  F

 exchange correlation table for  LEXCH =        8
   RHO(1)=    0.500       N(1)  =     2000
   RHO(2)=  100.500       N(2)  =     4000

 VTST: version 3.2, (02/03/18)

 CHAIN: initializing optimizer
 
 OPT: Using VASP Dynamics algorithm
 CHAIN: Read ICHAIN            0
 
 POSCAR: Na Mg Mn  O                             
  positions in cartesian coordinates
  No initial velocities read in
 


--------------------------------------------------------------------------------------------------------


 ion  position               nearest neighbor table
   1  0.540  0.947  0.247-  79 2.15  53 2.30  88 2.33  29 2.76  31 2.88
   2  0.549  0.308  0.758-  71 2.36  49 2.36  45 2.38
   3  0.564  0.797  0.739-  56 2.23
   4  0.339  0.937  0.742-  44 2.31  84 2.31
   5  0.617  0.432  0.256-  43 2.15  52 2.21  74 2.25
   6  0.041  0.633  0.246-  66 2.26  76 2.29  77 2.34
   7  0.051  0.472  0.759-  83 2.19  80 2.37  37 2.76  39 2.96
   8  0.850  0.622  0.749-  36 2.92  34 2.92
   9  0.244  0.013  0.245-  42 2.21  41 2.22  50 2.23  26 2.97
  10  0.350  0.576  0.260-  87 2.14  78 2.20  86 2.24  40 2.63
  11  0.825  0.784  0.253-  63 2.25  65 2.29  74 2.36
  12  0.332  0.445  0.744-  80 2.33  82 2.35  83 2.37
  13  0.767  0.157  0.751-  57 2.19  60 2.20  59 2.37  56 2.38
  14  0.081  0.041  0.741-  58 2.02  61 2.27  27 2.90
  15  0.022  0.136  0.235-  55 2.27  54 2.34  41 2.38
  16  0.842  0.289  0.253-  75 2.27  62 2.34  66 2.34
  17  0.683  0.299  0.011-  43 1.99  49 2.00  53 2.06  71 2.08  66 2.13  60 2.18  26 2.79
  18  0.693  0.276  0.494-  62 1.99  52 2.03  75 2.06  46 2.06  68 2.09  57 2.10  31 2.85
  19  0.192  0.301  0.995-  48 2.00  78 2.03  83 2.04  61 2.04  55 2.08  41 2.09
  20  0.178  0.273  0.499-  64 1.93  58 1.97  87 2.03  50 2.07  80 2.16  32 2.76  39 2.77
  21  0.195  0.790  0.995-  84 1.93  77 2.04  73 2.05  47 2.06  42 2.10  67 2.18  38 2.79  29 2.84

  22  0.198  0.775  0.502-  70 1.99  81 2.04  44 2.08  51 2.09  76 2.12  86 2.16  40 2.75
  23  0.688  0.804  0.999-  54 1.95  59 2.01  72 2.09  65 2.10  85 2.11  79 2.15  30 2.81  29 2.84
                            38 2.86
  24  0.692  0.779  0.499-  74 2.02  69 2.02  88 2.06  82 2.13  63 2.14  56 2.19  31 2.84
  25  0.028  0.957  0.005-  47 1.83  67 1.86  72 1.96  41 1.97  61 2.00  54 2.01  34 2.83  26 2.89
                            30 2.97
  26  0.361  0.136  0.003-  42 1.89  48 1.90  41 1.92  43 1.92  49 1.93  47 1.96  17 2.79  29 2.89
                            25 2.89  33 2.91   9 2.97
  27  0.026  0.940  0.495-  50 1.84  69 1.85  44 1.92  76 1.95  63 2.00  58 2.05  36 2.84  28 2.90
                            14 2.90  32 2.95
  28  0.360  0.110  0.503-  51 1.89  52 1.92  50 1.95  44 1.95  45 1.97  46 2.00  27 2.90  31 2.90
                            35 2.92
  29  0.522  0.964  0.003-  79 1.84  59 1.91  53 1.92  84 1.94  42 1.95  49 1.99   1 2.76  23 2.84
                            21 2.84  38 2.86  26 2.89  30 2.89
  30  0.856  0.127  0.003-  54 1.88  55 1.89  60 1.94  61 1.95  59 1.96  53 2.00  23 2.81  37 2.89
                            29 2.89  25 2.97
  31  0.533  0.948  0.504-  56 1.84  46 1.86  88 1.88  81 1.89  51 1.96  62 2.02  32 2.84  24 2.84
                            40 2.84  18 2.85   1 2.88  28 2.90
  32  0.860  0.114  0.499-  57 1.88  62 1.88  58 1.89  56 1.91  64 1.92  63 1.97  20 2.76  31 2.84
                            39 2.86  27 2.95
  33  0.524  0.471  0.006-  78 1.88  71 1.89  43 1.89  65 1.90  85 1.92  48 1.95  38 2.84  34 2.89
                            26 2.91
  34  0.857  0.631  0.009-  72 1.89  67 1.91  71 1.93  73 1.94  65 1.95  66 2.04  25 2.83  33 2.89
                            37 2.89   8 2.92
  35  0.516  0.446  0.504-  82 1.87  87 1.93  45 1.94  68 1.95  52 1.95  74 1.99  40 2.87  28 2.92
                            36 3.01
  36  0.862  0.613  0.489-  69 1.91  75 1.91  70 1.93  76 1.96  68 1.96  74 1.98  27 2.84   8 2.92
                            39 2.92  35 3.01
  37  0.018  0.460  0.004-  77 1.87  60 1.88  66 1.91  73 1.92  55 1.93  83 2.05   7 2.76  30 2.89
                            34 2.89  38 2.96
  38  0.359  0.634  0.996-  85 1.85  83 1.86  78 1.86  79 1.93  77 1.95  84 1.99  21 2.79  33 2.84
                            23 2.86  29 2.86  37 2.96
  39  0.029  0.443  0.497-  80 1.83  57 1.87  64 1.89  75 1.92  70 1.97  86 1.97  20 2.77  32 2.86
                            40 2.88  36 2.92   7 2.96
  40  0.361  0.621  0.491-  87 1.88  88 1.89  81 1.89  86 1.92  82 1.94  80 1.95  10 2.63  22 2.75
                            31 2.84  35 2.87  39 2.88
  41  0.195  0.127  0.095-  26 1.92  25 1.97  19 2.09   9 2.22  15 2.38
  42  0.362  0.977  0.093-  26 1.89  29 1.95  21 2.10   9 2.21
  43  0.512  0.306  0.096-  33 1.89  26 1.92  17 1.99   5 2.15
  44  0.188  0.950  0.593-  27 1.92  28 1.95  22 2.08   4 2.31
  45  0.373  0.276  0.604-  35 1.94  28 1.97   2 2.38
  46  0.526  0.100  0.595-  31 1.86  28 2.00  18 2.06
  47  0.188  0.972  0.915-  25 1.83  26 1.96  21 2.06
  48  0.369  0.299  0.912-  26 1.90  33 1.95  19 2.00
  49  0.520  0.132  0.910-  26 1.93  29 1.99  17 2.00   2 2.36
  50  0.188  0.096  0.412-  27 1.84  28 1.95  20 2.07   9 2.23
  51  0.375  0.961  0.409-  28 1.89  31 1.96  22 2.09
  52  0.515  0.280  0.412-  28 1.92  35 1.95  18 2.03   5 2.21
  53  0.684  0.119  0.099-  29 1.92  30 2.00  17 2.06   1 2.30
  54  0.856  0.966  0.090-  30 1.88  23 1.95  25 2.01  15 2.34
  55  0.011  0.291  0.092-  30 1.89  37 1.93  19 2.08  15 2.27
  56  0.694  0.970  0.597-  31 1.84  32 1.91  24 2.19   3 2.23  13 2.38
  57  0.878  0.281  0.587-  39 1.87  32 1.88  18 2.10  13 2.19
  58  0.012  0.105  0.593-  32 1.89  20 1.97  14 2.02  27 2.05
  59  0.684  0.974  0.907-  29 1.91  30 1.96  23 2.01  13 2.37
  60  0.869  0.297  0.911-  37 1.88  30 1.94  17 2.18  13 2.20
  61  0.015  0.119  0.910-  30 1.95  25 2.00  19 2.04  14 2.27
  62  0.704  0.111  0.403-  32 1.88  18 1.99  31 2.02  16 2.34
  63  0.871  0.959  0.396-  32 1.97  27 2.00  24 2.14  11 2.25
  64  0.018  0.278  0.407-  39 1.89  32 1.92  20 1.93
  65  0.688  0.626  0.098-  33 1.90  34 1.95  23 2.10  11 2.29
  66  0.874  0.470  0.109-  37 1.91  34 2.04  17 2.13   6 2.26  16 2.34
  67  0.014  0.798  0.098-  25 1.86  34 1.91  21 2.18
  68  0.693  0.457  0.586-  35 1.95  36 1.96  18 2.09
  69  0.872  0.778  0.580-  27 1.85  36 1.91  24 2.02
  70  0.017  0.606  0.586-  36 1.93  39 1.97  22 1.99
  71  0.686  0.478  0.915-  33 1.89  34 1.93  17 2.08   2 2.36
  72  0.865  0.789  0.912-  34 1.89  25 1.96  23 2.09
  73  0.007  0.614  0.910-  37 1.92  34 1.94  21 2.05
  74  0.685  0.605  0.405-  36 1.98  35 1.99  24 2.02   5 2.25  11 2.36
  75  0.874  0.454  0.404-  36 1.91  39 1.92  18 2.06  16 2.27
  76  0.026  0.780  0.395-  27 1.95  36 1.96  22 2.12   6 2.29
  77  0.186  0.612  0.090-  37 1.87  38 1.95  21 2.04   6 2.34
  78  0.363  0.480  0.086-  38 1.86  33 1.88  19 2.03  10 2.20
  79  0.502  0.803  0.095-  29 1.84  38 1.93   1 2.15  23 2.15
  80  0.192  0.470  0.589-  39 1.83  40 1.95  20 2.16  12 2.33   7 2.37
  81  0.379  0.781  0.591-  31 1.89  40 1.89  22 2.04
  82  0.504  0.597  0.594-  35 1.87  40 1.94  24 2.13  12 2.35
  83  0.201  0.482  0.905-  38 1.86  19 2.04  37 2.05   7 2.19  12 2.37
  84  0.364  0.806  0.902-  21 1.93  29 1.94  38 1.99   4 2.31
  85  0.506  0.618  0.907-  38 1.85  33 1.92  23 2.11
  86  0.194  0.595  0.392-  40 1.92  39 1.97  22 2.16  10 2.24
  87  0.355  0.451  0.413-  40 1.88  35 1.93  20 2.03  10 2.14
  88  0.519  0.789  0.407-  31 1.88  40 1.89  24 2.06   1 2.33
 
  LATTYP: Found a hexagonal cell.
 ALAT       =    10.0190000534
 C/A-ratio  =     1.1196726572
  
  Lattice vectors:
  
 A1 = (  10.0190000534,   0.0000000000,   0.0000000000)
 A2 = (  -5.0095000267,   8.6767085668,   0.0000000000)
 A3 = (   0.0000000000,   0.0000000000,  11.2180004120)


Analysis of symmetry for initial positions (statically):
=====================================================================
 Subroutine PRICEL returns:
 Original cell was already a primitive cell.
 

 Routine SETGRP: Setting up the symmetry group for a 
 hexagonal supercell.


 Subroutine GETGRP returns: Found  1 space group operations
 (whereof  1 operations were pure point group operations)
 out of a pool of 24 trial point group operations.


The static configuration has the point symmetry C_1 .


Analysis of symmetry for dynamics (positions and initial velocities):
=====================================================================
 Subroutine PRICEL returns:
 Original cell was already a primitive cell.
 

 Routine SETGRP: Setting up the symmetry group for a 
 hexagonal supercell.


 Subroutine GETGRP returns: Found  1 space group operations
 (whereof  1 operations were pure point group operations)
 out of a pool of 24 trial point group operations.


The dynamic configuration has the point symmetry C_1 .


Analysis of structural, dynamic, and magnetic symmetry:
=====================================================================
 Subroutine PRICEL returns:
 Original cell was already a primitive cell.
 

 Routine SETGRP: Setting up the symmetry group for a 
 hexagonal supercell.


 Subroutine GETGRP returns: Found  1 space group operations
 (whereof  1 operations were pure point group operations)
 out of a pool of 24 trial point group operations.


The magnetic configuration has the point symmetry C_1 .


 Subroutine INISYM returns: Found  1 space group operations
 (whereof  1 operations are pure point group operations),
 and found     1 'primitive' translations

 
 

Automatic generation of k-mesh.
 generate k-points for:    2    2    2
Space group operators:
 irot       det(A)        alpha          n_x          n_y          n_z        tau_x        tau_y        tau_z
    1     1.000000     0.000000     1.000000     0.000000     0.000000     0.000000     0.000000     0.000000
 
 Subroutine IBZKPT returns following result:
 ===========================================
 
 Found      8 irreducible k-points:
 
 Following reciprocal coordinates:
            Coordinates               Weight
  0.000000  0.000000  0.000000      1.000000
  0.500000 -0.000000 -0.000000      1.000000
  0.000000  0.500000  0.000000      1.000000
  0.500000  0.500000 -0.000000      1.000000
  0.000000  0.000000  0.500000      1.000000
  0.500000 -0.000000  0.500000      1.000000
  0.000000  0.500000  0.500000      1.000000
  0.500000  0.500000  0.500000      1.000000
 
 Following cartesian coordinates:
            Coordinates               Weight
  0.000000  0.000000  0.000000      1.000000
  0.049905  0.028813 -0.000000      1.000000
  0.000000  0.057626  0.000000      1.000000
  0.049905  0.086438 -0.000000      1.000000
  0.000000  0.000000  0.044571      1.000000
  0.049905  0.028813  0.044571      1.000000
  0.000000  0.057626  0.044571      1.000000
  0.049905  0.086438  0.044571      1.000000
 


--------------------------------------------------------------------------------------------------------




 Dimension of arrays:
   k-points           NKPTS =      8   k-points in BZ     NKDIM =      8   number of bands    NBANDS=    480
   number of dos      NEDOS =    301   number of ions     NIONS =     88
   non local maximal  LDIM  =      6   non local SUM 2l+1 LMDIM =     18
   total plane-waves  NPLWV = 140000
   max r-space proj   IRMAX =   1632   max aug-charges    IRDMAX=   4555
   dimension x,y,z NGX =    50 NGY =   50 NGZ =   56
   dimension x,y,z NGXF=   100 NGYF=  100 NGZF=  112
   support grid    NGXF=   100 NGYF=  100 NGZF=  112
   ions per type =              16   8  16  48
   NGX,Y,Z   is equivalent  to a cutoff of   8.30,  8.30,  8.30 a.u.
   NGXF,Y,Z  is equivalent  to a cutoff of  16.59, 16.59, 16.60 a.u.

 SYSTEM =  unknown system                          
 POSCAR =  Na Mg Mn  O                             

 Startparameter for this run:
   NWRITE =      2    write-flag & timer
   PREC   = normal    normal or accurate (medium, high low for compatibility)
   ISTART =      0    job   : 0-new  1-cont  2-samecut
   ICHARG =      1    charge: 1-file 2-atom 10-const
   ISPIN  =      2    spin polarized calculation?
   LNONCOLLINEAR =      F non collinear calculations
   LSORBIT =      F    spin-orbit coupling
   INIWAV =      1    electr: 0-lowe 1-rand  2-diag
   LASPH  =      T    aspherical Exc in radial PAW
   METAGGA=      F    non-selfconsistent MetaGGA calc.

 Electronic Relaxation 1
   ENCUT  =  400.0 eV  29.40 Ry    5.42 a.u.  16.34 16.34 18.29*2*pi/ulx,y,z
   ENINI  =  400.0     initial cutoff
   ENAUG  =  758.8 eV  augmentation charge cutoff
   NELM   =    200;   NELMIN=  6; NELMDL=-12     # of ELM steps 
   EDIFF  = 0.1E-04   stopping-criterion for ELM
   LREAL  =      T    real-space projection
   NLSPLINE    = F    spline interpolate recip. space projectors
   LCOMPAT=      F    compatible to vasp.4.4
   GGA_COMPAT  = T    GGA compatible to vasp.4.4-vasp.4.6
   LMAXPAW     = -100 max onsite density
   LMAXMIX     =    4 max onsite mixed and CHGCAR
   VOSKOWN=      0    Vosko Wilk Nusair interpolation
   ROPT   =   -0.00050  -0.00050  -0.00050  -0.00050
 Ionic relaxation
   EDIFFG = 0.1E-03   stopping-criterion for IOM
   NSW    =      1    number of steps for IOM
   NBLOCK =      1;   KBLOCK =      1    inner block; outer block 
   IBRION =     -1    ionic relax: 0-MD 1-quasi-New 2-CG
   NFREE  =      0    steps in history (QN), initial steepest desc. (CG)
   ISIF   =      2    stress and relaxation
   IWAVPR =     10    prediction:  0-non 1-charg 2-wave 3-comb
   ISYM   =      2    0-nonsym 1-usesym 2-fastsym
   LCORR  =      T    Harris-Foulkes like correction to forces

   POTIM  = 0.5000    time-step for ionic-motion
   TEIN   =    0.0    initial temperature
   TEBEG  =    0.0;   TEEND  =   0.0 temperature during run
   SMASS  =  -3.00    Nose mass-parameter (am)
   estimated Nose-frequenzy (Omega)   =  0.10E-29 period in steps =****** mass=  -0.229E-26a.u.
   SCALEE = 1.0000    scale energy and forces
   NPACO  =    256;   APACO  = 16.0  distance and # of slots for P.C.
   PSTRESS=    0.0 pullay stress

  Mass of Ions in am
   POMASS =  22.99 24.30 54.94 16.00
  Ionic Valenz
   ZVAL   =   7.00  8.00 13.00  6.00
  Atomic Wigner-Seitz radii
   RWIGS  =  -1.00 -1.00 -1.00 -1.00
  virtual crystal weights 
   VCA    =   1.00  1.00  1.00  1.00
   NELECT =     672.0000    total number of electrons
   NUPDOWN=      48.0000    fix difference up-down

 DOS related values:
   EMIN   =  10.00;   EMAX   =-10.00  energy-range for DOS
   EFERMI =   0.00
   ISMEAR =     0;   SIGMA  =   0.05  broadening in eV -4-tet -1-fermi 0-gaus

 Electronic relaxation 2 (details)
   IALGO  =     48    algorithm
   LDIAG  =      T    sub-space diagonalisation (order eigenvalues)
   LSUBROT=      F    optimize rotation matrix (better conditioning)
   TURBO    =      0    0=normal 1=particle mesh
   IRESTART =      0    0=no restart 2=restart with 2 vectors
   NREBOOT  =      0    no. of reboots
   NMIN     =      0    reboot dimension
   EREF     =   0.00    reference energy to select bands
   IMIX   =      4    mixing-type and parameters
     AMIX     =   0.40;   BMIX     =  1.00
     AMIX_MAG =   1.60;   BMIX_MAG =  1.00
     AMIN     =   0.10
     WC   =   100.;   INIMIX=   1;  MIXPRE=   1;  MAXMIX= -45

 Intra band minimization:
   WEIMIN = 0.0000     energy-eigenvalue tresh-hold
   EBREAK =  0.52E-08  absolut break condition
   DEPER  =   0.30     relativ break condition  

   TIME   =   0.40     timestep for ELM

  volume/ion in A,a.u.               =      11.08        74.78
  Fermi-wavevector in a.u.,A,eV,Ry     =   1.445993  2.732531 28.448379  2.090897
  Thomas-Fermi vector in A             =   2.564112
 
 Write flags
   LWAVE        =      F    write WAVECAR
   LDOWNSAMPLE  =      F    k-point downsampling of WAVECAR
   LCHARG       =      F    write CHGCAR
   LVTOT        =      F    write LOCPOT, total local potential
   LVHAR        =      F    write LOCPOT, Hartree potential only
   LELF         =      F    write electronic localiz. function (ELF)
   LORBIT       =     11    0 simple, 1 ext, 2 COOP (PROOUT), +10 PAW based schemes


 Dipole corrections
   LMONO  =      F    monopole corrections only (constant potential shift)
   LDIPOL =      F    correct potential (dipole corrections)
   IDIPOL =      0    1-x, 2-y, 3-z, 4-all directions 
   EPSILON=  1.0000000 bulk dielectric constant

 Exchange correlation treatment:
   GGA     =    --    GGA type
   LEXCH   =     8    internal setting for exchange type
   VOSKOWN=      0    Vosko Wilk Nusair interpolation
   LHFCALC =     F    Hartree Fock is set to
   LHFONE  =     F    Hartree Fock one center treatment
   AEXX    =    0.0000 exact exchange contribution

 Linear response parameters
   LEPSILON=     F    determine dielectric tensor
   LRPA    =     F    only Hartree local field effects (RPA)
   LNABLA  =     F    use nabla operator in PAW spheres
   LVEL    =     F    velocity operator in full k-point grid
   LINTERFAST=   F  fast interpolation
   KINTER  =     0    interpolate to denser k-point grid
   CSHIFT  =0.1000    complex shift for real part using Kramers Kronig
   OMEGAMAX=  -1.0    maximum frequency
   DEG_THRESHOLD= 0.2000000E-02 threshold for treating states as degnerate
   RTIME   =   -0.100 relaxation time in fs
  (WPLASMAI=    0.000 imaginary part of plasma frequency in eV, 0.658/RTIME)
   DFIELD  = 0.0000000 0.0000000 0.0000000 field for delta impulse in time
 
 Orbital magnetization related:
   ORBITALMAG=     F  switch on orbital magnetization
   LCHIMAG   =     F  perturbation theory with respect to B field
   DQ        =  0.001000  dq finite difference perturbation B field
   LLRAUG    =     F  two centre corrections for induced B field



--------------------------------------------------------------------------------------------------------


 Static calculation
 charge density and potential will be updated during run
 spin polarized calculation
 RMM-DIIS sequential band-by-band
 perform sub-space diagonalisation
    before iterative eigenvector-optimisation
 modified Broyden-mixing scheme, WC =      100.0
 initial mixing is a Kerker type mixing with AMIX =  0.4000 and BMIX =      1.0000
 Hartree-type preconditioning will be used
 using additional bands          144
 real space projection scheme for non local part
 use partial core corrections
 calculate Harris-corrections to forces 
   (improved forces if not selfconsistent)
 use gradient corrections 
 use of overlap-Matrix (Vanderbilt PP)
 Gauss-broadening in eV      SIGMA  =   0.05


--------------------------------------------------------------------------------------------------------


  energy-cutoff  :      400.00
  volume of cell :      975.20
      direct lattice vectors                 reciprocal lattice vectors
    10.019000053  0.000000000  0.000000000     0.099810360  0.057625538 -0.000000000
    -5.009500027  8.676708567  0.000000000     0.000000000  0.115251076  0.000000000
     0.000000000  0.000000000 11.218000412     0.000000000  0.000000000  0.089142446

  length of vectors
    10.019000053 10.019000053 11.218000412     0.115251076  0.115251076  0.089142446


 
 k-points in units of 2pi/SCALE and weight: read from INCAR                         
   0.00000000  0.00000000  0.00000000       0.125
   0.04990518  0.02881277 -0.00000000       0.125
   0.00000000  0.05762554  0.00000000       0.125
   0.04990518  0.08643831 -0.00000000       0.125
   0.00000000  0.00000000  0.04457122       0.125
   0.04990518  0.02881277  0.04457122       0.125
   0.00000000  0.05762554  0.04457122       0.125
   0.04990518  0.08643831  0.04457122       0.125
 
 k-points in reciprocal lattice and weights: read from INCAR                         
   0.00000000  0.00000000  0.00000000       0.125
   0.50000000 -0.00000000 -0.00000000       0.125
   0.00000000  0.50000000  0.00000000       0.125
   0.50000000  0.50000000 -0.00000000       0.125
   0.00000000  0.00000000  0.50000000       0.125
   0.50000000 -0.00000000  0.50000000       0.125
   0.00000000  0.50000000  0.50000000       0.125
   0.50000000  0.50000000  0.50000000       0.125
 
 position of ions in fractional coordinates (direct lattice) 
   0.53976009  0.94697199  0.24737653
   0.54945339  0.30759228  0.75785431
   0.56381255  0.79731271  0.73914955
   0.33899242  0.93657353  0.74222764
   0.61718820  0.43157972  0.25604117
   0.04143648  0.63303366  0.24607059
   0.05128585  0.47200979  0.75936171
   0.85047960  0.62193136  0.74856300
   0.24379430  0.01306221  0.24489569
   0.34994940  0.57596528  0.25954447
   0.82482888  0.78437380  0.25311641
   0.33204877  0.44537511  0.74427435
   0.76744155  0.15663576  0.75057762
   0.08118073  0.04109185  0.74113030
   0.02159790  0.13573597  0.23495007
   0.84206544  0.28872815  0.25345783
   0.68258101  0.29851066  0.01086129
   0.69330819  0.27596063  0.49374486
   0.19242381  0.30113608  0.99474318
   0.17789550  0.27279469  0.49949098
   0.19464391  0.79007033  0.99466924
   0.19842878  0.77467970  0.50179353
   0.68849132  0.80352820  0.99852918
   0.69223242  0.77940845  0.49937688
   0.02783682  0.95666576  0.00455061
   0.36104132  0.13579458  0.00326548
   0.02644361  0.94003964  0.49461934
   0.36043587  0.10954327  0.50266980
   0.52208117  0.96395193  0.00287926
   0.85567147  0.12705509  0.00332498
   0.53317515  0.94805766  0.50383132
   0.86029654  0.11355447  0.49865215
   0.52384850  0.47142992  0.00601097
   0.85654839  0.63074724  0.00860968
   0.51586037  0.44579001  0.50421909
   0.86230037  0.61296285  0.48895969
   0.01823755  0.45960516  0.00411976
   0.35948829  0.63389244  0.99611414
   0.02943760  0.44318303  0.49655195
   0.36112171  0.62080914  0.49106791
   0.19494228  0.12652494  0.09518363
   0.36211782  0.97690357  0.09304243
   0.51193463  0.30601120  0.09557229
   0.18773349  0.94969994  0.59255213
   0.37264932  0.27604823  0.60404437
   0.52594622  0.09971558  0.59484398
   0.18774866  0.97188220  0.91527007
   0.36894588  0.29944880  0.91244425
   0.52005089  0.13153605  0.90973432
   0.18786450  0.09568110  0.41223479
   0.37505484  0.96058379  0.40935905
   0.51474502  0.27985036  0.41216882
   0.68352975  0.11869939  0.09944553
   0.85595780  0.96629229  0.08973346
   0.01051998  0.29098707  0.09241487
   0.69425247  0.96959688  0.59653234
   0.87764434  0.28126334  0.58662861
   0.01244227  0.10514805  0.59300497
   0.68396690  0.97390647  0.90697982
   0.86853569  0.29684182  0.91143694
   0.01540647  0.11894948  0.90985021
   0.70416473  0.11070696  0.40338472
   0.87076301  0.95943600  0.39613477
   0.01809584  0.27849731  0.40659207
   0.68773024  0.62551139  0.09813959
   0.87375169  0.47040188  0.10856659
   0.01421687  0.79755243  0.09832501
   0.69252110  0.45701546  0.58576928
   0.87191103  0.77815683  0.58001602
   0.01733334  0.60569973  0.58593152
   0.68576793  0.47806146  0.91545727
   0.86496252  0.78880718  0.91194505
   0.00722101  0.61376730  0.91046529
   0.68498269  0.60464748  0.40506595
   0.87382857  0.45397514  0.40352468
   0.02587021  0.77973922  0.39544837
   0.18560165  0.61206965  0.09014084
   0.36335027  0.47976372  0.08626074
   0.50224052  0.80275832  0.09461936
   0.19165863  0.47027164  0.58935548
   0.37861201  0.78081221  0.59071490
   0.50417351  0.59741778  0.59363342
   0.20095806  0.48213789  0.90534851
   0.36444998  0.80551858  0.90243356
   0.50627174  0.61750605  0.90685502
   0.19372301  0.59490185  0.39218665
   0.35483322  0.45133128  0.41299071
   0.51926226  0.78864928  0.40685771
 
 position of ions in cartesian coordinates  (Angst):
   0.66400011  8.21660000  2.77507000
   3.96408997  2.66888857  8.50161000
   1.65469995  6.91805000  8.29178000
  -1.29540003  8.12637557  8.32631000
   4.02160997  3.74469143  2.87227000
  -2.75603003  5.49264857  2.76042000
  -1.85070013  4.09549143  8.51852000
   5.40539005  5.39631713  8.39738000
   2.37714000  0.11333700  2.74724000
   0.62084500  4.99748287  2.91157000
   4.33464005  6.80578287  2.83946000
   1.09569000  3.86439000  8.34927000
   6.90433005  1.35908287  8.41998000
   0.60750016  0.35654200  8.31400000
  -0.46357997  1.17774143  2.63567000
   6.99027000  2.50521000  2.84329000
   5.34339000  2.59009000  0.12184200
   5.56383000  2.39443000  5.53883000
   0.41935300  2.61287000 11.15902941
   0.41577000  2.36696000  5.60329000
  -2.00772000  6.85521000 11.15820000
  -1.89270000  6.72167000  5.62912000
   2.87272000  6.97198000 11.20150071
   3.03103000  6.76270000  5.60201000
  -4.51352005  8.30071000  0.05104870
   2.93701000  1.17825000  0.03663220
  -4.44419005  8.15645000  5.54864000
   3.06245000  0.95047500  5.63895000
   0.40181400  8.36393000  0.03229959
   7.93649000  1.10242000  0.03729959
   0.59258700  8.22602000  5.65198000
   8.05046000  0.98527900  5.59388000
   2.88681000  4.09046000  0.06743110
   5.42203000  5.47281000  0.09658340
   2.93522000  3.86799000  5.65633000
   5.56875000  5.31850000  5.48515000
  -2.11967005  3.98786000  0.04621550
   0.42622900  5.50010000 11.17440881
  -1.92519005  3.84537000  5.57032000
   0.50813500  5.38658000  5.50880000
   1.31930000  1.09782000  1.06777000
  -1.26574003  8.47630757  1.04375000
   3.59611000  2.65517000  1.07213000
  -2.87662003  8.24026957  6.64725000
   2.35071000  2.39519000  6.77617000
   4.76993000  0.86520300  6.67296000
  -2.98759003  8.43273857 10.26750000
   2.19638000  2.59823000 10.23580000
   4.55146000  1.14130000 10.20540000
   1.40290000  0.83019700  4.62445000
  -1.05437003  8.33470557  4.59219000
   3.75532000  2.42818000  4.62371000
   6.25366000  1.02992000  1.11558000
   3.73519997  8.38423657  1.00663000
  -1.35230005  2.52481000  1.03671000
   2.09851997  8.41290957  6.69190000
   7.38413000  2.44044000  6.58080000
  -0.40208005  0.91233900  6.65233000
   1.97387997  8.45030257 10.17450000
   7.21483000  2.57561000 10.22450000
  -0.44152005  1.03209000 10.20670000
   6.50044000  0.96057200  4.52517000
   3.91787997  8.32474657  4.44384000
  -1.21383005  2.41644000  4.56115000
   3.75687000  5.42738000  1.10093000
   6.39764000  4.08154000  1.21790000
  -3.85290005  6.92013000  1.10301000
   4.64895000  3.96539000  6.57116000
   4.83750000  6.75184000  6.50662000
  -2.86059005  5.25548000  6.57298000
   4.47586000  4.14800000 10.26960000
   4.71453000  6.84425000 10.23020000
  -3.00232005  5.32548000 10.21360000
   3.83386000  5.24635000  4.54403000
   6.48070000  3.93901000  4.52674000
  -3.64691005  6.76557000  4.43614000
  -1.20662000  5.31075000  1.01120000
   1.23703000  4.16277000  0.96767300
   1.01053000  6.96530000  1.06144000
  -0.43559800  4.08041000  6.61139000
  -0.11816500  6.77488000  6.62664000
   2.05855000  5.18362000  6.65938000
  -0.40187100  4.18337000 10.15620000
  -0.38382100  6.98925000 10.12350000
   1.97894000  5.35792000 10.17310000
  -1.03925000  5.16179000  4.39955000
   1.29413000  3.91607000  4.63293000
   1.25175000  6.84288000  4.56413000
 


--------------------------------------------------------------------------------------------------------


 k-point  1 :   0.0000 0.0000 0.0000  plane waves:   17725
 k-point  2 :   0.5000-0.0000-0.0000  plane waves:   17736
 k-point  3 :   0.0000 0.5000 0.0000  plane waves:   17736
 k-point  4 :   0.5000 0.5000-0.0000  plane waves:   17736
 k-point  5 :   0.0000 0.0000 0.5000  plane waves:   17676
 k-point  6 :   0.5000-0.0000 0.5000  plane waves:   17700
 k-point  7 :   0.0000 0.5000 0.5000  plane waves:   17700
 k-point  8 :   0.5000 0.5000 0.5000  plane waves:   17700

 maximum and minimum number of plane-waves per node :     17736    17676

 maximum number of plane-waves:     17736
 maximum index in each direction: 
   IXMAX=   16   IYMAX=   16   IZMAX=   18
   IXMIN=  -16   IYMIN=  -16   IZMIN=  -18


 serial   3D FFT for wavefunctions
 parallel 3D FFT for charge:
    minimum data exchange during FFTs selected (reduces bandwidth)


 total amount of memory used by VASP MPI-rank0    94435. kBytes
=======================================================================

   base      :      30000. kBytes
   nonlr-proj:      13676. kBytes
   fftplans  :       1275. kBytes
   grid      :      22786. kBytes
   one-center:       2737. kBytes
   wavefun   :      23961. kBytes
 
     INWAV:  cpu time    0.0000: real time    0.0001
 Broyden mixing: mesh for mixing (old mesh)
   NGX = 33   NGY = 33   NGZ = 37
  (NGX  =100   NGY  =100   NGZ  =112)
  gives a total of  40293 points

 initial charge density was supplied:
 charge density of overlapping atoms calculated
 number of electron     672.0000000 magnetization      48.0000000
 keeping initial charge density in first step


--------------------------------------------------------------------------------------------------------


 Maximum index for non-local projection operator         1554
 Maximum index for augmentation-charges          483 (set IRDMAX)


--------------------------------------------------------------------------------------------------------


 First call to EWALD:  gamma=   0.179
 Maximum number of real-space cells 3x 3x 2
 Maximum number of reciprocal cells 3x 3x 3

    FEWALD:  cpu time    0.0035: real time    0.0035


--------------------------------------- Iteration      1(   1)  ---------------------------------------


    POTLOK:  cpu time    0.1941: real time    0.1962
    SETDIJ:  cpu time    4.6084: real time    4.6088
    EDDIAG:  cpu time    4.4274: real time    4.8091
  RMM-DIIS:  cpu time    9.0890: real time    9.1058
    ORTHCH:  cpu time    1.1867: real time    1.2687
       DOS:  cpu time    0.0029: real time    0.0030
    --------------------------------------------
      LOOP:  cpu time   19.5085: real time   19.9916

 eigenvalue-minimisations  :  7680
 total energy-change (2. order) : 0.1504079E+04  (-0.3499374E+05)
 number of electron     672.0000000 magnetization      48.0000000
 augmentation part      672.0000000 magnetization      48.0000000

 Free energy of the ion-electron system (eV)
  ---------------------------------------------------
  alpha Z        PSCENC =      2652.81237852
  Ewald energy   TEWEN  =    -41724.02143062
  -Hartree energ DENC   =    -25881.96922687
  -exchange      EXHF   =         0.00000000
  -V(xc)+E(xc)   XCENC  =      3606.36748399
  PAW double counting   =     55594.23204139   -59034.67079123
  entropy T*S    EENTRO =        -0.04738235
  eigenvalues    EBANDS =     -7570.82239335
  atomic energy  EATOM  =     73862.19814772
  Solvation  Ediel_sol  =         0.00000000
  ---------------------------------------------------
  free energy    TOTEN  =      1504.07882721 eV

  energy without entropy =     1504.12620956  energy(sigma->0) =     1504.10251838


--------------------------------------------------------------------------------------------------------




--------------------------------------- Iteration      1(   2)  ---------------------------------------


    EDDIAG:  cpu time    4.4545: real time    4.8321
  RMM-DIIS:  cpu time    9.0898: real time    9.1150
    ORTHCH:  cpu time    1.1725: real time    1.2531
       DOS:  cpu time    0.0024: real time    0.0024
    --------------------------------------------
      LOOP:  cpu time   14.7191: real time   15.2026

 eigenvalue-minimisations  :  7680
 total energy-change (2. order) :-0.2222196E+04  (-0.8007306E+04)
 number of electron     672.0000000 magnetization      48.0000000
 augmentation part      672.0000000 magnetization      48.0000000

 Free energy of the ion-electron system (eV)
  ---------------------------------------------------
  alpha Z        PSCENC =      2652.81237852
  Ewald energy   TEWEN  =    -41724.02143062
  -Hartree energ DENC   =    -25881.96922687
  -exchange      EXHF   =         0.00000000
  -V(xc)+E(xc)   XCENC  =      3606.36748399
  PAW double counting   =     55594.23204139   -59034.67079123
  entropy T*S    EENTRO =        -0.03881635
  eigenvalues    EBANDS =     -9793.02652422
  atomic energy  EATOM  =     73862.19814772
  Solvation  Ediel_sol  =         0.00000000
  ---------------------------------------------------
  free energy    TOTEN  =      -718.11673767 eV

  energy without entropy =     -718.07792132  energy(sigma->0) =     -718.09732949


--------------------------------------------------------------------------------------------------------




--------------------------------------- Iteration      1(   3)  ---------------------------------------


    EDDIAG:  cpu time    4.4405: real time    4.8196
  RMM-DIIS:  cpu time    9.1026: real time    9.1074
    ORTHCH:  cpu time    1.1738: real time    1.2537
       DOS:  cpu time    0.0022: real time    0.0022
    --------------------------------------------
      LOOP:  cpu time   14.7191: real time   15.1829

 eigenvalue-minimisations  :  7680
 total energy-change (2. order) : 0.7295608E+02  (-0.1420036E+04)
 number of electron     672.0000000 magnetization      48.0000000
 augmentation part      672.0000000 magnetization      48.0000000

 Free energy of the ion-electron system (eV)
  ---------------------------------------------------
  alpha Z        PSCENC =      2652.81237852
  Ewald energy   TEWEN  =    -41724.02143062
  -Hartree energ DENC   =    -25881.96922687
  -exchange      EXHF   =         0.00000000
  -V(xc)+E(xc)   XCENC  =      3606.36748399
  PAW double counting   =     55594.23204139   -59034.67079123
  entropy T*S    EENTRO =        -0.04181469
  eigenvalues    EBANDS =     -9720.06744566
  atomic energy  EATOM  =     73862.19814772
  Solvation  Ediel_sol  =         0.00000000
  ---------------------------------------------------
  free energy    TOTEN  =      -645.16065745 eV

  energy without entropy =     -645.11884276  energy(sigma->0) =     -645.13975010


--------------------------------------------------------------------------------------------------------




--------------------------------------- Iteration      1(   4)  ---------------------------------------


    EDDIAG:  cpu time    4.4588: real time    4.8438
  RMM-DIIS:  cpu time    9.0817: real time    9.1085
    ORTHCH:  cpu time    1.1910: real time    1.2698
       DOS:  cpu time    0.0016: real time    0.0016
    --------------------------------------------
      LOOP:  cpu time   14.7331: real time   15.2237

 eigenvalue-minimisations  :  7680
 total energy-change (2. order) :-0.4666370E+03  (-0.4293705E+03)
 number of electron     672.0000000 magnetization      48.0000000
 augmentation part      672.0000000 magnetization      48.0000000

 Free energy of the ion-electron system (eV)
  ---------------------------------------------------
  alpha Z        PSCENC =      2652.81237852
  Ewald energy   TEWEN  =    -41724.02143062
  -Hartree energ DENC   =    -25881.96922687
  -exchange      EXHF   =         0.00000000
  -V(xc)+E(xc)   XCENC  =      3606.36748399
  PAW double counting   =     55594.23204139   -59034.67079123
  entropy T*S    EENTRO =        -0.00000000
  eigenvalues    EBANDS =    -10186.74628899
  atomic energy  EATOM  =     73862.19814772
  Solvation  Ediel_sol  =         0.00000000
  ---------------------------------------------------
  free energy    TOTEN  =     -1111.79768608 eV

  energy without entropy =    -1111.79768608  energy(sigma->0) =    -1111.79768608


--------------------------------------------------------------------------------------------------------




--------------------------------------- Iteration      1(   5)  ---------------------------------------


    EDDIAG:  cpu time    4.4461: real time    4.8143
  RMM-DIIS:  cpu time    9.0901: real time    9.0937
    ORTHCH:  cpu time    1.1694: real time    1.2515
       DOS:  cpu time    0.0013: real time    0.0013
    --------------------------------------------
      LOOP:  cpu time   14.7069: real time   15.1607

 eigenvalue-minimisations  :  7680
 total energy-change (2. order) :-0.1040993E+03  (-0.1594988E+03)
 number of electron     672.0000000 magnetization      48.0000000
 augmentation part      672.0000000 magnetization      48.0000000

 Free energy of the ion-electron system (eV)
  ---------------------------------------------------
  alpha Z        PSCENC =      2652.81237852
  Ewald energy   TEWEN  =    -41724.02143062
  -Hartree energ DENC   =    -25881.96922687
  -exchange      EXHF   =         0.00000000
  -V(xc)+E(xc)   XCENC  =      3606.36748399
  PAW double counting   =     55594.23204139   -59034.67079123
  entropy T*S    EENTRO =        -0.00000000
  eigenvalues    EBANDS =    -10290.84559514
  atomic energy  EATOM  =     73862.19814772
  Solvation  Ediel_sol  =         0.00000000
  ---------------------------------------------------
  free energy    TOTEN  =     -1215.89699223 eV

  energy without entropy =    -1215.89699223  energy(sigma->0) =    -1215.89699223


--------------------------------------------------------------------------------------------------------




--------------------------------------- Iteration      1(   6)  ---------------------------------------


    EDDIAG:  cpu time    4.4536: real time    4.8252
  RMM-DIIS:  cpu time    9.0760: real time    9.1114
    ORTHCH:  cpu time    1.1760: real time    1.2543
       DOS:  cpu time    0.0013: real time    0.0013
    --------------------------------------------
      LOOP:  cpu time   14.7068: real time   15.1922

 eigenvalue-minimisations  :  7680
 total energy-change (2. order) :-0.8876277E+01  (-0.7892420E+02)
 number of electron     672.0000000 magnetization      48.0000000
 augmentation part      672.0000000 magnetization      48.0000000

 Free energy of the ion-electron system (eV)
  ---------------------------------------------------
  alpha Z        PSCENC =      2652.81237852
  Ewald energy   TEWEN  =    -41724.02143062
  -Hartree energ DENC   =    -25881.96922687
  -exchange      EXHF   =         0.00000000
  -V(xc)+E(xc)   XCENC  =      3606.36748399
  PAW double counting   =     55594.23204139   -59034.67079123
  entropy T*S    EENTRO =        -0.00000000
  eigenvalues    EBANDS =    -10299.72187212
  atomic energy  EATOM  =     73862.19814772
  Solvation  Ediel_sol  =         0.00000000
  ---------------------------------------------------
  free energy    TOTEN  =     -1224.77326922 eV

  energy without entropy =    -1224.77326922  energy(sigma->0) =    -1224.77326922


--------------------------------------------------------------------------------------------------------




--------------------------------------- Iteration      1(   7)  ---------------------------------------


    EDDIAG:  cpu time    4.4400: real time    4.8138
  RMM-DIIS:  cpu time    9.0788: real time    9.0958
    ORTHCH:  cpu time    1.1748: real time    1.2545
       DOS:  cpu time    0.0028: real time    0.0028
    --------------------------------------------
      LOOP:  cpu time   14.6964: real time   15.1669

 eigenvalue-minimisations  :  7680
 total energy-change (2. order) :-0.1778273E+01  (-0.4801661E+02)
 number of electron     672.0000000 magnetization      48.0000000
 augmentation part      672.0000000 magnetization      48.0000000

 Free energy of the ion-electron system (eV)
  ---------------------------------------------------
  alpha Z        PSCENC =      2652.81237852
  Ewald energy   TEWEN  =    -41724.02143062
  -Hartree energ DENC   =    -25881.96922687
  -exchange      EXHF   =         0.00000000
  -V(xc)+E(xc)   XCENC  =      3606.36748399
  PAW double counting   =     55594.23204139   -59034.67079123
  entropy T*S    EENTRO =        -0.00000000
  eigenvalues    EBANDS =    -10301.50014552
  atomic energy  EATOM  =     73862.19814772
  Solvation  Ediel_sol  =         0.00000000
  ---------------------------------------------------
  free energy    TOTEN  =     -1226.55154261 eV

  energy without entropy =    -1226.55154261  energy(sigma->0) =    -1226.55154261


--------------------------------------------------------------------------------------------------------




--------------------------------------- Iteration      1(   8)  ---------------------------------------


    EDDIAG:  cpu time    4.5075: real time    4.8745
  RMM-DIIS:  cpu time    9.0283: real time    9.1000
    ORTHCH:  cpu time    1.1736: real time    1.2539
       DOS:  cpu time    0.0014: real time    0.0014
    --------------------------------------------
      LOOP:  cpu time   14.7108: real time   15.2298

 eigenvalue-minimisations  :  7680
 total energy-change (2. order) : 0.4988643E+01  (-0.2976638E+02)
 number of electron     672.0000000 magnetization      48.0000000
 augmentation part      672.0000000 magnetization      48.0000000

 Free energy of the ion-electron system (eV)
  ---------------------------------------------------
  alpha Z        PSCENC =      2652.81237852
  Ewald energy   TEWEN  =    -41724.02143062
  -Hartree energ DENC   =    -25881.96922687
  -exchange      EXHF   =         0.00000000
  -V(xc)+E(xc)   XCENC  =      3606.36748399
  PAW double counting   =     55594.23204139   -59034.67079123
  entropy T*S    EENTRO =        -0.00000000
  eigenvalues    EBANDS =    -10296.51150266
  atomic energy  EATOM  =     73862.19814772
  Solvation  Ediel_sol  =         0.00000000
  ---------------------------------------------------
  free energy    TOTEN  =     -1221.56289976 eV

  energy without entropy =    -1221.56289976  energy(sigma->0) =    -1221.56289976


--------------------------------------------------------------------------------------------------------




--------------------------------------- Iteration      1(   9)  ---------------------------------------


    EDDIAG:  cpu time    4.5069: real time    4.8805
  RMM-DIIS:  cpu time   19.0158: real time   19.0368
    ORTHCH:  cpu time    1.1699: real time    1.2496
       DOS:  cpu time    0.0019: real time    0.0019
    --------------------------------------------
      LOOP:  cpu time   24.6945: real time   25.1688

 eigenvalue-minimisations  : 21784
 total energy-change (2. order) : 0.9166115E+01  (-0.1314180E+02)
 number of electron     672.0000000 magnetization      48.0000000
 augmentation part      672.0000000 magnetization      48.0000000

 Free energy of the ion-electron system (eV)
  ---------------------------------------------------
  alpha Z        PSCENC =      2652.81237852
  Ewald energy   TEWEN  =    -41724.02143062
  -Hartree energ DENC   =    -25881.96922687
  -exchange      EXHF   =         0.00000000
  -V(xc)+E(xc)   XCENC  =      3606.36748399
  PAW double counting   =     55594.23204139   -59034.67079123
  entropy T*S    EENTRO =        -0.00000000
  eigenvalues    EBANDS =    -10287.34538732
  atomic energy  EATOM  =     73862.19814772
  Solvation  Ediel_sol  =         0.00000000
  ---------------------------------------------------
  free energy    TOTEN  =     -1212.39678441 eV

  energy without entropy =    -1212.39678441  energy(sigma->0) =    -1212.39678441


--------------------------------------------------------------------------------------------------------




--------------------------------------- Iteration      1(  10)  ---------------------------------------


    EDDIAG:  cpu time    4.4908: real time    4.8771
  RMM-DIIS:  cpu time   18.0242: real time   18.0404
    ORTHCH:  cpu time    1.1728: real time    1.2537
       DOS:  cpu time    0.0016: real time    0.0016
    --------------------------------------------
      LOOP:  cpu time   23.6893: real time   24.1728

 eigenvalue-minimisations  : 19676
 total energy-change (2. order) :-0.1875525E+01  (-0.5254896E+00)
 number of electron     672.0000000 magnetization      48.0000000
 augmentation part      672.0000000 magnetization      48.0000000

 Free energy of the ion-electron system (eV)
  ---------------------------------------------------
  alpha Z        PSCENC =      2652.81237852
  Ewald energy   TEWEN  =    -41724.02143062
  -Hartree energ DENC   =    -25881.96922687
  -exchange      EXHF   =         0.00000000
  -V(xc)+E(xc)   XCENC  =      3606.36748399
  PAW double counting   =     55594.23204139   -59034.67079123
  entropy T*S    EENTRO =        -0.00000000
  eigenvalues    EBANDS =    -10289.22091231
  atomic energy  EATOM  =     73862.19814772
  Solvation  Ediel_sol  =         0.00000000
  ---------------------------------------------------
  free energy    TOTEN  =     -1214.27230941 eV

  energy without entropy =    -1214.27230941  energy(sigma->0) =    -1214.27230941


--------------------------------------------------------------------------------------------------------




--------------------------------------- Iteration      1(  11)  ---------------------------------------


    EDDIAG:  cpu time    4.4543: real time    4.8443
  RMM-DIIS:  cpu time   19.8574: real time   19.8737
    ORTHCH:  cpu time    1.1774: real time    1.2542
       DOS:  cpu time    0.0014: real time    0.0014
    --------------------------------------------
      LOOP:  cpu time   25.4906: real time   25.9737

 eigenvalue-minimisations  : 22587
 total energy-change (2. order) : 0.7075837E-01  (-0.4308362E-01)
 number of electron     672.0000000 magnetization      48.0000000
 augmentation part      672.0000000 magnetization      48.0000000

 Free energy of the ion-electron system (eV)
  ---------------------------------------------------
  alpha Z        PSCENC =      2652.81237852
  Ewald energy   TEWEN  =    -41724.02143062
  -Hartree energ DENC   =    -25881.96922687
  -exchange      EXHF   =         0.00000000
  -V(xc)+E(xc)   XCENC  =      3606.36748399
  PAW double counting   =     55594.23204139   -59034.67079123
  entropy T*S    EENTRO =        -0.00000000
  eigenvalues    EBANDS =    -10289.15015394
  atomic energy  EATOM  =     73862.19814772
  Solvation  Ediel_sol  =         0.00000000
  ---------------------------------------------------
  free energy    TOTEN  =     -1214.20155104 eV

  energy without entropy =    -1214.20155104  energy(sigma->0) =    -1214.20155104


--------------------------------------------------------------------------------------------------------




--------------------------------------- Iteration      1(  12)  ---------------------------------------


    EDDIAG:  cpu time    4.5199: real time    4.8796
  RMM-DIIS:  cpu time   21.7981: real time   21.8642
    ORTHCH:  cpu time    1.1728: real time    1.2551
       DOS:  cpu time    0.0017: real time    0.0017
    CHARGE:  cpu time    1.7820: real time    1.7835
    MIXING:  cpu time    0.0010: real time    0.0011
    --------------------------------------------
      LOOP:  cpu time   29.2755: real time   29.7853

 eigenvalue-minimisations  : 24445
 total energy-change (2. order) :-0.8874251E-03  (-0.4292110E-02)
 number of electron     672.0000320 magnetization      48.0000054
 augmentation part      239.1200327 magnetization      29.0406562

 Broyden mixing:
  rms(total) = 0.12610E+02    rms(broyden)= 0.12601E+02
  rms(prec ) = 0.14452E+02
  weight for this iteration     100.00

 Free energy of the ion-electron system (eV)
  ---------------------------------------------------
  alpha Z        PSCENC =      2652.81237852
  Ewald energy   TEWEN  =    -41724.02143062
  -Hartree energ DENC   =    -25881.96922687
  -exchange      EXHF   =         0.00000000
  -V(xc)+E(xc)   XCENC  =      3606.36748399
  PAW double counting   =     55594.23204139   -59034.67079123
  entropy T*S    EENTRO =        -0.00000000
  eigenvalues    EBANDS =    -10289.15104137
  atomic energy  EATOM  =     73862.19814772
  Solvation  Ediel_sol  =         0.00000000
  ---------------------------------------------------
  free energy    TOTEN  =     -1214.20243846 eV

  energy without entropy =    -1214.20243846  energy(sigma->0) =    -1214.20243846


--------------------------------------------------------------------------------------------------------




--------------------------------------- Iteration      1(  13)  ---------------------------------------


    POTLOK:  cpu time    0.1727: real time    0.1733
    SETDIJ:  cpu time    4.9551: real time    4.9569
    EDDIAG:  cpu time    4.4560: real time    4.8370
  RMM-DIIS:  cpu time   17.3066: real time   17.3471
    ORTHCH:  cpu time    1.1702: real time    1.2505
       DOS:  cpu time    0.0015: real time    0.0015
    CHARGE:  cpu time    1.7861: real time    1.7872
    MIXING:  cpu time    0.0009: real time    0.0010
    --------------------------------------------
      LOOP:  cpu time   29.8492: real time   30.3544

 eigenvalue-minimisations  : 18767
 total energy-change (2. order) : 0.2297564E+03  (-0.1209020E+03)
 number of electron     672.0000365 magnetization      48.0000063
 augmentation part      268.7982420 magnetization      26.5746169

 Broyden mixing:
  rms(total) = 0.13862E+02    rms(broyden)= 0.13859E+02
  rms(prec ) = 0.15576E+02
  weight for this iteration     100.00

 eigenvalues of (default mixing * dielectric matrix)
  average eigenvalue GAMMA=   0.3202
  0.3202

 Free energy of the ion-electron system (eV)
  ---------------------------------------------------
  alpha Z        PSCENC =      2652.81237852
  Ewald energy   TEWEN  =    -41724.02143062
  -Hartree energ DENC   =    -25215.81342083
  -exchange      EXHF   =         0.00000000
  -V(xc)+E(xc)   XCENC  =      3696.83143564
  PAW double counting   =     59941.46707761   -63367.15973101
  entropy T*S    EENTRO =        -0.10251531
  eigenvalues    EBANDS =    -10830.65793113
  atomic energy  EATOM  =     73862.19814772
  Solvation  Ediel_sol  =         0.00000000
  ---------------------------------------------------
  free energy    TOTEN  =      -984.44598939 eV

  energy without entropy =     -984.34347408  energy(sigma->0) =     -984.39473174


--------------------------------------------------------------------------------------------------------




--------------------------------------- Iteration      1(  14)  ---------------------------------------


    POTLOK:  cpu time    0.1713: real time    0.1714
    SETDIJ:  cpu time    4.9415: real time    4.9433
    EDDIAG:  cpu time    4.5030: real time    4.8900
  RMM-DIIS:  cpu time   18.0231: real time   18.0366
    ORTHCH:  cpu time    1.1743: real time    1.2523
       DOS:  cpu time    0.0013: real time    0.0013
    CHARGE:  cpu time    1.7850: real time    1.7859
    MIXING:  cpu time    0.0009: real time    0.0009
    --------------------------------------------
      LOOP:  cpu time   30.6003: real time   31.0817

 eigenvalue-minimisations  : 19399
 total energy-change (2. order) : 0.6884017E+02  (-0.1747574E+02)
 number of electron     672.0000339 magnetization      48.0000101
 augmentation part      246.6155148 magnetization      32.1852059

 Broyden mixing:
  rms(total) = 0.53113E+01    rms(broyden)= 0.53071E+01
  rms(prec ) = 0.57307E+01
  weight for this iteration     100.00

 eigenvalues of (default mixing * dielectric matrix)
  average eigenvalue GAMMA=   0.7322
  1.1057  0.3587

 Free energy of the ion-electron system (eV)
  ---------------------------------------------------
  alpha Z        PSCENC =      2652.81237852
  Ewald energy   TEWEN  =    -41724.02143062
  -Hartree energ DENC   =    -25827.51891032
  -exchange      EXHF   =         0.00000000
  -V(xc)+E(xc)   XCENC  =      3674.32011654
  PAW double counting   =     63348.37434733   -66831.45555274
  entropy T*S    EENTRO =        -0.00000000
  eigenvalues    EBANDS =    -10070.31491774
  atomic energy  EATOM  =     73862.19814772
  Solvation  Ediel_sol  =         0.00000000
  ---------------------------------------------------
  free energy    TOTEN  =      -915.60582130 eV

  energy without entropy =     -915.60582130  energy(sigma->0) =     -915.60582130


--------------------------------------------------------------------------------------------------------




--------------------------------------- Iteration      1(  15)  ---------------------------------------


    POTLOK:  cpu time    0.1690: real time    0.1691
    SETDIJ:  cpu time    4.9521: real time    4.9539
    EDDIAG:  cpu time    4.4559: real time    4.8583
  RMM-DIIS:  cpu time   18.2533: real time   18.2706
    ORTHCH:  cpu time    1.1665: real time    1.2484
       DOS:  cpu time    0.0021: real time    0.0021
    CHARGE:  cpu time    1.7851: real time    1.7867
    MIXING:  cpu time    0.0025: real time    0.0025
    --------------------------------------------
      LOOP:  cpu time   30.7865: real time   31.2917

 eigenvalue-minimisations  : 20276
 total energy-change (2. order) : 0.1414922E+02  (-0.1903809E+01)
 number of electron     672.0000339 magnetization      48.0000130
 augmentation part      249.6641608 magnetization      33.8119754

 Broyden mixing:
  rms(total) = 0.21576E+01    rms(broyden)= 0.21573E+01
  rms(prec ) = 0.22380E+01
  weight for this iteration     100.00

 eigenvalues of (default mixing * dielectric matrix)
  average eigenvalue GAMMA=   0.9591
  0.3849  0.7558  1.7366

 Free energy of the ion-electron system (eV)
  ---------------------------------------------------
  alpha Z        PSCENC =      2652.81237852
  Ewald energy   TEWEN  =    -41724.02143062
  -Hartree energ DENC   =    -25751.82223365
  -exchange      EXHF   =         0.00000000
  -V(xc)+E(xc)   XCENC  =      3707.38360171
  PAW double counting   =     67460.22662415   -70983.77805508
  entropy T*S    EENTRO =        -0.00000000
  eigenvalues    EBANDS =    -10124.45563082
  atomic energy  EATOM  =     73862.19814772
  Solvation  Ediel_sol  =         0.00000000
  ---------------------------------------------------
  free energy    TOTEN  =      -901.45659804 eV

  energy without entropy =     -901.45659804  energy(sigma->0) =     -901.45659804


--------------------------------------------------------------------------------------------------------




--------------------------------------- Iteration      1(  16)  ---------------------------------------


    POTLOK:  cpu time    0.1746: real time    0.1757
    SETDIJ:  cpu time    4.9965: real time    5.0079
    EDDIAG:  cpu time    4.4414: real time    4.8186
  RMM-DIIS:  cpu time   17.5335: real time   17.5517
    ORTHCH:  cpu time    1.1714: real time    1.2516
       DOS:  cpu time    0.0020: real time    0.0020
    CHARGE:  cpu time    1.8046: real time    1.8047
    MIXING:  cpu time    0.0009: real time    0.0009
    --------------------------------------------
      LOOP:  cpu time   30.1249: real time   30.6128

 eigenvalue-minimisations  : 18970
 total energy-change (2. order) :-0.1627406E+01  (-0.6524722E+00)
 number of electron     672.0000339 magnetization      48.0000138
 augmentation part      251.2238914 magnetization      33.9001220

 Broyden mixing:
  rms(total) = 0.14161E+01    rms(broyden)= 0.14156E+01
  rms(prec ) = 0.15062E+01
  weight for this iteration     100.00

 eigenvalues of (default mixing * dielectric matrix)
  average eigenvalue GAMMA=   0.9786
  2.0914  0.9027  0.3923  0.5279

 Free energy of the ion-electron system (eV)
  ---------------------------------------------------
  alpha Z        PSCENC =      2652.81237852
  Ewald energy   TEWEN  =    -41724.02143062
  -Hartree energ DENC   =    -25700.04203524
  -exchange      EXHF   =         0.00000000
  -V(xc)+E(xc)   XCENC  =      3708.70601687
  PAW double counting   =     70480.26049291   -74034.24752472
  entropy T*S    EENTRO =        -0.00000000
  eigenvalues    EBANDS =    -10148.75004905
  atomic energy  EATOM  =     73862.19814772
  Solvation  Ediel_sol  =         0.00000000
  ---------------------------------------------------
  free energy    TOTEN  =      -903.08400359 eV

  energy without entropy =     -903.08400359  energy(sigma->0) =     -903.08400359


--------------------------------------------------------------------------------------------------------




--------------------------------------- Iteration      1(  17)  ---------------------------------------


    POTLOK:  cpu time    0.1762: real time    0.1763
    SETDIJ:  cpu time    5.0041: real time    5.0163
    EDDIAG:  cpu time    4.4463: real time    4.8245
  RMM-DIIS:  cpu time   18.7872: real time   18.8216
    ORTHCH:  cpu time    1.1975: real time    1.2756
       DOS:  cpu time    0.0011: real time    0.0011
    CHARGE:  cpu time    1.7838: real time    1.7865
    MIXING:  cpu time    0.0018: real time    0.0018
    --------------------------------------------
      LOOP:  cpu time   31.3980: real time   31.9036

 eigenvalue-minimisations  : 20539
 total energy-change (2. order) : 0.1691319E+00  (-0.5739280E-01)
 number of electron     672.0000340 magnetization      48.0000144
 augmentation part      251.1184004 magnetization      33.8915067

 Broyden mixing:
  rms(total) = 0.75867E+00    rms(broyden)= 0.75857E+00
  rms(prec ) = 0.85522E+00
  weight for this iteration     100.00

 eigenvalues of (default mixing * dielectric matrix)
  average eigenvalue GAMMA=   1.0088
  2.2469  1.1452  0.3827  0.6986  0.5708

 Free energy of the ion-electron system (eV)
  ---------------------------------------------------
  alpha Z        PSCENC =      2652.81237852
  Ewald energy   TEWEN  =    -41724.02143062
  -Hartree energ DENC   =    -25692.45124645
  -exchange      EXHF   =         0.00000000
  -V(xc)+E(xc)   XCENC  =      3705.59754722
  PAW double counting   =     71303.60914893   -74865.64305081
  entropy T*S    EENTRO =        -0.00000000
  eigenvalues    EBANDS =    -10145.01636620
  atomic energy  EATOM  =     73862.19814772
  Solvation  Ediel_sol  =         0.00000000
  ---------------------------------------------------
  free energy    TOTEN  =      -902.91487168 eV

  energy without entropy =     -902.91487168  energy(sigma->0) =     -902.91487168


--------------------------------------------------------------------------------------------------------




--------------------------------------- Iteration      1(  18)  ---------------------------------------


    POTLOK:  cpu time    0.1708: real time    0.1712
    SETDIJ:  cpu time    4.9901: real time    5.0022
    EDDIAG:  cpu time    4.4795: real time    4.8721
  RMM-DIIS:  cpu time   17.6504: real time   17.6569
    ORTHCH:  cpu time    1.1771: real time    1.2578
       DOS:  cpu time    0.0013: real time    0.0013
    CHARGE:  cpu time    1.7803: real time    1.7857
    MIXING:  cpu time    0.0011: real time    0.0011
    --------------------------------------------
      LOOP:  cpu time   30.2506: real time   30.7483

 eigenvalue-minimisations  : 19035
 total energy-change (2. order) : 0.3964256E+00  (-0.7072039E-01)
 number of electron     672.0000339 magnetization      48.0000146
 augmentation part      250.5976289 magnetization      33.8485573

 Broyden mixing:
  rms(total) = 0.25977E+00    rms(broyden)= 0.25945E+00
  rms(prec ) = 0.27264E+00
  weight for this iteration     100.00

 eigenvalues of (default mixing * dielectric matrix)
  average eigenvalue GAMMA=   1.0234
  2.4662  1.3736  0.8461  0.3839  0.5876  0.4829

 Free energy of the ion-electron system (eV)
  ---------------------------------------------------
  alpha Z        PSCENC =      2652.81237852
[...]
   4      -0.610    -0.833     1.442    -0.140    -0.070    -0.100
   5      -0.724    -0.806     1.530     0.276     0.000     0.020
   6      -0.631    -0.866     1.497    -0.164     0.053     0.014
   7      -0.927    -0.965     1.893     0.170    -0.078     0.048
   8      -0.929    -0.902     1.830     0.027    -0.024     0.007
   9      -0.704    -1.136     1.840     0.255    -0.012    -0.113
  10      -0.846    -1.206     2.052    -0.049    -0.085     0.094
  11      -0.734    -0.564     1.298     0.004     0.002     0.033
  12      -0.690    -0.858     1.548    -0.104    -0.046     0.038
  13      -0.806    -0.795     1.601     0.313    -0.011     0.054
  14      -0.526    -1.086     1.612     0.097     0.049     0.093
  15      -0.649    -0.791     1.441    -0.220     0.081     0.083
  16      -0.927    -0.494     1.421    -0.021     0.018    -0.022
  17       1.498     1.364    -2.861    -0.023     0.005     0.078
  18       1.501     1.451    -2.952    -0.033    -0.053    -0.111
  19       1.472     1.500    -2.973     0.082    -0.044    -0.036
  20       1.434     1.556    -2.990     0.083     0.001    -0.043
  21       1.482     1.485    -2.967    -0.059    -0.111    -0.002
  22       1.484     1.414    -2.898     0.092     0.072     0.044
  23       1.446     1.543    -2.988    -0.072     0.111     0.046
  24       1.680     1.195    -2.874    -0.019     0.069    -0.012
  25      -0.861    -0.672     1.533    -0.993     0.656     1.652
  26       0.206    -1.941     1.735     0.122     1.121     0.368
  27       0.318    -0.880     0.561    -1.313     0.230     0.882
  28      -0.277    -0.611     0.888    -0.612     0.807    -0.190
  29       1.168    -0.550    -0.618    -0.475     0.370     0.913
  30       0.374    -1.949     1.575     0.088    -0.490    -0.406
  31       1.430    -0.548    -0.882    -1.172    -0.342    -1.635
  32       0.126     1.192    -1.318    -0.281    -0.285    -0.164
  33      -1.259     0.210     1.048     0.347    -0.095     0.301
  34       0.189     0.387    -0.576    -0.014    -0.599     0.020
  35      -1.031    -0.585     1.616     1.718     0.553     0.480
  36      -1.749    -0.572     2.321     0.556     1.077     0.280
  37       1.374    -0.750    -0.625    -0.217    -0.158    -0.515
  38       0.349    -0.149    -0.200     0.682    -0.182    -0.573
  39       0.106     0.490    -0.596    -0.877    -0.773    -1.095
  40       2.843    -2.395    -0.449    -0.929    -1.306    -1.548
  41      -1.589     0.002     1.587    -4.133     2.621    -4.607
  42      -2.750     0.644     2.106     5.123     2.289     4.915
  43       5.199    -6.399     1.200     0.743    -4.732    -0.668
  44      -2.282     2.478    -0.196    -5.319    -2.521     3.738
  45       7.292    -6.382    -0.910    -0.002     4.343     1.256
  46      -3.463     2.190     1.273     4.937    -2.900    -4.534
  47      -2.931     2.442     0.489    -5.337     4.575    -2.575
  48       4.612    -5.217     0.606     0.670    -4.392    -0.055
  49      -3.725     2.450     1.275     3.819     3.401     3.314
  50      -3.623     1.903     1.721    -5.360    -3.323     4.823
  51      -2.263     1.399     0.864     6.553    -0.925    -4.649
  52       5.202    -6.730     1.528     0.711     5.953     0.663
  53      -2.526     1.127     1.399    -4.088     2.207    -4.301
  54      -2.251    -0.434     2.685     4.581     1.093     4.969
  55       5.455    -6.974     1.519     0.067    -4.997    -1.453
  56      -3.563     4.063    -0.500    -5.673    -2.482     2.118
  57       4.852    -6.639     1.787    -0.471     4.374    -0.115
  58      -3.058     1.804     1.254     4.257    -2.441    -4.051
  59      -2.980     3.398    -0.418    -4.479     2.226    -2.523
  60       6.385    -5.443    -0.942     1.501    -4.878    -0.687
  61      -4.209     2.935     1.273     4.349     3.814     4.251
  62      -3.019     3.227    -0.208    -3.431    -2.572     3.316
  63      -3.736     3.799    -0.063     4.503    -1.964    -2.879
  64       5.300    -5.748     0.448    -0.383     4.451    -0.570
  65      -3.980     2.854     1.126    -4.796     2.375    -3.727
  66      -2.788     3.361    -0.573     4.257     3.602     1.884
  67       6.234    -6.380     0.146    -0.850    -4.436     0.895
  68      -3.884     2.361     1.523    -3.909    -1.295     5.250
  69       4.792    -6.181     1.390    -0.117     4.836    -0.520
  70      -2.647     2.650    -0.003     4.402    -4.338    -3.718
  71      -2.695     2.745    -0.050    -4.891     2.059    -4.298
  72       5.259    -6.282     1.023    -0.449    -6.299     2.633
  73      -1.828     2.512    -0.684     5.057     1.780     3.338
  74      -4.753     2.837     1.916    -3.035    -1.419     3.694
  75      -2.356     1.038     1.318     5.483    -1.149    -3.277
  76       4.819    -5.739     0.920    -0.214     5.593    -0.406
  77      -2.593     1.672     0.921    -6.262     1.891    -4.228
  78      -3.933     1.808     2.125     4.937     1.538     6.094
  79       7.840    -6.717    -1.123     1.735    -3.637     1.574
  80      -2.030     3.687    -1.657    -6.143    -2.671     1.877
  81       5.887    -5.150    -0.737    -2.502     4.808    -0.447
  82      -0.900     0.928    -0.028     6.353    -2.048    -3.470
  83      -3.072     2.577     0.495    -4.898     1.472    -3.843
  84       3.437    -4.418     0.981    -0.480    -4.776    -1.759
  85      -4.072     4.581    -0.509     5.146     2.532     3.279
  86      -2.323     3.323    -0.999    -6.377    -2.726     2.669
  87      -2.094    -0.461     2.555     5.504    -5.243    -4.149
  88       6.078    -6.711     0.632    -1.688     4.037    -0.693
 ---------------------------------------------------------------------


 Total hyperfine coupling parameters after diagonalization (MHz)
 (convention: |A_zz| > |A_xx| > |A_yy|)
 ----------------------------------------------------------------------
  ion      A_xx      A_yy      A_zz     asymmetry (A_yy - A_xx)/ A_zz 
 ----------------------------------------------------------------------
   1       0.152    -0.044     2.935      -0.067
   2       2.324     1.926     4.328      -0.092
   3       2.512     2.217     4.487      -0.066
   4       1.640     1.276     3.631      -0.100
   5       1.354     0.796     3.370      -0.166
   6       2.142     1.739     4.188      -0.096
   7      -0.405    -0.060     2.610       0.132
   8       0.638     0.578     3.354      -0.018
   9       2.424     1.753     4.854      -0.138
  10      -0.376    -0.005     2.895       0.128
  11       1.365     1.195     3.228      -0.053
  12       2.801     2.537     4.993      -0.053
  13       1.937     1.310     4.027      -0.156
  14       0.751     0.158     2.879      -0.206
  15       1.908     1.440     3.844      -0.122
  16       2.477     2.042     4.392      -0.099
  17      13.591     9.366    13.731      -0.308
  18      14.784    10.391    14.863      -0.296
  19      15.301    10.924    15.468      -0.283
  20      14.550    10.168    14.756      -0.297
  21      14.542    10.146    14.659      -0.300
  22      13.095     8.844    13.293      -0.320
  23      14.566    10.164    14.736      -0.299
  24      13.751     9.682    14.238      -0.286
  25      99.718    97.252   102.116      -0.024
  26      96.339    94.746    99.085      -0.016
  27      96.729    94.014    97.351      -0.028
  28      98.713    97.818   100.374      -0.009
  29      93.898    91.950    94.878      -0.021
  30      96.117    93.920    97.711      -0.022
  31      97.618    94.397    99.073      -0.033
  32      94.788    93.273    95.927      -0.016
  33      98.905    97.356    99.849      -0.016
  34     101.406   100.119   101.544      -0.013
  35      96.579    93.569    98.187      -0.031
  36      96.864    95.184    99.984      -0.017
  37      93.859    92.795    95.431      -0.011
  38      95.661    94.940    96.839      -0.007
  39      95.667    93.174    96.407      -0.026
  40      99.539    95.702   102.609      -0.037
  41       3.426     0.795    13.854      -0.190
  42       4.866     0.320    15.634      -0.291
  43       5.123     0.586    15.460      -0.293
  44       4.812     1.664    15.709      -0.200
  45       5.252     0.962    16.878      -0.254
  46       4.721     0.912    16.112      -0.236
  47       7.170     1.135    16.920      -0.357
  48       4.473     1.382    14.123      -0.219
  49       5.339     0.792    14.385      -0.316
  50       4.590     0.317    16.770      -0.255
  51       7.137     0.258    16.831      -0.409
  52       3.902    -0.027    16.415      -0.239
  53       4.097     1.176    13.962      -0.209
  54       6.023     0.288    14.758      -0.389
  55       5.612    -0.027    16.152      -0.349
  56       7.881     2.368    17.367      -0.317
  57       5.310    -0.038    14.588      -0.367
  58       3.388     0.057    13.316      -0.250
  59       5.735     1.953    14.535      -0.260
  60       5.123     2.868    17.510      -0.129
  61       2.499    -2.031    13.692      -0.331
  62       5.648     2.939    14.877      -0.182
  63       3.732    -0.601    12.781      -0.339
  64       4.761     1.133    14.904      -0.243
  65       6.148     1.296    15.880      -0.306
  66       6.400     1.161    14.384      -0.364
  67       8.642     4.288    19.456      -0.224
  68      -2.457     1.204    11.943       0.307
  69       7.685     3.468    17.919      -0.235
  70       3.280    -0.477    14.306      -0.263
  71       4.930     2.015    15.951      -0.183
  72       4.781     0.001    17.409      -0.275
  73       4.601     1.769    14.534      -0.195
  74       3.839    -0.812    11.994      -0.388
  75       8.048     1.985    15.568      -0.389
  76       4.271     1.543    16.112      -0.169
  77       5.582    -0.038    15.957      -0.352
  78       5.743     0.908    17.781      -0.272
  79       8.422     2.411    19.231      -0.313
  80       6.149     1.997    16.838      -0.247
  81       5.942     3.184    17.815      -0.155
  82       6.431     1.744    16.571      -0.283
  83       3.379    -0.885    12.807      -0.333
  84       5.225     1.441    14.107      -0.268
  85       7.246     2.723    18.112      -0.250
  86       6.766     2.404    17.911      -0.244
  87       5.390     1.251    18.447      -0.224
  88       8.930     3.504    18.881      -0.287
 ---------------------------------------------------------------------



--------------------------------------------------------------------------------------------------------


 stress matrix after NEB project (eV)
    -43.51119     -3.29070      2.55997
     -3.31528    -42.89892      0.67946
      2.56199      0.68480    -54.75957
  FORCES: max atom, RMS     2.286490    1.017052
  FORCE total and by dimension    9.540794    1.717879
  Stress total and by dimension   82.267972   54.759572
     LOOP+:  cpu time 1129.9592: real time 1151.7201
    4ORBIT:  cpu time    0.0000: real time    0.0000
 


 total charge     
 
# of ion       s       p       d       tot
------------------------------------------
    1        0.054   6.000   0.000   6.055
    2        0.048   5.989   0.000   6.037
    3        0.047   5.989   0.000   6.036
    4        0.046   5.988   0.000   6.034
    5        0.057   6.001   0.000   6.058
    6        0.054   5.997   0.000   6.052
    7        0.052   5.996   0.000   6.048
    8        0.045   5.988   0.000   6.032
    9        0.055   5.999   0.000   6.054
   10        0.057   6.003   0.000   6.060
   11        0.052   5.994   0.000   6.046
   12        0.049   5.990   0.000   6.038
   13        0.054   5.998   0.000   6.052
   14        0.057   6.002   0.000   6.059
   15        0.050   5.993   0.000   6.043
   16        0.054   5.996   0.000   6.050
   17        0.148   6.126   0.082   6.356
   18        0.150   6.129   0.085   6.364
   19        0.149   6.130   0.086   6.365
   20        0.150   6.130   0.086   6.366
   21        0.151   6.130   0.086   6.367
   22        0.146   6.123   0.080   6.349
   23        0.147   6.126   0.083   6.357
   24        0.144   6.119   0.077   6.339
   25        0.373   6.445   4.828  11.646
   26        0.377   6.461   4.826  11.664
   27        0.374   6.457   4.831  11.662
   28        0.362   6.427   4.797  11.586
   29        0.379   6.461   4.838  11.678
   30        0.371   6.443   4.813  11.627
   31        0.391   6.487   4.876  11.754
   32        0.385   6.479   4.850  11.713
   33        0.386   6.480   4.851  11.718
   34        0.367   6.434   4.818  11.619
   35        0.367   6.437   4.802  11.606
   36        0.366   6.436   4.804  11.606
   37        0.378   6.460   4.838  11.676
   38        0.389   6.481   4.862  11.732
   39        0.388   6.480   4.860  11.728
   40        0.386   6.476   4.865  11.727
   41        1.598   3.503   0.000   5.101
   42        1.599   3.509   0.000   5.108
   43        1.601   3.525   0.000   5.127
   44        1.597   3.505   0.000   5.102
   45        1.597   3.465   0.000   5.062
   46        1.598   3.502   0.000   5.100
   47        1.600   3.510   0.000   5.111
   48        1.598   3.513   0.000   5.112
   49        1.596   3.504   0.000   5.100
   50        1.601   3.518   0.000   5.119
   51        1.599   3.493   0.000   5.092
   52        1.600   3.498   0.000   5.098
   53        1.597   3.499   0.000   5.096
   54        1.598   3.524   0.000   5.121
   55        1.599   3.513   0.000   5.113
   56        1.601   3.524   0.000   5.125
   57        1.601   3.530   0.000   5.131
   58        1.602   3.515   0.000   5.117
   59        1.597   3.512   0.000   5.109
   60        1.598   3.514   0.000   5.112
   61        1.599   3.477   0.000   5.076
   62        1.598   3.515   0.000   5.113
   63        1.597   3.476   0.000   5.073
   64        1.602   3.529   0.000   5.131
   65        1.598   3.505   0.000   5.103
   66        1.596   3.492   0.000   5.088
   67        1.599   3.506   0.000   5.106
   68        1.596   3.488   0.000   5.084
   69        1.601   3.521   0.000   5.123
   70        1.599   3.497   0.000   5.096
   71        1.599   3.513   0.000   5.112
   72        1.603   3.473   0.000   5.076
   73        1.599   3.501   0.000   5.100
   74        1.595   3.505   0.000   5.100
   75        1.596   3.525   0.000   5.121
   76        1.598   3.482   0.000   5.079
   77        1.600   3.512   0.000   5.111
   78        1.605   3.527   0.000   5.131
   79        1.602   3.518   0.000   5.120
   80        1.600   3.516   0.000   5.117
   81        1.601   3.520   0.000   5.121
   82        1.599   3.507   0.000   5.106
   83        1.597   3.521   0.000   5.118
   84        1.598   3.508   0.000   5.106
   85        1.600   3.512   0.000   5.112
   86        1.600   3.487   0.000   5.087
   87        1.603   3.513   0.000   5.116
   88        1.600   3.522   0.000   5.122
--------------------------------------------------
tot         84.815 416.621  78.023 579.459
 


 magnetization (x)
 
# of ion       s       p       d       tot
------------------------------------------
    1        0.001   0.000   0.000   0.001
    2        0.002   0.000   0.000   0.003
    3        0.002   0.001   0.000   0.003
    4        0.002   0.000   0.000   0.002
    5        0.001   0.000   0.000   0.001
    6        0.002   0.000   0.000   0.002
    7        0.001   0.000   0.000   0.001
    8        0.001   0.001   0.000   0.002
    9        0.002   0.001   0.000   0.003
   10        0.000   0.001   0.000   0.001
   11        0.001  -0.000   0.000   0.001
   12        0.003   0.001   0.000   0.003
   13        0.002   0.001   0.000   0.002
   14        0.001   0.000   0.000   0.001
   15        0.002   0.000   0.000   0.002
   16        0.002   0.000   0.000   0.002
   17        0.007   0.002   0.001   0.010
   18        0.007   0.003   0.001   0.011
   19        0.008   0.003   0.001   0.012
   20        0.007   0.002   0.001   0.011
   21        0.007   0.003   0.001   0.011
   22        0.007   0.002   0.001   0.010
   23        0.008   0.002   0.001   0.011
   24        0.007   0.002   0.001   0.010
   25        0.016   0.030   2.763   2.809
   26        0.016   0.030   2.752   2.798
   27        0.015   0.030   2.759   2.804
   28        0.016   0.030   2.786   2.831
   29        0.014   0.029   2.744   2.787
   30        0.015   0.029   2.774   2.818
   31        0.015   0.031   2.719   2.764
   32        0.015   0.031   2.732   2.777
   33        0.016   0.032   2.734   2.782
   34        0.016   0.030   2.777   2.823
   35        0.015   0.029   2.783   2.827
   36        0.015   0.030   2.788   2.833
   37        0.015   0.030   2.739   2.784
   38        0.015   0.031   2.726   2.772
   39        0.015   0.031   2.715   2.761
   40        0.017   0.033   2.719   2.768
   41        0.002   0.019   0.000   0.021
   42        0.002   0.038   0.000   0.039
   43        0.002   0.034   0.000   0.036
   44        0.002   0.028   0.000   0.030
   45        0.002   0.027   0.000   0.029
   46        0.002   0.032   0.000   0.034
   47        0.002   0.042   0.000   0.044
   48        0.002   0.026   0.000   0.028
   49        0.002   0.030   0.000   0.032
   50        0.002   0.038   0.000   0.040
   51        0.002   0.040   0.000   0.042
   52        0.002   0.028   0.000   0.030
   53        0.002   0.025   0.000   0.027
   54        0.002   0.033   0.000   0.035
   55        0.002   0.036   0.000   0.038
   56        0.002   0.054   0.000   0.056
   57        0.002   0.039   0.000   0.041
   58        0.002   0.018   0.000   0.019
   59        0.002   0.030   0.000   0.032
   60        0.002   0.047   0.000   0.049
   61        0.002   0.008   0.000   0.009
   62        0.002   0.034   0.000   0.036
   63        0.002   0.016   0.000   0.018
   64        0.002   0.028   0.000   0.030
   65        0.002   0.036   0.000   0.038
   66        0.002   0.028   0.000   0.030
   67        0.003   0.055   0.000   0.058
   68        0.001   0.005   0.000   0.006
   69        0.002   0.055   0.000   0.057
   70        0.002   0.015   0.000   0.017
   71        0.002   0.036   0.000   0.038
   72        0.002   0.023   0.000   0.025
   73        0.002   0.028   0.000   0.029
   74        0.001   0.012   0.000   0.013
   75        0.002   0.045   0.000   0.048
   76        0.002   0.023   0.000   0.025
   77        0.002   0.040   0.000   0.042
   78        0.002   0.043   0.000   0.045
   79        0.002   0.058   0.000   0.060
   80        0.002   0.044   0.000   0.046
   81        0.002   0.042   0.000   0.044
   82        0.002   0.040   0.000   0.042
   83        0.001   0.018   0.000   0.019
   84        0.002   0.028   0.000   0.030
   85        0.002   0.051   0.000   0.054
   86        0.002   0.044   0.000   0.047
   87        0.002   0.042   0.000   0.044
   88        0.002   0.062   0.000   0.064
--------------------------------------------------
tot          0.423   2.130  44.019  46.572
 

 total amount of memory used by VASP MPI-rank0    94435. kBytes
=======================================================================

   base      :      30000. kBytes
   nonlr-proj:      13676. kBytes
   fftplans  :       1275. kBytes
   grid      :      22786. kBytes
   one-center:       2737. kBytes
   wavefun   :      23961. kBytes
 
  
  
 General timing and accounting informations for this job:
 ========================================================
  
                  Total CPU time used (sec):     1150.875
                            User time (sec):     1139.706
                          System time (sec):       11.168
                         Elapsed time (sec):     1175.127
  
                   Maximum memory used (kb):      195076.
                   Average memory used (kb):           0.
  
                          Minor page faults:       411371
                          Major page faults:            0
                 Voluntary context switches:       387198
